<event>
 5    1  0.6978980E-004  0.9118800E+02  0.7818608E-02  0.1130116E+00
         25   -1    0    0    0    0  0.00000000000E+00  0.00000000000E+00  0.99999998245E-14  0.12500000000E+03  0.12500000000E+03 0.  0.
        -13    1    3    3    0    0  0.77411202120E+01 -0.25631100121E+02 -0.49739449580E+02  0.56488071697E+02  0.10566000000E+00 0.  1.
         23    2    1    0    0    0 -0.49715971606E+01 -0.25755350895E+02 -0.12297644475E+02  0.96029550613E+02  0.91555380253E+02 0.  0.
         13    1    3    3    0    0 -0.12712717373E+02 -0.12425077431E+00  0.37441805105E+02  0.39541478916E+02  0.10566000000E+00 0. -1.
         22    1    1    0    0    0  0.49715971606E+01  0.25755350895E+02  0.12297644475E+02  0.28970449387E+02  0.00000000000E+00 0.  1.
</event>
<event>
 5    1  0.6978980E-004  0.9118800E+02  0.7818608E-02  0.1130116E+00
         25   -1    0    0    0    0  0.00000000000E+00  0.00000000000E+00  0.99999998245E-14  0.12500000000E+03  0.12500000000E+03 0.  0.
        -13    1    3    3    0    0  0.39382621172E+02 -0.96297018729E+01 -0.84608742571E+01  0.41416416622E+02  0.10566000000E+00 0.  1.
         23    2    1    0    0    0  0.11597631553E+01  0.28167028756E+02  0.38063500511E+01  0.96553297903E+02  0.92267678391E+02 0.  0.
         13    1    3    3    0    0 -0.38222858017E+02  0.37796730628E+02  0.12267224308E+02  0.55136881281E+02  0.10566000000E+00 0. -1.
         22    1    1    0    0    0 -0.11597631553E+01 -0.28167028756E+02 -0.38063500511E+01  0.28446702097E+02  0.00000000000E+00 0. -1.
</event>
<event>
 5    1  0.6978980E-004  0.9118800E+02  0.7818608E-02  0.1130116E+00
         25   -1    0    0    0    0  0.00000000000E+00  0.00000000000E+00  0.99999998245E-14  0.12500000000E+03  0.12500000000E+03 0.  0.
        -13    1    3    3    0    0 -0.39738135153E+02  0.70013148304E+01  0.40789385153E+01  0.40555969946E+02  0.10566000000E+00 0.  1.
         23    2    1    0    0    0  0.73835049723E+01 -0.94255177037E+01  0.26994875368E+02  0.95469002289E+02  0.90786841405E+02 0.  0.
         13    1    3    3    0    0  0.47121640126E+02 -0.16426832534E+02  0.22915936853E+02  0.54913032343E+02  0.10566000000E+00 0. -1.
         22    1    1    0    0    0 -0.73835049723E+01  0.94255177037E+01 -0.26994875368E+02  0.29530997711E+02  0.00000000000E+00 0. -1.
</event>
<event>
 5    1  0.6978980E-004  0.9118800E+02  0.7818608E-02  0.1130116E+00
         25   -1    0    0    0    0  0.00000000000E+00  0.00000000000E+00  0.99999998245E-14  0.12500000000E+03  0.12500000000E+03 0.  0.
        -13    1    3    3    0    0  0.78599031802E+00  0.26730556707E+02  0.34362766618E+02  0.43542523311E+02  0.10566000000E+00 0.  1.
         23    2    1    0    0    0 -0.21150854511E+02 -0.15465339335E+02  0.14199227983E+02  0.95198096662E+02  0.90413075191E+02 0.  0.
         13    1    3    3    0    0 -0.21936844829E+02 -0.42195896042E+02 -0.20163538635E+02  0.51655573350E+02  0.10566000000E+00 0. -1.
         22    1    1    0    0    0  0.21150854511E+02  0.15465339335E+02 -0.14199227983E+02  0.29801903338E+02  0.00000000000E+00 0. -1.
</event>
<event>
 5    1  0.6978980E-004  0.9118800E+02  0.7818608E-02  0.1130116E+00
         25   -1    0    0    0    0  0.00000000000E+00  0.00000000000E+00  0.99999998245E-14  0.12500000000E+03  0.12500000000E+03 0.  0.
        -13    1    3    3    0    0  0.53464246209E+02  0.30993883221E+02 -0.48507598186E+01  0.61988607459E+02  0.10566000000E+00 0. -1.
         23    2    1    0    0    0  0.22672230451E+02  0.19450330473E+02 -0.37666038299E+01  0.94891318635E+02  0.89987941741E+02 0.  0.
         13    1    3    3    0    0 -0.30792015759E+02 -0.11543552747E+02  0.10841559886E+01  0.32902711176E+02  0.10566000000E+00 0.  1.
         22    1    1    0    0    0 -0.22672230451E+02 -0.19450330473E+02  0.37666038299E+01  0.30108681365E+02  0.00000000000E+00 0. -1.
</event>
<event>
 5    1  0.6978980E-004  0.9118800E+02  0.7818608E-02  0.1130116E+00
         25   -1    0    0    0    0  0.00000000000E+00  0.00000000000E+00  0.99999998245E-14  0.12500000000E+03  0.12500000000E+03 0.  0.
        -13    1    3    3    0    0 -0.50544885533E+02  0.93814298254E+01  0.28254847669E+02  0.58661267118E+02  0.10566000000E+00 0.  1.
         23    2    1    0    0    0 -0.28668119905E+02 -0.96533324106E+01  0.91154868855E+01  0.93406645846E+02  0.87901430372E+02 0.  0.
         13    1    3    3    0    0  0.21876765628E+02 -0.19034762236E+02 -0.19139360783E+02  0.34745378728E+02  0.10566000000E+00 0. -1.
         22    1    1    0    0    0  0.28668119905E+02  0.96533324106E+01 -0.91154868855E+01  0.31593354154E+02  0.00000000000E+00 0.  1.
</event>
<event>
 5    1  0.6978980E-004  0.9118800E+02  0.7818608E-02  0.1130116E+00
         25   -1    0    0    0    0  0.00000000000E+00  0.00000000000E+00  0.99999998245E-14  0.12500000000E+03  0.12500000000E+03 0.  0.
        -13    1    3    3    0    0 -0.93128672179E+01  0.11361431624E+02 -0.54275232952E+02  0.56228317603E+02  0.10566000000E+00 0.  1.
         23    2    1    0    0    0 -0.99471851697E+01  0.25626240240E+02 -0.30693594565E+02  0.83796269235E+02  0.72966206621E+02 0.  0.
         13    1    3    3    0    0 -0.63431795177E+00  0.14264808616E+02  0.23581638387E+02  0.27567951632E+02  0.10566000000E+00 0. -1.
         22    1    1    0    0    0  0.99471851697E+01 -0.25626240240E+02  0.30693594565E+02  0.41203730765E+02  0.00000000000E+00 0.  1.
</event>
<event>
 5    1  0.6978980E-004  0.9118800E+02  0.7818608E-02  0.1130116E+00
         25   -1    0    0    0    0  0.00000000000E+00  0.00000000000E+00  0.99999998245E-14  0.12500000000E+03  0.12500000000E+03 0.  0.
        -13    1    3    3    0    0 -0.11976728648E+02  0.51364215479E+02  0.28193093691E+02  0.59804568026E+02  0.10566000000E+00 0.  1.
         23    2    1    0    0    0 -0.17644508910E+02  0.21857435791E+02  0.88107183255E+01  0.95560146885E+02  0.90912247367E+02 0.  0.
         13    1    3    3    0    0 -0.56677802614E+01 -0.29506779689E+02 -0.19382375366E+02  0.35755578859E+02  0.10566000000E+00 0. -1.
         22    1    1    0    0    0  0.17644508910E+02 -0.21857435791E+02 -0.88107183255E+01  0.29439853115E+02  0.00000000000E+00 0.  1.
</event>
<event>
 5    1  0.6978980E-004  0.9118800E+02  0.7818608E-02  0.1130116E+00
         25   -1    0    0    0    0  0.00000000000E+00  0.00000000000E+00  0.99999998245E-14  0.12500000000E+03  0.12500000000E+03 0.  0.
        -13    1    3    3    0    0  0.16488274183E+02 -0.41109457731E+02 -0.29497703796E+02  0.53216316988E+02  0.10566000000E+00 0. -1.
         23    2    1    0    0    0  0.11380453462E+02 -0.27164240477E+02  0.87743020045E+01  0.94268923590E+02  0.89119194888E+02 0.  0.
         13    1    3    3    0    0 -0.51078207211E+01  0.13945217255E+02  0.38272005800E+02  0.41052606602E+02  0.10566000000E+00 0.  1.
         22    1    1    0    0    0 -0.11380453462E+02  0.27164240477E+02 -0.87743020045E+01  0.30731076410E+02  0.00000000000E+00 0. -1.
</event>
<event>
 5    1  0.6978980E-004  0.9118800E+02  0.7818608E-02  0.1130116E+00
         25   -1    0    0    0    0  0.00000000000E+00  0.00000000000E+00  0.99999998245E-14  0.12500000000E+03  0.12500000000E+03 0.  0.
        -13    1    3    3    0    0 -0.10589761717E+02 -0.37044481977E+02 -0.29486198341E+02  0.48516839909E+02  0.10566000000E+00 0. -1.
         23    2    1    0    0    0  0.12723112591E+02 -0.24777794629E+02  0.95018123162E+01  0.95570403706E+02  0.90926348913E+02 0.  0.
         13    1    3    3    0    0  0.23312874308E+02  0.12266687348E+02  0.38988010657E+02  0.47053563797E+02  0.10566000000E+00 0.  1.
         22    1    1    0    0    0 -0.12723112591E+02  0.24777794629E+02 -0.95018123162E+01  0.29429596294E+02  0.00000000000E+00 0. -1.
</event>
<event>
 5    1  0.6978980E-004  0.9118800E+02  0.7818608E-02  0.1130116E+00
         25   -1    0    0    0    0  0.00000000000E+00  0.00000000000E+00  0.99999998245E-14  0.12500000000E+03  0.12500000000E+03 0.  0.
        -13    1    3    3    0    0 -0.44778290889E+02 -0.27962378251E+02 -0.17853865780E+02  0.55729360482E+02  0.10566000000E+00 0. -1.
         23    2    1    0    0    0 -0.21294592083E+02  0.43513025583E+01 -0.19627633900E+02  0.95714551421E+02  0.91124298929E+02 0.  0.
         13    1    3    3    0    0  0.23483698806E+02  0.32313680810E+02 -0.17737681205E+01  0.39985190939E+02  0.10566000000E+00 0.  1.
         22    1    1    0    0    0  0.21294592083E+02 -0.43513025583E+01  0.19627633900E+02  0.29285448579E+02  0.00000000000E+00 0. -1.
</event>
<event>
 5    1  0.6978980E-004  0.9118800E+02  0.7818608E-02  0.1130116E+00
         25   -1    0    0    0    0  0.00000000000E+00  0.00000000000E+00  0.99999998245E-14  0.12500000000E+03  0.12500000000E+03 0.  0.
        -13    1    3    3    0    0  0.17154426003E+02 -0.52067835028E+02  0.10842342389E+02  0.55882925196E+02  0.10566000000E+00 0. -1.
         23    2    1    0    0    0  0.14476772447E+02 -0.11877266989E+02  0.20428506470E+02  0.97287723151E+02  0.93257336374E+02 0.  0.
         13    1    3    3    0    0 -0.26776535558E+01  0.40190568039E+02  0.95861640807E+01  0.41404797955E+02  0.10566000000E+00 0.  1.
         22    1    1    0    0    0 -0.14476772447E+02  0.11877266989E+02 -0.20428506470E+02  0.27712276849E+02  0.00000000000E+00 0. -1.
</event>
<event>
 5    1  0.6978980E-004  0.9118800E+02  0.7818608E-02  0.1130116E+00
         25   -1    0    0    0    0  0.00000000000E+00  0.00000000000E+00  0.99999998245E-14  0.12500000000E+03  0.12500000000E+03 0.  0.
        -13    1    3    3    0    0  0.35942475874E+02  0.50298975568E+02 -0.41999938489E+01  0.61963696045E+02  0.10566000000E+00 0. -1.
         23    2    1    0    0    0  0.12834963868E+02  0.27179268596E+02 -0.41935227223E+01  0.94651448606E+02  0.89654125123E+02 0.  0.
         13    1    3    3    0    0 -0.23107512006E+02 -0.23119706972E+02  0.64711266431E-02  0.32687752562E+02  0.10566000000E+00 0.  1.
         22    1    1    0    0    0 -0.12834963868E+02 -0.27179268596E+02  0.41935227223E+01  0.30348551394E+02  0.00000000000E+00 0. -1.
</event>
<event>
 5    1  0.6978980E-004  0.9118800E+02  0.7818608E-02  0.1130116E+00
         25   -1    0    0    0    0  0.00000000000E+00  0.00000000000E+00  0.99999998245E-14  0.12500000000E+03  0.12500000000E+03 0.  0.
        -13    1    3    3    0    0  0.14724862496E+02  0.47586170966E+02  0.33983142042E+02  0.60300334575E+02  0.10566000000E+00 0. -1.
         23    2    1    0    0    0 -0.78707854238E+00  0.16994638680E+02  0.23151462594E+02  0.96269746664E+02  0.91882733231E+02 0.  0.
         13    1    3    3    0    0 -0.15511941039E+02 -0.30591532286E+02 -0.10831679448E+02  0.35969412090E+02  0.10566000000E+00 0.  1.
         22    1    1    0    0    0  0.78707854238E+00 -0.16994638680E+02 -0.23151462594E+02  0.28730253336E+02  0.00000000000E+00 0. -1.
</event>
<event>
 5    1  0.6978980E-004  0.9118800E+02  0.7818608E-02  0.1130116E+00
         25   -1    0    0    0    0  0.00000000000E+00  0.00000000000E+00  0.99999998245E-14  0.12500000000E+03  0.12500000000E+03 0.  0.
        -13    1    3    3    0    0 -0.15539235803E+02  0.37522554863E+02  0.68475133940E+01  0.41186278984E+02  0.10566000000E+00 0.  1.
         23    2    1    0    0    0  0.17175818194E+02 -0.10577427998E+02  0.14913507388E+02  0.99914079321E+02  0.96713596925E+02 0.  0.
         13    1    3    3    0    0  0.32715053997E+02 -0.48099982861E+02  0.80659939944E+01  0.58727800337E+02  0.10566000000E+00 0. -1.
         22    1    1    0    0    0 -0.17175818194E+02  0.10577427998E+02 -0.14913507388E+02  0.25085920679E+02  0.00000000000E+00 0. -1.
</event>
<event>
 5    1  0.6978980E-004  0.9118800E+02  0.7818608E-02  0.1130116E+00
         25   -1    0    0    0    0  0.00000000000E+00  0.00000000000E+00  0.99999998245E-14  0.12500000000E+03  0.12500000000E+03 0.  0.
        -13    1    3    3    0    0  0.18740815456E+02 -0.32969061776E+02 -0.12575846833E+02  0.39954227385E+02  0.10566000000E+00 0.  1.
         23    2    1    0    0    0  0.20392822571E+02  0.20885983859E+02  0.19068104934E+01  0.95747180300E+02  0.91169046694E+02 0.  0.
         13    1    3    3    0    0  0.16520071146E+01  0.53855045634E+02  0.14482657326E+02  0.55792952915E+02  0.10566000000E+00 0. -1.
         22    1    1    0    0    0 -0.20392822571E+02 -0.20885983859E+02 -0.19068104934E+01  0.29252819700E+02  0.00000000000E+00 0. -1.
</event>
<event>
 5    1  0.6978980E-004  0.9118800E+02  0.7818608E-02  0.1130116E+00
         25   -1    0    0    0    0  0.00000000000E+00  0.00000000000E+00  0.99999998245E-14  0.12500000000E+03  0.12500000000E+03 0.  0.
        -13    1    3    3    0    0  0.37318221846E+02 -0.42413587523E+02  0.36252769627E+00  0.56495173941E+02  0.10566000000E+00 0.  1.
         23    2    1    0    0    0  0.14005683711E+02 -0.17077875985E+02  0.19194532549E+02  0.95738368054E+02  0.91156963604E+02 0.  0.
         13    1    3    3    0    0 -0.23312538135E+02  0.25335711538E+02  0.18832004853E+02  0.39243194113E+02  0.10566000000E+00 0. -1.
         22    1    1    0    0    0 -0.14005683711E+02  0.17077875985E+02 -0.19194532549E+02  0.29261631946E+02  0.00000000000E+00 0.  1.
</event>
<event>
 5    1  0.6978980E-004  0.9118800E+02  0.7818608E-02  0.1130116E+00
         25   -1    0    0    0    0  0.00000000000E+00  0.00000000000E+00  0.99999998245E-14  0.12500000000E+03  0.12500000000E+03 0.  0.
        -13    1    3    3    0    0 -0.17636838366E+01  0.17671794226E+02  0.48962216887E+02  0.52083708954E+02  0.10566000000E+00 0. -1.
         23    2    1    0    0    0  0.24256822262E+02  0.52727884316E+01  0.18348024602E+02  0.94131800654E+02  0.88926656090E+02 0.  0.
         13    1    3    3    0    0  0.26020506098E+02 -0.12399005794E+02 -0.30614192285E+02  0.42048091700E+02  0.10566000000E+00 0.  1.
         22    1    1    0    0    0 -0.24256822262E+02 -0.52727884316E+01 -0.18348024602E+02  0.30868199346E+02  0.00000000000E+00 0. -1.
</event>
<event>
 5    1  0.6978980E-004  0.9118800E+02  0.7818608E-02  0.1130116E+00
         25   -1    0    0    0    0  0.00000000000E+00  0.00000000000E+00  0.99999998245E-14  0.12500000000E+03  0.12500000000E+03 0.  0.
        -13    1    3    3    0    0  0.81645330005E+01  0.15152311130E+02 -0.42943597566E+02  0.46264628688E+02  0.10566000000E+00 0. -1.
         23    2    1    0    0    0 -0.23900790755E+02  0.16154270493E+02 -0.53950043513E+01  0.95651842889E+02  0.91038237693E+02 0.  0.
         13    1    3    3    0    0 -0.32065323755E+02  0.10019593635E+01  0.37548593215E+02  0.49387214201E+02  0.10566000000E+00 0.  1.
         22    1    1    0    0    0  0.23900790755E+02 -0.16154270493E+02  0.53950043513E+01  0.29348157111E+02  0.00000000000E+00 0.  1.
</event>
<event>
 5    1  0.6978980E-004  0.9118800E+02  0.7818608E-02  0.1130116E+00
         25   -1    0    0    0    0  0.00000000000E+00  0.00000000000E+00  0.99999998245E-14  0.12500000000E+03  0.12500000000E+03 0.  0.
        -13    1    3    3    0    0 -0.25567247085E+02  0.19424477063E+02 -0.35283190170E+02  0.47706489132E+02  0.10566000000E+00 0. -1.
         23    2    1    0    0    0 -0.11890461646E+02  0.25097429117E+02  0.10103608401E+02  0.95447556291E+02  0.90757308647E+02 0.  0.
         13    1    3    3    0    0  0.13676785439E+02  0.56729520533E+01  0.45386798571E+02  0.47741067159E+02  0.10566000000E+00 0.  1.
         22    1    1    0    0    0  0.11890461646E+02 -0.25097429117E+02 -0.10103608401E+02  0.29552443709E+02  0.00000000000E+00 0.  1.
</event>
<event>
 5    1  0.6978980E-004  0.9118800E+02  0.7818608E-02  0.1130116E+00
         25   -1    0    0    0    0  0.00000000000E+00  0.00000000000E+00  0.99999998245E-14  0.12500000000E+03  0.12500000000E+03 0.  0.
        -13    1    3    3    0    0  0.64162278348E+01  0.14678184390E+02 -0.60112139359E+02  0.62210108013E+02  0.10566000000E+00 0. -1.
         23    2    1    0    0    0  0.12211818951E+01  0.33861883283E+01 -0.29968968691E+02  0.94815622567E+02  0.89882732723E+02 0.  0.
         13    1    3    3    0    0 -0.51950459396E+01 -0.11291996061E+02  0.30143170668E+02  0.32605514554E+02  0.10566000000E+00 0.  1.
         22    1    1    0    0    0 -0.12211818951E+01 -0.33861883283E+01  0.29968968691E+02  0.30184377433E+02  0.00000000000E+00 0. -1.
</event>
<event>
 5    1  0.6978980E-004  0.9118800E+02  0.7818608E-02  0.1130116E+00
         25   -1    0    0    0    0  0.00000000000E+00  0.00000000000E+00  0.99999998245E-14  0.12500000000E+03  0.12500000000E+03 0.  0.
        -13    1    3    3    0    0  0.27616940093E+02 -0.20201918516E+02 -0.61413084416E+01  0.34764057951E+02  0.10566000000E+00 0.  1.
         23    2    1    0    0    0 -0.29371135736E+02 -0.28322327408E+00 -0.53864022597E+01  0.95137696687E+02  0.90329531006E+02 0.  0.
         13    1    3    3    0    0 -0.56988075829E+02  0.19918695242E+02  0.75490618190E+00  0.60373638736E+02  0.10566000000E+00 0. -1.
         22    1    1    0    0    0  0.29371135736E+02  0.28322327408E+00  0.53864022597E+01  0.29862303313E+02  0.00000000000E+00 0. -1.
</event>
<event>
 5    1  0.6978980E-004  0.9118800E+02  0.7818608E-02  0.1130116E+00
         25   -1    0    0    0    0  0.00000000000E+00  0.00000000000E+00  0.99999998245E-14  0.12500000000E+03  0.12500000000E+03 0.  0.
        -13    1    3    3    0    0  0.25332032171E+02  0.13215200563E+02  0.50466757087E+02  0.57993604085E+02  0.10566000000E+00 0. -1.
         23    2    1    0    0    0  0.24008500311E+02 -0.18886481185E+00  0.13240399579E+02  0.97581904914E+02  0.93650820757E+02 0.  0.
         13    1    3    3    0    0 -0.13235318601E+01 -0.13404065375E+02 -0.37226357508E+02  0.39588300829E+02  0.10566000000E+00 0.  1.
         22    1    1    0    0    0 -0.24008500311E+02  0.18886481185E+00 -0.13240399579E+02  0.27418095086E+02  0.00000000000E+00 0. -1.
</event>
<event>
 5    1  0.6978980E-004  0.9118800E+02  0.7818608E-02  0.1130116E+00
         25   -1    0    0    0    0  0.00000000000E+00  0.00000000000E+00  0.99999998245E-14  0.12500000000E+03  0.12500000000E+03 0.  0.
        -13    1    3    3    0    0  0.32820647402E+02  0.79519227545E+01 -0.31601748035E+01  0.33917928006E+02  0.10566000000E+00 0.  1.
         23    2    1    0    0    0 -0.16749888214E+02  0.30775920491E+02 -0.90605317461E+01  0.88808712751E+02  0.81099803870E+02 0.  0.
         13    1    3    3    0    0 -0.49570535616E+02  0.22823997736E+02 -0.59003569425E+01  0.54890784745E+02  0.10566000000E+00 0. -1.
         22    1    1    0    0    0  0.16749888214E+02 -0.30775920491E+02  0.90605317461E+01  0.36191287249E+02  0.00000000000E+00 0. -1.
</event>
<event>
 5    1  0.6978980E-004  0.9118800E+02  0.7818608E-02  0.1130116E+00
         25   -1    0    0    0    0  0.00000000000E+00  0.00000000000E+00  0.99999998245E-14  0.12500000000E+03  0.12500000000E+03 0.  0.
        -13    1    3    3    0    0  0.10921660279E+02  0.54526982811E+01  0.46924663045E+02  0.48486593484E+02  0.10566000000E+00 0. -1.
         23    2    1    0    0    0  0.10997013253E+02 -0.25278379051E+02  0.12208323603E+02  0.94850805763E+02  0.89931648716E+02 0.  0.
         13    1    3    3    0    0  0.75352974916E-01 -0.30731077332E+02 -0.34716339441E+02  0.46364212279E+02  0.10566000000E+00 0.  1.
         22    1    1    0    0    0 -0.10997013253E+02  0.25278379051E+02 -0.12208323603E+02  0.30149194237E+02  0.00000000000E+00 0. -1.
</event>
<event>
 5    1  0.6978980E-004  0.9118800E+02  0.7818608E-02  0.1130116E+00
         25   -1    0    0    0    0  0.00000000000E+00  0.00000000000E+00  0.99999998245E-14  0.12500000000E+03  0.12500000000E+03 0.  0.
        -13    1    3    3    0    0 -0.14731203439E+00 -0.19843192394E+02  0.32264962700E+02  0.37878925108E+02  0.10566000000E+00 0. -1.
         23    2    1    0    0    0 -0.27834876284E+02  0.73933666056E+01 -0.92711522440E+01  0.94744480314E+02  0.89783740613E+02 0.  0.
         13    1    3    3    0    0 -0.27687564250E+02  0.27236559000E+02 -0.41536114944E+02  0.56865555206E+02  0.10566000000E+00 0.  1.
         22    1    1    0    0    0  0.27834876284E+02 -0.73933666056E+01  0.92711522440E+01  0.30255519686E+02  0.00000000000E+00 0.  1.
</event>
<event>
 5    1  0.6978980E-004  0.9118800E+02  0.7818608E-02  0.1130116E+00
         25   -1    0    0    0    0  0.00000000000E+00  0.00000000000E+00  0.99999998245E-14  0.12500000000E+03  0.12500000000E+03 0.  0.
        -13    1    3    3    0    0  0.15511744062E+01 -0.15716662519E+02 -0.32738461569E+02  0.36348832893E+02  0.10566000000E+00 0. -1.
         23    2    1    0    0    0 -0.15906042143E+02 -0.58455945048E+01  0.23483463313E+02  0.96040611178E+02  0.91570479929E+02 0.  0.
         13    1    3    3    0    0 -0.17457216549E+02  0.98710680140E+01  0.56221924882E+02  0.59691778285E+02  0.10566000000E+00 0.  1.
         22    1    1    0    0    0  0.15906042143E+02  0.58455945048E+01 -0.23483463313E+02  0.28959388822E+02  0.00000000000E+00 0.  1.
</event>
<event>
 5    1  0.6978980E-004  0.9118800E+02  0.7818608E-02  0.1130116E+00
         25   -1    0    0    0    0  0.00000000000E+00  0.00000000000E+00  0.99999998245E-14  0.12500000000E+03  0.12500000000E+03 0.  0.
        -13    1    3    3    0    0  0.53397716208E+02  0.80088185846E+01  0.76156321430E+01  0.54529499248E+02  0.10566000000E+00 0. -1.
         23    2    1    0    0    0  0.19546516433E+02  0.87242812768E+01 -0.18036984564E+02  0.97008712059E+02  0.92882603402E+02 0.  0.
         13    1    3    3    0    0 -0.33851199775E+02  0.71546269221E+00 -0.25652616707E+02  0.42479212810E+02  0.10566000000E+00 0.  1.
         22    1    1    0    0    0 -0.19546516433E+02 -0.87242812768E+01  0.18036984564E+02  0.27991287941E+02  0.00000000000E+00 0. -1.
</event>
<event>
 5    1  0.6978980E-004  0.9118800E+02  0.7818608E-02  0.1130116E+00
         25   -1    0    0    0    0  0.00000000000E+00  0.00000000000E+00  0.99999998245E-14  0.12500000000E+03  0.12500000000E+03 0.  0.
        -13    1    3    3    0    0  0.21869530631E+02  0.13093493607E+02 -0.56397458181E+02  0.61890228616E+02  0.10566000000E+00 0.  1.
         23    2    1    0    0    0  0.14730338912E+02  0.96890992581E+01 -0.24118827788E+02  0.95123932944E+02  0.90310482425E+02 0.  0.
         13    1    3    3    0    0 -0.71391917198E+01 -0.34043943486E+01  0.32278630392E+02  0.33233704328E+02  0.10566000000E+00 0. -1.
         22    1    1    0    0    0 -0.14730338912E+02 -0.96890992581E+01  0.24118827788E+02  0.29876067056E+02  0.00000000000E+00 0.  1.
</event>
<event>
 5    1  0.6978980E-004  0.9118800E+02  0.7818608E-02  0.1130116E+00
         25   -1    0    0    0    0  0.00000000000E+00  0.00000000000E+00  0.99999998245E-14  0.12500000000E+03  0.12500000000E+03 0.  0.
        -13    1    3    3    0    0 -0.26565571580E+01 -0.72172964502E+01 -0.40972525233E+02  0.41688195595E+02  0.10566000000E+00 0.  1.
         23    2    1    0    0    0  0.25374619407E+02 -0.14066373454E+02  0.45967547540E+01  0.95625447638E+02  0.91001988492E+02 0.  0.
         13    1    3    3    0    0  0.28031176565E+02 -0.68490770042E+01  0.45569279987E+02  0.53937252043E+02  0.10566000000E+00 0. -1.
         22    1    1    0    0    0 -0.25374619407E+02  0.14066373454E+02 -0.45967547540E+01  0.29374552362E+02  0.00000000000E+00 0. -1.
</event>
<event>
 5    1  0.6978980E-004  0.9118800E+02  0.7818608E-02  0.1130116E+00
         25   -1    0    0    0    0  0.00000000000E+00  0.00000000000E+00  0.99999998245E-14  0.12500000000E+03  0.12500000000E+03 0.  0.
        -13    1    3    3    0    0 -0.37465803628E+02  0.43539962689E+01  0.39711375116E+00  0.37720188074E+02  0.10566000000E+00 0. -1.
         23    2    1    0    0    0  0.16879778682E+02  0.48627603189E+01  0.22554910775E+02  0.96411586852E+02  0.92075494638E+02 0.  0.
         13    1    3    3    0    0  0.54345582310E+02  0.50876405005E+00  0.22157797024E+02  0.58691398777E+02  0.10566000000E+00 0.  1.
         22    1    1    0    0    0 -0.16879778682E+02 -0.48627603189E+01 -0.22554910775E+02  0.28588413148E+02  0.00000000000E+00 0.  1.
</event>
<event>
 5    1  0.6978980E-004  0.9118800E+02  0.7818608E-02  0.1130116E+00
         25   -1    0    0    0    0  0.00000000000E+00  0.00000000000E+00  0.99999998245E-14  0.12500000000E+03  0.12500000000E+03 0.  0.
        -13    1    3    3    0    0  0.28625357990E+02 -0.76918180262E+01  0.54799966201E+02  0.62302669640E+02  0.10566000000E+00 0.  1.
         23    2    1    0    0    0  0.14175121743E+02 -0.35162555818E+00  0.23396619580E+02  0.97642011684E+02  0.93731013656E+02 0.  0.
         13    1    3    3    0    0 -0.14450236247E+02  0.73401924680E+01 -0.31403346621E+02  0.35339342044E+02  0.10566000000E+00 0. -1.
         22    1    1    0    0    0 -0.14175121743E+02  0.35162555818E+00 -0.23396619580E+02  0.27357988316E+02  0.00000000000E+00 0.  1.
</event>
<event>
 5    1  0.6978980E-004  0.9118800E+02  0.7818608E-02  0.1130116E+00
         25   -1    0    0    0    0  0.00000000000E+00  0.00000000000E+00  0.99999998245E-14  0.12500000000E+03  0.12500000000E+03 0.  0.
        -13    1    3    3    0    0  0.19324990168E-01 -0.57343414764E+00 -0.42398628950E+02  0.42402642619E+02  0.10566000000E+00 0. -1.
         23    2    1    0    0    0  0.32964943670E+02  0.39886088542E+01 -0.35538242341E+02  0.76362944369E+02  0.58870502736E+02 0.  0.
         13    1    3    3    0    0  0.32945618680E+02  0.45620430019E+01  0.68603866093E+01  0.33960301751E+02  0.10566000000E+00 0.  1.
         22    1    1    0    0    0 -0.32964943670E+02 -0.39886088542E+01  0.35538242341E+02  0.48637055631E+02  0.00000000000E+00 0. -1.
</event>
<event>
 5    1  0.6978980E-004  0.9118800E+02  0.7818608E-02  0.1130116E+00
         25   -1    0    0    0    0  0.00000000000E+00  0.00000000000E+00  0.99999998245E-14  0.12500000000E+03  0.12500000000E+03 0.  0.
        -13    1    3    3    0    0  0.52833127001E+02 -0.21472406499E+02 -0.69379451368E+01  0.57450411629E+02  0.10566000000E+00 0.  1.
         23    2    1    0    0    0  0.14845263831E+02 -0.14163019676E+02 -0.18021418535E+02  0.97691676899E+02  0.93797223972E+02 0.  0.
         13    1    3    3    0    0 -0.37987863170E+02  0.73093868236E+01 -0.11083473398E+02  0.40241265270E+02  0.10566000000E+00 0. -1.
         22    1    1    0    0    0 -0.14845263831E+02  0.14163019676E+02  0.18021418535E+02  0.27308323101E+02  0.00000000000E+00 0.  1.
</event>
<event>
 5    1  0.6978980E-004  0.9118800E+02  0.7818608E-02  0.1130116E+00
         25   -1    0    0    0    0  0.00000000000E+00  0.00000000000E+00  0.99999998245E-14  0.12500000000E+03  0.12500000000E+03 0.  0.
        -13    1    3    3    0    0 -0.65655895402E+01 -0.34091300081E+02  0.46336025159E+02  0.57899586344E+02  0.10566000000E+00 0. -1.
         23    2    1    0    0    0 -0.19208543203E+02 -0.12594515258E+02  0.27599123699E+02  0.89093154198E+02  0.81537037899E+02 0.  0.
         13    1    3    3    0    0 -0.12642953662E+02  0.21496784823E+02 -0.18736901460E+02  0.31193567853E+02  0.10566000000E+00 0.  1.
         22    1    1    0    0    0  0.19208543203E+02  0.12594515258E+02 -0.27599123699E+02  0.35906845802E+02  0.00000000000E+00 0. -1.
</event>
<event>
 5    1  0.6978980E-004  0.9118800E+02  0.7818608E-02  0.1130116E+00
         25   -1    0    0    0    0  0.00000000000E+00  0.00000000000E+00  0.99999998245E-14  0.12500000000E+03  0.12500000000E+03 0.  0.
        -13    1    3    3    0    0  0.25585145114E+02 -0.50588659247E+02  0.72172311367E+01  0.57148155563E+02  0.10566000000E+00 0. -1.
         23    2    1    0    0    0  0.66664558106E+01 -0.18158410794E+02  0.20349479985E+02  0.96923838380E+02  0.92768311373E+02 0.  0.
         13    1    3    3    0    0 -0.18918689304E+02  0.32430248453E+02  0.13132248848E+02  0.39775682817E+02  0.10566000000E+00 0.  1.
         22    1    1    0    0    0 -0.66664558106E+01  0.18158410794E+02 -0.20349479985E+02  0.28076161620E+02  0.00000000000E+00 0. -1.
</event>
<event>
 5    1  0.6978980E-004  0.9118800E+02  0.7818608E-02  0.1130116E+00
         25   -1    0    0    0    0  0.00000000000E+00  0.00000000000E+00  0.99999998245E-14  0.12500000000E+03  0.12500000000E+03 0.  0.
        -13    1    3    3    0    0 -0.11144554931E+02 -0.30875780871E+01 -0.60672751990E+02  0.61765105368E+02  0.10566000000E+00 0.  1.
         23    2    1    0    0    0 -0.66433316332E+01  0.51640341544E+01 -0.28055038026E+02  0.95710304499E+02  0.91118473016E+02 0.  0.
         13    1    3    3    0    0  0.45012232978E+01  0.82516122415E+01  0.32617713964E+02  0.33945199131E+02  0.10566000000E+00 0. -1.
         22    1    1    0    0    0  0.66433316332E+01 -0.51640341544E+01  0.28055038026E+02  0.29289695501E+02  0.00000000000E+00 0.  1.
</event>
<event>
 5    1  0.6978980E-004  0.9118800E+02  0.7818608E-02  0.1130116E+00
         25   -1    0    0    0    0  0.00000000000E+00  0.00000000000E+00  0.99999998245E-14  0.12500000000E+03  0.12500000000E+03 0.  0.
        -13    1    3    3    0    0  0.45601074462E+02  0.25319141584E+02  0.13498105473E+01  0.52176144695E+02  0.10566000000E+00 0.  1.
         23    2    1    0    0    0  0.16491593511E+02  0.26896999632E+02  0.20789924971E+02  0.87215846893E+02  0.78606372027E+02 0.  0.
         13    1    3    3    0    0 -0.29109480951E+02  0.15778580476E+01  0.19440114424E+02  0.35039702198E+02  0.10566000000E+00 0. -1.
         22    1    1    0    0    0 -0.16491593511E+02 -0.26896999632E+02 -0.20789924971E+02  0.37784153107E+02  0.00000000000E+00 0.  1.
</event>
<event>
 5    1  0.6978980E-004  0.9118800E+02  0.7818608E-02  0.1130116E+00
         25   -1    0    0    0    0  0.00000000000E+00  0.00000000000E+00  0.99999998245E-14  0.12500000000E+03  0.12500000000E+03 0.  0.
        -13    1    3    3    0    0  0.30146405353E+02  0.48504249230E+02  0.76255262522E+01  0.57616210946E+02  0.10566000000E+00 0. -1.
         23    2    1    0    0    0  0.58185030483E+01  0.20350340979E+02  0.19033728163E+02  0.96534684905E+02  0.92242458912E+02 0.  0.
         13    1    3    3    0    0 -0.24327902305E+02 -0.28153908252E+02  0.11408201911E+02  0.38918473959E+02  0.10566000000E+00 0.  1.
         22    1    1    0    0    0 -0.58185030483E+01 -0.20350340979E+02 -0.19033728163E+02  0.28465315095E+02  0.00000000000E+00 0. -1.
</event>
<event>
 5    1  0.6978980E-004  0.9118800E+02  0.7818608E-02  0.1130116E+00
         25   -1    0    0    0    0  0.00000000000E+00  0.00000000000E+00  0.99999998245E-14  0.12500000000E+03  0.12500000000E+03 0.  0.
        -13    1    3    3    0    0 -0.58205048978E+02  0.14650519700E+02 -0.15154275139E+02  0.61904189463E+02  0.10566000000E+00 0.  1.
         23    2    1    0    0    0 -0.27077772650E+02  0.11489800014E+02 -0.31435647418E+01  0.95417855464E+02  0.90716392488E+02 0.  0.
         13    1    3    3    0    0  0.31127276328E+02 -0.31607196861E+01  0.12010710397E+02  0.33513666001E+02  0.10566000000E+00 0. -1.
         22    1    1    0    0    0  0.27077772650E+02 -0.11489800014E+02  0.31435647418E+01  0.29582144536E+02  0.00000000000E+00 0.  1.
</event>
<event>
 5    1  0.6978980E-004  0.9118800E+02  0.7818608E-02  0.1130116E+00
         25   -1    0    0    0    0  0.00000000000E+00  0.00000000000E+00  0.99999998245E-14  0.12500000000E+03  0.12500000000E+03 0.  0.
        -13    1    3    3    0    0  0.30070417585E+02 -0.26148530799E+00  0.16659951861E+02  0.34378242368E+02  0.10566000000E+00 0.  1.
         23    2    1    0    0    0 -0.21012474695E+02 -0.53813230487E+01 -0.18408153586E+02  0.96551048367E+02  0.92264630774E+02 0.  0.
         13    1    3    3    0    0 -0.51082892280E+02 -0.51198377407E+01 -0.35068105447E+02  0.62172805999E+02  0.10566000000E+00 0. -1.
         22    1    1    0    0    0  0.21012474695E+02  0.53813230487E+01  0.18408153586E+02  0.28448951633E+02  0.00000000000E+00 0. -1.
</event>
<event>
 5    1  0.6978980E-004  0.9118800E+02  0.7818608E-02  0.1130116E+00
         25   -1    0    0    0    0  0.00000000000E+00  0.00000000000E+00  0.99999998245E-14  0.12500000000E+03  0.12500000000E+03 0.  0.
        -13    1    3    3    0    0 -0.38065052099E+02 -0.50296273963E+01 -0.90832666532E+01  0.39455826441E+02  0.10566000000E+00 0.  1.
         23    2    1    0    0    0  0.18305316556E+02  0.14344587317E+02  0.60818462291E+01  0.10096168365E+03  0.98058252646E+02 0.  0.
         13    1    3    3    0    0  0.56370368654E+02  0.19374214713E+02  0.15165112882E+02  0.61505857207E+02  0.10566000000E+00 0. -1.
         22    1    1    0    0    0 -0.18305316556E+02 -0.14344587317E+02 -0.60818462291E+01  0.24038316352E+02  0.00000000000E+00 0. -1.
</event>
<event>
 5    1  0.6978980E-004  0.9118800E+02  0.7818608E-02  0.1130116E+00
         25   -1    0    0    0    0  0.00000000000E+00  0.00000000000E+00  0.99999998245E-14  0.12500000000E+03  0.12500000000E+03 0.  0.
        -13    1    3    3    0    0 -0.15495520419E+02  0.40242009815E+02 -0.10931881477E+02  0.44486489001E+02  0.10566000000E+00 0. -1.
         23    2    1    0    0    0 -0.14262355222E+02  0.26222508993E+01  0.24726215924E+02  0.96335095845E+02  0.91971593230E+02 0.  0.
         13    1    3    3    0    0  0.12331651967E+01 -0.37619758916E+02  0.35658097402E+02  0.51848606844E+02  0.10566000000E+00 0.  1.
         22    1    1    0    0    0  0.14262355222E+02 -0.26222508993E+01 -0.24726215924E+02  0.28664904155E+02  0.00000000000E+00 0.  1.
</event>
<event>
 5    1  0.6978980E-004  0.9118800E+02  0.7818608E-02  0.1130116E+00
         25   -1    0    0    0    0  0.00000000000E+00  0.00000000000E+00  0.99999998245E-14  0.12500000000E+03  0.12500000000E+03 0.  0.
        -13    1    3    3    0    0  0.33550105459E+02 -0.19031434850E+02  0.45133583985E+02  0.59370503250E+02  0.10566000000E+00 0. -1.
         23    2    1    0    0    0  0.25890930346E+02 -0.77186694429E+01  0.11566873452E+02  0.95611044700E+02  0.90982202518E+02 0.  0.
         13    1    3    3    0    0 -0.76591751131E+01  0.11312765407E+02 -0.33566710533E+02  0.36240541450E+02  0.10566000000E+00 0.  1.
         22    1    1    0    0    0 -0.25890930346E+02  0.77186694429E+01 -0.11566873452E+02  0.29388955300E+02  0.00000000000E+00 0. -1.
</event>
<event>
 5    1  0.6978980E-004  0.9118800E+02  0.7818608E-02  0.1130116E+00
         25   -1    0    0    0    0  0.00000000000E+00  0.00000000000E+00  0.99999998245E-14  0.12500000000E+03  0.12500000000E+03 0.  0.
        -13    1    3    3    0    0  0.51648854971E+02  0.36148152843E+01  0.12474175982E+02  0.53256805572E+02  0.10566000000E+00 0.  1.
         23    2    1    0    0    0  0.22859148900E+02 -0.28789810265E+01 -0.18062040117E+02  0.95724301658E+02  0.91137672861E+02 0.  0.
         13    1    3    3    0    0 -0.28789706070E+02 -0.64937963109E+01 -0.30536216099E+02  0.42467496086E+02  0.10566000000E+00 0. -1.
         22    1    1    0    0    0 -0.22859148900E+02  0.28789810265E+01  0.18062040117E+02  0.29275698342E+02  0.00000000000E+00 0.  1.
</event>
<event>
 5    1  0.6978980E-004  0.9118800E+02  0.7818608E-02  0.1130116E+00
         25   -1    0    0    0    0  0.00000000000E+00  0.00000000000E+00  0.99999998245E-14  0.12500000000E+03  0.12500000000E+03 0.  0.
        -13    1    3    3    0    0 -0.35096347876E+02 -0.49730707352E+02  0.13781399991E+02  0.62408613489E+02  0.10566000000E+00 0. -1.
         23    2    1    0    0    0 -0.17467934416E+02 -0.21941986069E+02  0.81326876256E+01  0.95798628569E+02  0.91239559087E+02 0.  0.
         13    1    3    3    0    0  0.17628413460E+02  0.27788721283E+02 -0.56487123656E+01  0.33390015080E+02  0.10566000000E+00 0.  1.
         22    1    1    0    0    0  0.17467934416E+02  0.21941986069E+02 -0.81326876256E+01  0.29201371431E+02  0.00000000000E+00 0. -1.
</event>
<event>
 5    1  0.6978980E-004  0.9118800E+02  0.7818608E-02  0.1130116E+00
         25   -1    0    0    0    0  0.00000000000E+00  0.00000000000E+00  0.99999998245E-14  0.12500000000E+03  0.12500000000E+03 0.  0.
        -13    1    3    3    0    0 -0.37151587503E+02  0.26914640350E+02  0.13663818692E+02  0.47868041786E+02  0.10566000000E+00 0.  1.
         23    2    1    0    0    0 -0.62599850522E+01 -0.81923107711E+01  0.26670149716E+02  0.96406324922E+02  0.92068350862E+02 0.  0.
         13    1    3    3    0    0  0.30891602451E+02 -0.35106951121E+02  0.13006331023E+02  0.48538283135E+02  0.10566000000E+00 0. -1.
         22    1    1    0    0    0  0.62599850522E+01  0.81923107711E+01 -0.26670149716E+02  0.28593675078E+02  0.00000000000E+00 0. -1.
</event>
<event>
 5    1  0.6978980E-004  0.9118800E+02  0.7818608E-02  0.1130116E+00
         25   -1    0    0    0    0  0.00000000000E+00  0.00000000000E+00  0.99999998245E-14  0.12500000000E+03  0.12500000000E+03 0.  0.
        -13    1    3    3    0    0  0.16692250894E+02 -0.42435032871E+02  0.20329616682E+02  0.49926623490E+02  0.10566000000E+00 0. -1.
         23    2    1    0    0    0  0.13288088531E+02 -0.10628325411E+02 -0.18253388388E+02  0.10004562592E+03  0.96883468565E+02 0.  0.
         13    1    3    3    0    0 -0.34041623628E+01  0.31806707460E+02 -0.38583005069E+02  0.50119002435E+02  0.10566000000E+00 0.  1.
         22    1    1    0    0    0 -0.13288088531E+02  0.10628325411E+02  0.18253388388E+02  0.24954374075E+02  0.00000000000E+00 0. -1.
</event>
<event>
 5    1  0.6978980E-004  0.9118800E+02  0.7818608E-02  0.1130116E+00
         25   -1    0    0    0    0  0.00000000000E+00  0.00000000000E+00  0.99999998245E-14  0.12500000000E+03  0.12500000000E+03 0.  0.
        -13    1    3    3    0    0 -0.36198816039E+02 -0.14619818767E+02 -0.42742341893E+02  0.57887929122E+02  0.10566000000E+00 0. -1.
         23    2    1    0    0    0 -0.19726944829E+01 -0.10609267336E+02 -0.27289298722E+02  0.95654576138E+02  0.91041990502E+02 0.  0.
         13    1    3    3    0    0  0.34226121556E+02  0.40105514317E+01  0.15453043172E+02  0.37766647017E+02  0.10566000000E+00 0.  1.
         22    1    1    0    0    0  0.19726944829E+01  0.10609267336E+02  0.27289298722E+02  0.29345423862E+02  0.00000000000E+00 0. -1.
</event>
<event>
 5    1  0.6978980E-004  0.9118800E+02  0.7818608E-02  0.1130116E+00
         25   -1    0    0    0    0  0.00000000000E+00  0.00000000000E+00  0.99999998245E-14  0.12500000000E+03  0.12500000000E+03 0.  0.
        -13    1    3    3    0    0  0.22048638708E+01  0.23996365151E+02  0.43924196941E+02  0.50100231597E+02  0.10566000000E+00 0. -1.
         23    2    1    0    0    0 -0.20909480996E+02 -0.67288062296E+01  0.19313572685E+02  0.95751114232E+02  0.91174440267E+02 0.  0.
         13    1    3    3    0    0 -0.23114344867E+02 -0.30725171381E+02 -0.24610624256E+02  0.45650882635E+02  0.10566000000E+00 0.  1.
         22    1    1    0    0    0  0.20909480996E+02  0.67288062296E+01 -0.19313572685E+02  0.29248885768E+02  0.00000000000E+00 0. -1.
</event>
<event>
 5    1  0.6978980E-004  0.9118800E+02  0.7818608E-02  0.1130116E+00
         25   -1    0    0    0    0  0.00000000000E+00  0.00000000000E+00  0.99999998245E-14  0.12500000000E+03  0.12500000000E+03 0.  0.
        -13    1    3    3    0    0 -0.26639489759E+01  0.25464122834E+02 -0.46038959260E+02  0.52679361326E+02  0.10566000000E+00 0. -1.
         23    2    1    0    0    0 -0.13008225969E+02 -0.10332497297E+02 -0.23479475094E+02  0.96237868751E+02  0.91839355332E+02 0.  0.
         13    1    3    3    0    0 -0.10344276993E+02 -0.35796620131E+02  0.22559484166E+02  0.43558507426E+02  0.10566000000E+00 0.  1.
         22    1    1    0    0    0  0.13008225969E+02  0.10332497297E+02  0.23479475094E+02  0.28762131249E+02  0.00000000000E+00 0.  1.
</event>
<event>
 5    1  0.6978980E-004  0.9118800E+02  0.7818608E-02  0.1130116E+00
         25   -1    0    0    0    0  0.00000000000E+00  0.00000000000E+00  0.99999998245E-14  0.12500000000E+03  0.12500000000E+03 0.  0.
        -13    1    3    3    0    0  0.21593047490E+02  0.39643850740E+02 -0.45474073750E+01  0.45371628572E+02  0.10566000000E+00 0.  1.
         23    2    1    0    0    0  0.36159802094E+02 -0.84624967491E+00  0.13525480221E+01  0.88805016755E+02  0.81094106991E+02 0.  0.
         13    1    3    3    0    0  0.14566754604E+02 -0.40490100415E+02  0.58999553971E+01  0.43433388183E+02  0.10566000000E+00 0. -1.
         22    1    1    0    0    0 -0.36159802094E+02  0.84624967491E+00 -0.13525480221E+01  0.36194983245E+02  0.00000000000E+00 0.  1.
</event>
<event>
 5    1  0.6978980E-004  0.9118800E+02  0.7818608E-02  0.1130116E+00
         25   -1    0    0    0    0  0.00000000000E+00  0.00000000000E+00  0.99999998245E-14  0.12500000000E+03  0.12500000000E+03 0.  0.
        -13    1    3    3    0    0 -0.70383411036E+01 -0.31669756816E+02 -0.68952455225E+01  0.33167262732E+02  0.10566000000E+00 0.  1.
         23    2    1    0    0    0  0.15920859642E+02  0.20812585150E+02  0.15363506436E+02  0.94624437415E+02  0.89616456935E+02 0.  0.
         13    1    3    3    0    0  0.22959200746E+02  0.52482341966E+02  0.22258751958E+02  0.61457174682E+02  0.10566000000E+00 0. -1.
         22    1    1    0    0    0 -0.15920859642E+02 -0.20812585150E+02 -0.15363506436E+02  0.30375562585E+02  0.00000000000E+00 0. -1.
</event>
<event>
 5    1  0.6978980E-004  0.9118800E+02  0.7818608E-02  0.1130116E+00
         25   -1    0    0    0    0  0.00000000000E+00  0.00000000000E+00  0.99999998245E-14  0.12500000000E+03  0.12500000000E+03 0.  0.
        -13    1    3    3    0    0 -0.18595635581E+02  0.16322976706E+02 -0.20405657263E+02  0.32072406264E+02  0.10566000000E+00 0.  1.
         23    2    1    0    0    0  0.17631558855E+02 -0.28965691666E+01  0.25649808500E+02  0.93740207027E+02  0.88374497208E+02 0.  0.
         13    1    3    3    0    0  0.36227194436E+02 -0.19219545872E+02  0.46055465763E+02  0.61667800763E+02  0.10566000000E+00 0. -1.
         22    1    1    0    0    0 -0.17631558855E+02  0.28965691666E+01 -0.25649808500E+02  0.31259792973E+02  0.00000000000E+00 0. -1.
</event>
<event>
 5    1  0.6978980E-004  0.9118800E+02  0.7818608E-02  0.1130116E+00
         25   -1    0    0    0    0  0.00000000000E+00  0.00000000000E+00  0.99999998245E-14  0.12500000000E+03  0.12500000000E+03 0.  0.
        -13    1    3    3    0    0 -0.45319618415E+02 -0.17347495116E+01 -0.40254742475E+02  0.60641014379E+02  0.10566000000E+00 0.  1.
         23    2    1    0    0    0 -0.22641667725E+02 -0.11650062198E+02 -0.20681230979E+02  0.92196305370E+02  0.86163079927E+02 0.  0.
         13    1    3    3    0    0  0.22677950690E+02 -0.99153126861E+01  0.19573511496E+02  0.31555290991E+02  0.10566000000E+00 0. -1.
         22    1    1    0    0    0  0.22641667725E+02  0.11650062198E+02  0.20681230979E+02  0.32803694630E+02  0.00000000000E+00 0.  1.
</event>
<event>
 5    1  0.6978980E-004  0.9118800E+02  0.7818608E-02  0.1130116E+00
         25   -1    0    0    0    0  0.00000000000E+00  0.00000000000E+00  0.99999998245E-14  0.12500000000E+03  0.12500000000E+03 0.  0.
        -13    1    3    3    0    0 -0.51808056183E+01  0.45259460580E+02 -0.28206982150E+00  0.45556012186E+02  0.10566000000E+00 0.  1.
         23    2    1    0    0    0  0.23483033054E+02  0.71679181880E+01  0.15725027140E+02  0.95843382036E+02  0.91300851633E+02 0.  0.
         13    1    3    3    0    0  0.28663838672E+02 -0.38091542392E+02  0.16007096962E+02  0.50287369850E+02  0.10566000000E+00 0. -1.
         22    1    1    0    0    0 -0.23483033054E+02 -0.71679181880E+01 -0.15725027140E+02  0.29156617964E+02  0.00000000000E+00 0. -1.
</event>
<event>
 5    1  0.6978980E-004  0.9118800E+02  0.7818608E-02  0.1130116E+00
         25   -1    0    0    0    0  0.00000000000E+00  0.00000000000E+00  0.99999998245E-14  0.12500000000E+03  0.12500000000E+03 0.  0.
        -13    1    3    3    0    0 -0.20038040504E+02 -0.28622326649E+02  0.34502449980E+02  0.49103878347E+02  0.10566000000E+00 0. -1.
         23    2    1    0    0    0  0.20056488779E+02 -0.15712357863E+02  0.13098592206E+02  0.96351892741E+02  0.91994419316E+02 0.  0.
         13    1    3    3    0    0  0.40094529283E+02  0.12909968786E+02 -0.21403857774E+02  0.47248014394E+02  0.10566000000E+00 0.  1.
         22    1    1    0    0    0 -0.20056488779E+02  0.15712357863E+02 -0.13098592206E+02  0.28648107259E+02  0.00000000000E+00 0. -1.
</event>
<event>
 5    1  0.6978980E-004  0.9118800E+02  0.7818608E-02  0.1130116E+00
         25   -1    0    0    0    0  0.00000000000E+00  0.00000000000E+00  0.99999998245E-14  0.12500000000E+03  0.12500000000E+03 0.  0.
        -13    1    3    3    0    0  0.14725554842E+02 -0.13836522488E+02 -0.42520585809E+02  0.47077624213E+02  0.10566000000E+00 0. -1.
         23    2    1    0    0    0  0.14654919857E+02 -0.26009235549E+02  0.37397997034E+01  0.94912907889E+02  0.90017925839E+02 0.  0.
         13    1    3    3    0    0 -0.70634984558E-01 -0.12172713061E+02  0.46260385513E+02  0.47835283676E+02  0.10566000000E+00 0.  1.
         22    1    1    0    0    0 -0.14654919857E+02  0.26009235549E+02 -0.37397997034E+01  0.30087092111E+02  0.00000000000E+00 0.  1.
</event>
<event>
 5    1  0.6978980E-004  0.9118800E+02  0.7818608E-02  0.1130116E+00
         25   -1    0    0    0    0  0.00000000000E+00  0.00000000000E+00  0.99999998245E-14  0.12500000000E+03  0.12500000000E+03 0.  0.
        -13    1    3    3    0    0 -0.87150719780E+01  0.44333342519E+01  0.57682568571E+02  0.58505528057E+02  0.10566000000E+00 0. -1.
         23    2    1    0    0    0  0.84466007271E+01 -0.77395891008E+01  0.26575572432E+02  0.96060280696E+02  0.91597326239E+02 0.  0.
         13    1    3    3    0    0  0.17161672705E+02 -0.12172923353E+02 -0.31106996140E+02  0.37554752640E+02  0.10566000000E+00 0.  1.
         22    1    1    0    0    0 -0.84466007271E+01  0.77395891008E+01 -0.26575572432E+02  0.28939719304E+02  0.00000000000E+00 0. -1.
</event>
<event>
 5    1  0.6978980E-004  0.9118800E+02  0.7818608E-02  0.1130116E+00
         25   -1    0    0    0    0  0.00000000000E+00  0.00000000000E+00  0.99999998245E-14  0.12500000000E+03  0.12500000000E+03 0.  0.
        -13    1    3    3    0    0 -0.48680506536E+02 -0.32250538126E+02  0.19832562915E+02  0.61670338428E+02  0.10566000000E+00 0. -1.
         23    2    1    0    0    0 -0.19132254814E+02 -0.20369228938E+02  0.58680402608E+01  0.96445095722E+02  0.92120974433E+02 0.  0.
         13    1    3    3    0    0  0.29548251722E+02  0.11881309187E+02 -0.13964522654E+02  0.34774757294E+02  0.10566000000E+00 0.  1.
         22    1    1    0    0    0  0.19132254814E+02  0.20369228938E+02 -0.58680402608E+01  0.28554904278E+02  0.00000000000E+00 0. -1.
</event>
<event>
 5    1  0.6978980E-004  0.9118800E+02  0.7818608E-02  0.1130116E+00
         25   -1    0    0    0    0  0.00000000000E+00  0.00000000000E+00  0.99999998245E-14  0.12500000000E+03  0.12500000000E+03 0.  0.
        -13    1    3    3    0    0 -0.15433865169E+02 -0.23816920067E+02  0.22474760214E+02  0.36201876833E+02  0.10566000000E+00 0.  1.
         23    2    1    0    0    0  0.20950152299E+01  0.26823279392E+02 -0.67778095379E+01  0.97254439846E+02  0.93212713518E+02 0.  0.
         13    1    3    3    0    0  0.17528880398E+02  0.50640199459E+02 -0.29252569752E+02  0.61052563013E+02  0.10566000000E+00 0. -1.
         22    1    1    0    0    0 -0.20950152299E+01 -0.26823279392E+02  0.67778095379E+01  0.27745560154E+02  0.00000000000E+00 0. -1.
</event>
<event>
 5    1  0.6978980E-004  0.9118800E+02  0.7818608E-02  0.1130116E+00
         25   -1    0    0    0    0  0.00000000000E+00  0.00000000000E+00  0.99999998245E-14  0.12500000000E+03  0.12500000000E+03 0.  0.
        -13    1    3    3    0    0 -0.22283428740E+02  0.25932296054E+02  0.17956641258E+02  0.38619778668E+02  0.10566000000E+00 0.  1.
         23    2    1    0    0    0  0.28403044926E+02  0.24148058785E+01  0.39796483519E+01  0.96218029089E+02  0.91812348147E+02 0.  0.
         13    1    3    3    0    0  0.50686473666E+02 -0.23517490175E+02 -0.13976992906E+02  0.57598250421E+02  0.10566000000E+00 0. -1.
         22    1    1    0    0    0 -0.28403044926E+02 -0.24148058785E+01 -0.39796483519E+01  0.28781970911E+02  0.00000000000E+00 0. -1.
</event>
<event>
 5    1  0.6978980E-004  0.9118800E+02  0.7818608E-02  0.1130116E+00
         25   -1    0    0    0    0  0.00000000000E+00  0.00000000000E+00  0.99999998245E-14  0.12500000000E+03  0.12500000000E+03 0.  0.
        -13    1    3    3    0    0 -0.92703198903E+01  0.47345064204E+02  0.35184497305E+02  0.59711422274E+02  0.10566000000E+00 0.  1.
         23    2    1    0    0    0 -0.24142236755E+00  0.27773420605E+02  0.50355242936E+01  0.96772749305E+02  0.92564503598E+02 0.  0.
         13    1    3    3    0    0  0.90288975228E+01 -0.19571643599E+02 -0.30148973012E+02  0.37061327031E+02  0.10566000000E+00 0. -1.
         22    1    1    0    0    0  0.24142236755E+00 -0.27773420605E+02 -0.50355242936E+01  0.28227250695E+02  0.00000000000E+00 0.  1.
</event>
<event>
 5    1  0.6978980E-004  0.9118800E+02  0.7818608E-02  0.1130116E+00
         25   -1    0    0    0    0  0.00000000000E+00  0.00000000000E+00  0.99999998245E-14  0.12500000000E+03  0.12500000000E+03 0.  0.
        -13    1    3    3    0    0  0.44463566221E+01  0.30841062285E+02  0.35010649243E+02  0.46868944244E+02  0.10566000000E+00 0. -1.
         23    2    1    0    0    0  0.27510924489E+02  0.96396163686E+01 -0.25006280012E+01  0.95742072692E+02  0.91162043488E+02 0.  0.
         13    1    3    3    0    0  0.23064567867E+02 -0.21201445917E+02 -0.37511277244E+02  0.48873128448E+02  0.10566000000E+00 0.  1.
         22    1    1    0    0    0 -0.27510924489E+02 -0.96396163686E+01  0.25006280012E+01  0.29257927308E+02  0.00000000000E+00 0.  1.
</event>
<event>
 5    1  0.6978980E-004  0.9118800E+02  0.7818608E-02  0.1130116E+00
         25   -1    0    0    0    0  0.00000000000E+00  0.00000000000E+00  0.99999998245E-14  0.12500000000E+03  0.12500000000E+03 0.  0.
        -13    1    3    3    0    0 -0.28328496162E+02  0.22568630426E+02  0.40122968400E+02  0.54052849429E+02  0.10566000000E+00 0.  1.
         23    2    1    0    0    0  0.74292951786E+01  0.52823273760E+01  0.27961387327E+02  0.95590195672E+02  0.90953553630E+02 0.  0.
         13    1    3    3    0    0  0.35757791341E+02 -0.17286303050E+02 -0.12161581073E+02  0.41537346243E+02  0.10566000000E+00 0. -1.
         22    1    1    0    0    0 -0.74292951786E+01 -0.52823273760E+01 -0.27961387327E+02  0.29409804328E+02  0.00000000000E+00 0.  1.
</event>
<event>
 5    1  0.6978980E-004  0.9118800E+02  0.7818608E-02  0.1130116E+00
         25   -1    0    0    0    0  0.00000000000E+00  0.00000000000E+00  0.99999998245E-14  0.12500000000E+03  0.12500000000E+03 0.  0.
        -13    1    3    3    0    0 -0.34333484755E+02  0.24817379805E+02  0.60127351312E+01  0.42788487512E+02  0.10566000000E+00 0. -1.
         23    2    1    0    0    0 -0.14301168248E+02 -0.17705367573E+02 -0.18379540086E+02  0.95745753335E+02  0.91167090191E+02 0.  0.
         13    1    3    3    0    0  0.20032316507E+02 -0.42522747378E+02 -0.24392275217E+02  0.52957265823E+02  0.10566000000E+00 0.  1.
         22    1    1    0    0    0  0.14301168248E+02  0.17705367573E+02  0.18379540086E+02  0.29254246665E+02  0.00000000000E+00 0.  1.
</event>
<event>
 5    1  0.6978980E-004  0.9118800E+02  0.7818608E-02  0.1130116E+00
         25   -1    0    0    0    0  0.00000000000E+00  0.00000000000E+00  0.99999998245E-14  0.12500000000E+03  0.12500000000E+03 0.  0.
        -13    1    3    3    0    0  0.29895841169E+02  0.13893794060E+02 -0.49031192717E+02  0.59083566716E+02  0.10566000000E+00 0.  1.
         23    2    1    0    0    0  0.23148886925E+02 -0.33783073089E+01 -0.17049476597E+02  0.96052313074E+02  0.91586452428E+02 0.  0.
         13    1    3    3    0    0 -0.67469542438E+01 -0.17272101368E+02  0.31981716120E+02  0.36968746358E+02  0.10566000000E+00 0. -1.
         22    1    1    0    0    0 -0.23148886925E+02  0.33783073089E+01  0.17049476597E+02  0.28947686926E+02  0.00000000000E+00 0.  1.
</event>
<event>
 5    1  0.6978980E-004  0.9118800E+02  0.7818608E-02  0.1130116E+00
         25   -1    0    0    0    0  0.00000000000E+00  0.00000000000E+00  0.99999998245E-14  0.12500000000E+03  0.12500000000E+03 0.  0.
        -13    1    3    3    0    0  0.28755544747E+02  0.35443196051E+02 -0.23666610658E+02  0.51412266280E+02  0.10566000000E+00 0. -1.
         23    2    1    0    0    0  0.83306617320E+01  0.33352011617E+02  0.85137763667E+01  0.89584735046E+02  0.82287202902E+02 0.  0.
         13    1    3    3    0    0 -0.20424883015E+02 -0.20911844342E+01  0.32180387025E+02  0.38172468765E+02  0.10566000000E+00 0.  1.
         22    1    1    0    0    0 -0.83306617320E+01 -0.33352011617E+02 -0.85137763667E+01  0.35415264954E+02  0.00000000000E+00 0. -1.
</event>
<event>
 5    1  0.6978980E-004  0.9118800E+02  0.7818608E-02  0.1130116E+00
         25   -1    0    0    0    0  0.00000000000E+00  0.00000000000E+00  0.99999998245E-14  0.12500000000E+03  0.12500000000E+03 0.  0.
        -13    1    3    3    0    0 -0.31753369261E+02  0.14565363211E+02  0.48413307918E+02  0.59701639948E+02  0.10566000000E+00 0.  1.
         23    2    1    0    0    0 -0.24898087374E+02  0.96321270169E+01  0.14562849970E+02  0.94589981503E+02  0.89568383796E+02 0.  0.
         13    1    3    3    0    0  0.68552818876E+01 -0.49332361943E+01 -0.33850457948E+02  0.34888341555E+02  0.10566000000E+00 0. -1.
         22    1    1    0    0    0  0.24898087374E+02 -0.96321270169E+01 -0.14562849970E+02  0.30410018497E+02  0.00000000000E+00 0.  1.
</event>
<event>
 5    1  0.6978980E-004  0.9118800E+02  0.7818608E-02  0.1130116E+00
         25   -1    0    0    0    0  0.00000000000E+00  0.00000000000E+00  0.99999998245E-14  0.12500000000E+03  0.12500000000E+03 0.  0.
        -13    1    3    3    0    0  0.54027870024E+02  0.16898306898E+02  0.48177443206E+01  0.56813601714E+02  0.10566000000E+00 0.  1.
         23    2    1    0    0    0  0.23286529951E+02  0.15079102889E+02 -0.15027040595E+02  0.93449187489E+02  0.87961905801E+02 0.  0.
         13    1    3    3    0    0 -0.30741340073E+02 -0.18192040089E+01 -0.19844784916E+02  0.36635585775E+02  0.10566000000E+00 0. -1.
         22    1    1    0    0    0 -0.23286529951E+02 -0.15079102889E+02  0.15027040595E+02  0.31550812511E+02  0.00000000000E+00 0.  1.
</event>
<event>
 5    1  0.6978980E-004  0.9118800E+02  0.7818608E-02  0.1130116E+00
         25   -1    0    0    0    0  0.00000000000E+00  0.00000000000E+00  0.99999998245E-14  0.12500000000E+03  0.12500000000E+03 0.  0.
        -13    1    3    3    0    0  0.13037420247E+02  0.19777178713E+02 -0.54911924825E+02  0.59803359242E+02  0.10566000000E+00 0.  1.
         23    2    1    0    0    0 -0.25499927002E+01  0.18350445554E+02 -0.22071022746E+02  0.96183835095E+02  0.91765782150E+02 0.  0.
         13    1    3    3    0    0 -0.15587412947E+02 -0.14267331594E+01  0.32840902079E+02  0.36380475853E+02  0.10566000000E+00 0. -1.
         22    1    1    0    0    0  0.25499927002E+01 -0.18350445554E+02  0.22071022746E+02  0.28816164905E+02  0.00000000000E+00 0.  1.
</event>
<event>
 5    1  0.6978980E-004  0.9118800E+02  0.7818608E-02  0.1130116E+00
         25   -1    0    0    0    0  0.00000000000E+00  0.00000000000E+00  0.99999998245E-14  0.12500000000E+03  0.12500000000E+03 0.  0.
        -13    1    3    3    0    0 -0.14019695796E+02  0.37372784293E+02 -0.20014848020E+02  0.44652907871E+02  0.10566000000E+00 0. -1.
         23    2    1    0    0    0 -0.27767806762E+02 -0.12973005601E+01  0.99561242061E+01  0.95472750038E+02  0.90792001352E+02 0.  0.
         13    1    3    3    0    0 -0.13748110966E+02 -0.38670084853E+02  0.29970972226E+02  0.50819842167E+02  0.10566000000E+00 0.  1.
         22    1    1    0    0    0  0.27767806762E+02  0.12973005601E+01 -0.99561242061E+01  0.29527249962E+02  0.00000000000E+00 0.  1.
</event>
<event>
 5    1  0.6978980E-004  0.9118800E+02  0.7818608E-02  0.1130116E+00
         25   -1    0    0    0    0  0.00000000000E+00  0.00000000000E+00  0.99999998245E-14  0.12500000000E+03  0.12500000000E+03 0.  0.
        -13    1    3    3    0    0 -0.34805406205E+02 -0.42188770094E+02 -0.93970503414E+01  0.55494363158E+02  0.10566000000E+00 0.  1.
         23    2    1    0    0    0 -0.18045243710E+02 -0.69883102111E+01 -0.21265455180E+02  0.96247836878E+02  0.91852921672E+02 0.  0.
         13    1    3    3    0    0  0.16760162496E+02  0.35200459883E+02 -0.11868404839E+02  0.40753473720E+02  0.10566000000E+00 0. -1.
         22    1    1    0    0    0  0.18045243710E+02  0.69883102111E+01  0.21265455180E+02  0.28752163122E+02  0.00000000000E+00 0.  1.
</event>
<event>
 5    1  0.6978980E-004  0.9118800E+02  0.7818608E-02  0.1130116E+00
         25   -1    0    0    0    0  0.00000000000E+00  0.00000000000E+00  0.99999998245E-14  0.12500000000E+03  0.12500000000E+03 0.  0.
        -13    1    3    3    0    0  0.44844943948E+02 -0.33528587560E+02  0.13319429788E+02  0.57555656155E+02  0.10566000000E+00 0.  1.
         23    2    1    0    0    0  0.24641279556E+02 -0.14404915950E+02 -0.10906073833E+02  0.94444530635E+02  0.89365164683E+02 0.  0.
         13    1    3    3    0    0 -0.20203664393E+02  0.19123671610E+02 -0.24225503620E+02  0.36888874480E+02  0.10566000000E+00 0. -1.
         22    1    1    0    0    0 -0.24641279556E+02  0.14404915950E+02  0.10906073833E+02  0.30555469365E+02  0.00000000000E+00 0.  1.
</event>
<event>
 5    1  0.6978980E-004  0.9118800E+02  0.7818608E-02  0.1130116E+00
         25   -1    0    0    0    0  0.00000000000E+00  0.00000000000E+00  0.99999998245E-14  0.12500000000E+03  0.12500000000E+03 0.  0.
        -13    1    3    3    0    0  0.19729904547E+02  0.66137237630E+01  0.16319331120E+02  0.26445079083E+02  0.10566000000E+00 0.  1.
         23    2    1    0    0    0  0.32123566337E+02 -0.13783886994E+01 -0.33598229994E+02  0.78495542920E+02  0.63236743512E+02 0.  0.
         13    1    3    3    0    0  0.12393661789E+02 -0.79921124624E+01 -0.49917561113E+02  0.52050463838E+02  0.10566000000E+00 0. -1.
         22    1    1    0    0    0 -0.32123566337E+02  0.13783886994E+01  0.33598229994E+02  0.46504457080E+02  0.00000000000E+00 0. -1.
</event>
<event>
 5    1  0.6978980E-004  0.9118800E+02  0.7818608E-02  0.1130116E+00
         25   -1    0    0    0    0  0.00000000000E+00  0.00000000000E+00  0.99999998245E-14  0.12500000000E+03  0.12500000000E+03 0.  0.
        -13    1    3    3    0    0 -0.51682435739E+02 -0.20267616298E+02  0.27241196514E+02  0.61838049661E+02  0.10566000000E+00 0.  1.
         23    2    1    0    0    0 -0.21228186454E+02 -0.14808074145E+02  0.14791897011E+02  0.95188673676E+02  0.90400046565E+02 0.  0.
         13    1    3    3    0    0  0.30454249285E+02  0.54595421535E+01 -0.12449299503E+02  0.33350624015E+02  0.10566000000E+00 0. -1.
         22    1    1    0    0    0  0.21228186454E+02  0.14808074145E+02 -0.14791897011E+02  0.29811326324E+02  0.00000000000E+00 0.  1.
</event>
<event>
 5    1  0.6978980E-004  0.9118800E+02  0.7818608E-02  0.1130116E+00
         25   -1    0    0    0    0  0.00000000000E+00  0.00000000000E+00  0.99999998245E-14  0.12500000000E+03  0.12500000000E+03 0.  0.
        -13    1    3    3    0    0 -0.53353008190E+02  0.11194377730E+02 -0.20425296550E+02  0.58215646340E+02  0.10566000000E+00 0. -1.
         23    2    1    0    0    0 -0.16441609714E+02  0.18473691741E+02 -0.14585529088E+02  0.96288652499E+02  0.91908449692E+02 0.  0.
         13    1    3    3    0    0  0.36911398476E+02  0.72793140114E+01  0.58397674621E+01  0.38073006159E+02  0.10566000000E+00 0.  1.
         22    1    1    0    0    0  0.16441609714E+02 -0.18473691741E+02  0.14585529088E+02  0.28711347501E+02  0.00000000000E+00 0. -1.
</event>
<event>
 5    1  0.6978980E-004  0.9118800E+02  0.7818608E-02  0.1130116E+00
         25   -1    0    0    0    0  0.00000000000E+00  0.00000000000E+00  0.99999998245E-14  0.12500000000E+03  0.12500000000E+03 0.  0.
        -13    1    3    3    0    0  0.32228371995E+02 -0.30368538670E+00  0.29559687217E+02  0.43732670382E+02  0.10566000000E+00 0.  1.
         23    2    1    0    0    0  0.17048977648E+02 -0.21679423479E+02 -0.13613675303E+02  0.94242932577E+02  0.89082732021E+02 0.  0.
         13    1    3    3    0    0 -0.15179394348E+02 -0.21375738092E+02 -0.43173362520E+02  0.50510262196E+02  0.10566000000E+00 0. -1.
         22    1    1    0    0    0 -0.17048977648E+02  0.21679423479E+02  0.13613675303E+02  0.30757067423E+02  0.00000000000E+00 0.  1.
</event>
<event>
 5    1  0.6978980E-004  0.9118800E+02  0.7818608E-02  0.1130116E+00
         25   -1    0    0    0    0  0.00000000000E+00  0.00000000000E+00  0.99999998245E-14  0.12500000000E+03  0.12500000000E+03 0.  0.
        -13    1    3    3    0    0  0.19462737460E+02  0.50946620084E+02  0.37389090541E+01  0.54665774049E+02  0.10566000000E+00 0. -1.
         23    2    1    0    0    0  0.19805658714E+02  0.14376609713E+02 -0.15541714977E+02  0.96008692193E+02  0.91526897949E+02 0.  0.
         13    1    3    3    0    0  0.34292125396E+00 -0.36570010371E+02 -0.19280624031E+02  0.41342918143E+02  0.10566000000E+00 0.  1.
         22    1    1    0    0    0 -0.19805658714E+02 -0.14376609713E+02  0.15541714977E+02  0.28991307807E+02  0.00000000000E+00 0. -1.
</event>
<event>
 5    1  0.6978980E-004  0.9118800E+02  0.7818608E-02  0.1130116E+00
         25   -1    0    0    0    0  0.00000000000E+00  0.00000000000E+00  0.99999998245E-14  0.12500000000E+03  0.12500000000E+03 0.  0.
        -13    1    3    3    0    0  0.12976968643E+02 -0.36931167723E+02 -0.73010825776E+01  0.39819967798E+02  0.10566000000E+00 0.  1.
         23    2    1    0    0    0 -0.18321732403E+02  0.29365028857E+01  0.20270086432E+02  0.97519364428E+02  0.93567307897E+02 0.  0.
         13    1    3    3    0    0 -0.31298701046E+02  0.39867670609E+02  0.27571169010E+02  0.57699396631E+02  0.10566000000E+00 0. -1.
         22    1    1    0    0    0  0.18321732403E+02 -0.29365028857E+01 -0.20270086432E+02  0.27480635572E+02  0.00000000000E+00 0. -1.
</event>
<event>
 5    1  0.6978980E-004  0.9118800E+02  0.7818608E-02  0.1130116E+00
         25   -1    0    0    0    0  0.00000000000E+00  0.00000000000E+00  0.99999998245E-14  0.12500000000E+03  0.12500000000E+03 0.  0.
        -13    1    3    3    0    0  0.21642430035E+02  0.53598656169E+02 -0.21560293554E+00  0.57803705501E+02  0.10566000000E+00 0.  1.
         23    2    1    0    0    0  0.51507174059E+01  0.23725582779E+02 -0.16532411425E+02  0.95627329105E+02  0.91004572831E+02 0.  0.
         13    1    3    3    0    0 -0.16491712629E+02 -0.29873073390E+02 -0.16316808489E+02  0.37823623604E+02  0.10566000000E+00 0. -1.
         22    1    1    0    0    0 -0.51507174059E+01 -0.23725582779E+02  0.16532411425E+02  0.29372670895E+02  0.00000000000E+00 0.  1.
</event>
<event>
 5    1  0.6978980E-004  0.9118800E+02  0.7818608E-02  0.1130116E+00
         25   -1    0    0    0    0  0.00000000000E+00  0.00000000000E+00  0.99999998245E-14  0.12500000000E+03  0.12500000000E+03 0.  0.
        -13    1    3    3    0    0  0.23787228950E+02  0.19913847543E+02 -0.31658062244E+02  0.44324233261E+02  0.10566000000E+00 0.  1.
         23    2    1    0    0    0 -0.22333631371E+02  0.55910203723E+01 -0.21126360509E+02  0.93753020828E+02  0.88392619641E+02 0.  0.
         13    1    3    3    0    0 -0.46120860321E+02 -0.14322827170E+02  0.10531701735E+02  0.49428787567E+02  0.10566000000E+00 0. -1.
         22    1    1    0    0    0  0.22333631371E+02 -0.55910203723E+01  0.21126360509E+02  0.31246979172E+02  0.00000000000E+00 0.  1.
</event>
<event>
 5    1  0.6978980E-004  0.9118800E+02  0.7818608E-02  0.1130116E+00
         25   -1    0    0    0    0  0.00000000000E+00  0.00000000000E+00  0.99999998245E-14  0.12500000000E+03  0.12500000000E+03 0.  0.
        -13    1    3    3    0    0 -0.51239846036E+02  0.25522769489E+01  0.24562155481E+02  0.56880107114E+02  0.10566000000E+00 0.  1.
         23    2    1    0    0    0 -0.25480450863E+02 -0.16319166024E+02  0.49916194643E+01  0.94332675031E+02  0.89208568858E+02 0.  0.
         13    1    3    3    0    0  0.25759395173E+02 -0.18871442973E+02 -0.19570536016E+02  0.37452567916E+02  0.10566000000E+00 0. -1.
         22    1    1    0    0    0  0.25480450863E+02  0.16319166024E+02 -0.49916194643E+01  0.30667324969E+02  0.00000000000E+00 0.  1.
</event>
<event>
 5    1  0.6978980E-004  0.9118800E+02  0.7818608E-02  0.1130116E+00
         25   -1    0    0    0    0  0.00000000000E+00  0.00000000000E+00  0.99999998245E-14  0.12500000000E+03  0.12500000000E+03 0.  0.
        -13    1    3    3    0    0  0.35968414490E+02  0.27234776599E+02  0.18101328050E+02  0.48612026686E+02  0.10566000000E+00 0. -1.
         23    2    1    0    0    0  0.27458923459E+02 -0.18156233601E+01 -0.15156361602E+02  0.93583376014E+02  0.88152390798E+02 0.  0.
         13    1    3    3    0    0 -0.85094910311E+01 -0.29050399959E+02 -0.33257689652E+02  0.44971349328E+02  0.10566000000E+00 0.  1.
         22    1    1    0    0    0 -0.27458923459E+02  0.18156233601E+01  0.15156361602E+02  0.31416623986E+02  0.00000000000E+00 0. -1.
</event>
<event>
 5    1  0.6978980E-004  0.9118800E+02  0.7818608E-02  0.1130116E+00
         25   -1    0    0    0    0  0.00000000000E+00  0.00000000000E+00  0.99999998245E-14  0.12500000000E+03  0.12500000000E+03 0.  0.
        -13    1    3    3    0    0 -0.12943093952E+01  0.32718768333E+02 -0.13287131987E+02  0.35337686377E+02  0.10566000000E+00 0.  1.
         23    2    1    0    0    0  0.13976544849E+02 -0.13820232722E+02  0.21844116104E+02  0.95614492572E+02  0.90986939409E+02 0.  0.
         13    1    3    3    0    0  0.15270854244E+02 -0.46539001055E+02  0.35131248091E+02  0.60276806195E+02  0.10566000000E+00 0. -1.
         22    1    1    0    0    0 -0.13976544849E+02  0.13820232722E+02 -0.21844116104E+02  0.29385507428E+02  0.00000000000E+00 0. -1.
</event>
<event>
 5    1  0.6978980E-004  0.9118800E+02  0.7818608E-02  0.1130116E+00
         25   -1    0    0    0    0  0.00000000000E+00  0.00000000000E+00  0.99999998245E-14  0.12500000000E+03  0.12500000000E+03 0.  0.
        -13    1    3    3    0    0  0.33988213379E+02  0.27448396322E+02  0.59946794224E+01  0.44097170598E+02  0.10566000000E+00 0. -1.
         23    2    1    0    0    0  0.28801152142E+02  0.10560952347E+02 -0.28674946334E+02  0.83008421958E+02  0.71603809183E+02 0.  0.
         13    1    3    3    0    0 -0.51870612369E+01 -0.16887443974E+02 -0.34669625757E+02  0.38911251360E+02  0.10566000000E+00 0.  1.
         22    1    1    0    0    0 -0.28801152142E+02 -0.10560952347E+02  0.28674946334E+02  0.41991578042E+02  0.00000000000E+00 0. -1.
</event>
<event>
 5    1  0.6978980E-004  0.9118800E+02  0.7818608E-02  0.1130116E+00
         25   -1    0    0    0    0  0.00000000000E+00  0.00000000000E+00  0.99999998245E-14  0.12500000000E+03  0.12500000000E+03 0.  0.
        -13    1    3    3    0    0  0.16112060795E+02 -0.24635962687E+02  0.27895709374E+02  0.40555035767E+02  0.10566000000E+00 0.  1.
         23    2    1    0    0    0  0.20771608309E+02 -0.10142111658E+00 -0.21002056270E+02  0.95460934924E+02  0.90775733161E+02 0.  0.
         13    1    3    3    0    0  0.46595475141E+01  0.24534541571E+02 -0.48897765644E+02  0.54905899156E+02  0.10566000000E+00 0. -1.
         22    1    1    0    0    0 -0.20771608309E+02  0.10142111658E+00  0.21002056270E+02  0.29539065076E+02  0.00000000000E+00 0.  1.
</event>
<event>
 5    1  0.6978980E-004  0.9118800E+02  0.7818608E-02  0.1130116E+00
         25   -1    0    0    0    0  0.00000000000E+00  0.00000000000E+00  0.99999998245E-14  0.12500000000E+03  0.12500000000E+03 0.  0.
        -13    1    3    3    0    0  0.15591022818E+02 -0.24182078716E+02  0.24990992481E+02  0.38110547001E+02  0.10566000000E+00 0. -1.
         23    2    1    0    0    0  0.17173473945E+02  0.10783159707E+01 -0.25295069420E+02  0.94407002278E+02  0.89312656267E+02 0.  0.
         13    1    3    3    0    0  0.15824511270E+01  0.25260394686E+02 -0.50286061900E+02  0.56296455277E+02  0.10566000000E+00 0.  1.
         22    1    1    0    0    0 -0.17173473945E+02 -0.10783159707E+01  0.25295069420E+02  0.30592997722E+02  0.00000000000E+00 0.  1.
</event>
<event>
 5    1  0.6978980E-004  0.9118800E+02  0.7818608E-02  0.1130116E+00
         25   -1    0    0    0    0  0.00000000000E+00  0.00000000000E+00  0.99999998245E-14  0.12500000000E+03  0.12500000000E+03 0.  0.
        -13    1    3    3    0    0  0.27881609605E+02  0.35035549589E+02 -0.27588679597E+02  0.52592968114E+02  0.10566000000E+00 0. -1.
         23    2    1    0    0    0  0.10131367498E+01  0.62512812141E+00 -0.28710163350E+02  0.96265165551E+02  0.91876500738E+02 0.  0.
         13    1    3    3    0    0 -0.26868472855E+02 -0.34410421467E+02 -0.11214837527E+01  0.43672197437E+02  0.10566000000E+00 0.  1.
         22    1    1    0    0    0 -0.10131367498E+01 -0.62512812141E+00  0.28710163350E+02  0.28734834449E+02  0.00000000000E+00 0.  1.
</event>
<event>
 5    1  0.6978980E-004  0.9118800E+02  0.7818608E-02  0.1130116E+00
         25   -1    0    0    0    0  0.00000000000E+00  0.00000000000E+00  0.99999998245E-14  0.12500000000E+03  0.12500000000E+03 0.  0.
        -13    1    3    3    0    0 -0.33509798084E+02 -0.16755071512E+02 -0.23989650937E+02  0.44487678127E+02  0.10566000000E+00 0.  1.
         23    2    1    0    0    0  0.10231735879E+02 -0.25517825257E+01 -0.32122325092E+02  0.91191069486E+02  0.84692191916E+02 0.  0.
         13    1    3    3    0    0  0.43741533964E+02  0.14203288986E+02 -0.81326741552E+01  0.46703391359E+02  0.10566000000E+00 0. -1.
         22    1    1    0    0    0 -0.10231735879E+02  0.25517825257E+01  0.32122325092E+02  0.33808930514E+02  0.00000000000E+00 0. -1.
</event>
<event>
 5    1  0.6978980E-004  0.9118800E+02  0.7818608E-02  0.1130116E+00
         25   -1    0    0    0    0  0.00000000000E+00  0.00000000000E+00  0.99999998245E-14  0.12500000000E+03  0.12500000000E+03 0.  0.
        -13    1    3    3    0    0 -0.28019668442E+02 -0.66752334016E+01 -0.23927816572E+02  0.37446123037E+02  0.10566000000E+00 0.  1.
         23    2    1    0    0    0  0.17111248163E+02 -0.19423824568E+02  0.11945839219E+02  0.96490653301E+02  0.92182771304E+02 0.  0.
         13    1    3    3    0    0  0.45130916605E+02 -0.12748591166E+02  0.35873655791E+02  0.59044530264E+02  0.10566000000E+00 0. -1.
         22    1    1    0    0    0 -0.17111248163E+02  0.19423824568E+02 -0.11945839219E+02  0.28509346699E+02  0.00000000000E+00 0. -1.
</event>
<event>
 5    1  0.6978980E-004  0.9118800E+02  0.7818608E-02  0.1130116E+00
         25   -1    0    0    0    0  0.00000000000E+00  0.00000000000E+00  0.99999998245E-14  0.12500000000E+03  0.12500000000E+03 0.  0.
        -13    1    3    3    0    0 -0.41554181996E+02 -0.24646853074E+02 -0.19665592359E+01  0.48353861553E+02  0.10566000000E+00 0.  1.
         23    2    1    0    0    0  0.42638913540E+01 -0.29492459449E+02  0.44438226927E+01  0.94871384135E+02  0.89960246963E+02 0.  0.
         13    1    3    3    0    0  0.45818073350E+02 -0.48456063757E+01  0.64103819286E+01  0.46517522582E+02  0.10566000000E+00 0. -1.
         22    1    1    0    0    0 -0.42638913540E+01  0.29492459449E+02 -0.44438226927E+01  0.30128615865E+02  0.00000000000E+00 0.  1.
</event>
<event>
 5    1  0.6978980E-004  0.9118800E+02  0.7818608E-02  0.1130116E+00
         25   -1    0    0    0    0  0.00000000000E+00  0.00000000000E+00  0.99999998245E-14  0.12500000000E+03  0.12500000000E+03 0.  0.
        -13    1    3    3    0    0 -0.59188475585E+01 -0.30059129557E+02 -0.28248433555E+02  0.41672163233E+02  0.10566000000E+00 0. -1.
         23    2    1    0    0    0 -0.10451487054E+02  0.21925853377E+02 -0.17790772820E+02  0.94892057103E+02  0.89988967522E+02 0.  0.
         13    1    3    3    0    0 -0.45326394955E+01  0.51984982934E+02  0.10457660734E+02  0.53219893870E+02  0.10566000000E+00 0.  1.
         22    1    1    0    0    0  0.10451487054E+02 -0.21925853377E+02  0.17790772820E+02  0.30107942897E+02  0.00000000000E+00 0.  1.
</event>
<event>
 5    1  0.6978980E-004  0.9118800E+02  0.7818608E-02  0.1130116E+00
         25   -1    0    0    0    0  0.00000000000E+00  0.00000000000E+00  0.99999998245E-14  0.12500000000E+03  0.12500000000E+03 0.  0.
        -13    1    3    3    0    0  0.28594442883E+02 -0.22047910629E+02  0.51628790163E+01  0.36474909330E+02  0.10566000000E+00 0.  1.
         23    2    1    0    0    0 -0.27269950654E+02 -0.12203389128E+02 -0.65922567388E+01  0.94405380150E+02  0.89310385944E+02 0.  0.
         13    1    3    3    0    0 -0.55864393536E+02  0.98445215012E+01 -0.11755135755E+02  0.57930470820E+02  0.10566000000E+00 0. -1.
         22    1    1    0    0    0  0.27269950654E+02  0.12203389128E+02  0.65922567388E+01  0.30594619850E+02  0.00000000000E+00 0. -1.
</event>
<event>
 5    1  0.6978980E-004  0.9118800E+02  0.7818608E-02  0.1130116E+00
         25   -1    0    0    0    0  0.00000000000E+00  0.00000000000E+00  0.99999998245E-14  0.12500000000E+03  0.12500000000E+03 0.  0.
        -13    1    3    3    0    0 -0.44846760853E+02  0.16581147025E+02  0.36264356386E+02  0.60010674915E+02  0.10566000000E+00 0. -1.
         23    2    1    0    0    0 -0.22558628907E+02 -0.47059350589E+01  0.17107553061E+02  0.96299722394E+02  0.91923504059E+02 0.  0.
         13    1    3    3    0    0  0.22288131946E+02 -0.21287082083E+02 -0.19156803325E+02  0.36289047479E+02  0.10566000000E+00 0.  1.
         22    1    1    0    0    0  0.22558628907E+02  0.47059350589E+01 -0.17107553061E+02  0.28700277606E+02  0.00000000000E+00 0. -1.
</event>
<event>
 5    1  0.6978980E-004  0.9118800E+02  0.7818608E-02  0.1130116E+00
         25   -1    0    0    0    0  0.00000000000E+00  0.00000000000E+00  0.99999998245E-14  0.12500000000E+03  0.12500000000E+03 0.  0.
        -13    1    3    3    0    0 -0.12717104881E+02  0.15170545098E+02 -0.56975200679E+02  0.60316290101E+02  0.10566000000E+00 0. -1.
         23    2    1    0    0    0 -0.93892225731E+01  0.14886957021E+02 -0.16675305811E+02  0.10075448879E+03  0.97793773820E+02 0.  0.
         13    1    3    3    0    0  0.33278823083E+01 -0.28358807691E+00  0.40299894869E+02  0.40438198690E+02  0.10566000000E+00 0.  1.
         22    1    1    0    0    0  0.93892225731E+01 -0.14886957021E+02  0.16675305811E+02  0.24245511208E+02  0.00000000000E+00 0. -1.
</event>
<event>
 5    1  0.6978980E-004  0.9118800E+02  0.7818608E-02  0.1130116E+00
         25   -1    0    0    0    0  0.00000000000E+00  0.00000000000E+00  0.99999998245E-14  0.12500000000E+03  0.12500000000E+03 0.  0.
        -13    1    3    3    0    0  0.25123636573E+02  0.20377969250E+02  0.57930166627E+00  0.32354373736E+02  0.10566000000E+00 0. -1.
         23    2    1    0    0    0 -0.29569460148E+02  0.15071793008E+00  0.14138758602E+02  0.92223786305E+02  0.86202938328E+02 0.  0.
         13    1    3    3    0    0 -0.54693096721E+02 -0.20227251320E+02  0.13559456936E+02  0.59869412569E+02  0.10566000000E+00 0.  1.
         22    1    1    0    0    0  0.29569460148E+02 -0.15071793008E+00 -0.14138758602E+02  0.32776213695E+02  0.00000000000E+00 0.  1.
</event>
<event>
 5    1  0.6978980E-004  0.9118800E+02  0.7818608E-02  0.1130116E+00
         25   -1    0    0    0    0  0.00000000000E+00  0.00000000000E+00  0.99999998245E-14  0.12500000000E+03  0.12500000000E+03 0.  0.
        -13    1    3    3    0    0 -0.35980911416E+02 -0.22892632117E+01 -0.20565533277E+01  0.36112425673E+02  0.10566000000E+00 0. -1.
         23    2    1    0    0    0  0.11818626268E+02  0.28558239150E+02  0.58366705396E+01  0.93546547515E+02  0.88100152547E+02 0.  0.
         13    1    3    3    0    0  0.47799537684E+02  0.30847502362E+02  0.78932238672E+01  0.57434121842E+02  0.10566000000E+00 0.  1.
         22    1    1    0    0    0 -0.11818626268E+02 -0.28558239150E+02 -0.58366705396E+01  0.31453452485E+02  0.00000000000E+00 0.  1.
</event>
<event>
 5    1  0.6978980E-004  0.9118800E+02  0.7818608E-02  0.1130116E+00
         25   -1    0    0    0    0  0.00000000000E+00  0.00000000000E+00  0.99999998245E-14  0.12500000000E+03  0.12500000000E+03 0.  0.
        -13    1    3    3    0    0 -0.47041660232E+02 -0.10846014728E+02  0.39692974617E+02  0.62498777834E+02  0.10566000000E+00 0.  1.
         23    2    1    0    0    0 -0.21668065203E+02 -0.47196240254E+01  0.18274907364E+02  0.96264096678E+02  0.91875046500E+02 0.  0.
         13    1    3    3    0    0  0.25373595029E+02  0.61263907022E+01 -0.21418067253E+02  0.33765318843E+02  0.10566000000E+00 0. -1.
         22    1    1    0    0    0  0.21668065203E+02  0.47196240254E+01 -0.18274907364E+02  0.28735903322E+02  0.00000000000E+00 0.  1.
</event>
<event>
 5    1  0.6978980E-004  0.9118800E+02  0.7818608E-02  0.1130116E+00
         25   -1    0    0    0    0  0.00000000000E+00  0.00000000000E+00  0.99999998245E-14  0.12500000000E+03  0.12500000000E+03 0.  0.
        -13    1    3    3    0    0 -0.16666834882E+02 -0.67095979940E+01 -0.58596582603E+02  0.61289254743E+02  0.10566000000E+00 0.  1.
         23    2    1    0    0    0 -0.15521765048E+02 -0.11311639891E+00 -0.24799057357E+02  0.95743697580E+02  0.91164271483E+02 0.  0.
         13    1    3    3    0    0  0.11450698340E+01  0.65964815951E+01  0.33797525246E+02  0.34454442837E+02  0.10566000000E+00 0. -1.
         22    1    1    0    0    0  0.15521765048E+02  0.11311639891E+00  0.24799057357E+02  0.29256302420E+02  0.00000000000E+00 0.  1.
</event>
<event>
 5    1  0.6978980E-004  0.9118800E+02  0.7818608E-02  0.1130116E+00
         25   -1    0    0    0    0  0.00000000000E+00  0.00000000000E+00  0.99999998245E-14  0.12500000000E+03  0.12500000000E+03 0.  0.
        -13    1    3    3    0    0 -0.49684850303E+01  0.34958703732E+02 -0.17103295221E+02  0.39234304908E+02  0.10566000000E+00 0. -1.
         23    2    1    0    0    0 -0.11131404681E+02 -0.21606350522E+02 -0.15531897893E+02  0.96155894793E+02  0.91727714995E+02 0.  0.
         13    1    3    3    0    0 -0.61629196506E+01 -0.56565054254E+02  0.15713973275E+01  0.56921589885E+02  0.10566000000E+00 0.  1.
         22    1    1    0    0    0  0.11131404681E+02  0.21606350522E+02  0.15531897893E+02  0.28844105207E+02  0.00000000000E+00 0.  1.
</event>
<event>
 5    1  0.6978980E-004  0.9118800E+02  0.7818608E-02  0.1130116E+00
         25   -1    0    0    0    0  0.00000000000E+00  0.00000000000E+00  0.99999998245E-14  0.12500000000E+03  0.12500000000E+03 0.  0.
        -13    1    3    3    0    0 -0.85665608529E+01  0.40212575002E+02 -0.96496458579E+01  0.42232262340E+02  0.10566000000E+00 0.  1.
         23    2    1    0    0    0 -0.23130245665E+02  0.40609655685E+00  0.20372485925E+02  0.94174501436E+02  0.88986658321E+02 0.  0.
         13    1    3    3    0    0 -0.14563684812E+02 -0.39806478445E+02  0.30022131783E+02  0.51942239096E+02  0.10566000000E+00 0. -1.
         22    1    1    0    0    0  0.23130245665E+02 -0.40609655685E+00 -0.20372485925E+02  0.30825498564E+02  0.00000000000E+00 0. -1.
</event>
<event>
 5    1  0.6978980E-004  0.9118800E+02  0.7818608E-02  0.1130116E+00
         25   -1    0    0    0    0  0.00000000000E+00  0.00000000000E+00  0.99999998245E-14  0.12500000000E+03  0.12500000000E+03 0.  0.
        -13    1    3    3    0    0 -0.71888176261E+01  0.10395947356E+02  0.21364356954E+02  0.24823410974E+02  0.10566000000E+00 0. -1.
         23    2    1    0    0    0  0.32996342518E+02  0.11470252085E+02 -0.21811751009E+02  0.83816535059E+02  0.73000916192E+02 0.  0.
         13    1    3    3    0    0  0.40185160144E+02  0.10743047288E+01 -0.43176107963E+02  0.58993124085E+02  0.10566000000E+00 0.  1.
         22    1    1    0    0    0 -0.32996342518E+02 -0.11470252085E+02  0.21811751009E+02  0.41183464941E+02  0.00000000000E+00 0.  1.
</event>
<event>
 5    1  0.6978980E-004  0.9118800E+02  0.7818608E-02  0.1130116E+00
         25   -1    0    0    0    0  0.00000000000E+00  0.00000000000E+00  0.99999998245E-14  0.12500000000E+03  0.12500000000E+03 0.  0.
        -13    1    3    3    0    0 -0.44736438786E+02  0.20195653273E+02  0.14417196410E+02  0.51157404965E+02  0.10566000000E+00 0.  1.
         23    2    1    0    0    0 -0.21576744283E+02 -0.44624142382E+01 -0.16880368451E+02  0.97243633636E+02  0.93198221061E+02 0.  0.
         13    1    3    3    0    0  0.23159694503E+02 -0.24658067511E+02 -0.31297564862E+02  0.46086228671E+02  0.10566000000E+00 0. -1.
         22    1    1    0    0    0  0.21576744283E+02  0.44624142382E+01  0.16880368451E+02  0.27756366364E+02  0.00000000000E+00 0.  1.
</event>
<event>
 5    1  0.6978980E-004  0.9118800E+02  0.7818608E-02  0.1130116E+00
         25   -1    0    0    0    0  0.00000000000E+00  0.00000000000E+00  0.99999998245E-14  0.12500000000E+03  0.12500000000E+03 0.  0.
        -13    1    3    3    0    0  0.38266689175E+02  0.69064450403E+01 -0.47667782921E+02  0.61516397620E+02  0.10566000000E+00 0. -1.
         23    2    1    0    0    0  0.11979851242E+02  0.81538331478E-01 -0.26391432031E+02  0.96016708797E+02  0.91537845722E+02 0.  0.
         13    1    3    3    0    0 -0.26286837933E+02 -0.68249067088E+01  0.21276350890E+02  0.34500311177E+02  0.10566000000E+00 0.  1.
         22    1    1    0    0    0 -0.11979851242E+02 -0.81538331478E-01  0.26391432031E+02  0.28983291203E+02  0.00000000000E+00 0. -1.
</event>
<event>
 5    1  0.6978980E-004  0.9118800E+02  0.7818608E-02  0.1130116E+00
         25   -1    0    0    0    0  0.00000000000E+00  0.00000000000E+00  0.99999998245E-14  0.12500000000E+03  0.12500000000E+03 0.  0.
        -13    1    3    3    0    0  0.44085357232E+02  0.53577307894E+01  0.43337744493E+01  0.44620810912E+02  0.10566000000E+00 0.  1.
         23    2    1    0    0    0  0.39025467024E+01  0.18957678182E+02  0.26262800265E+02  0.92375498309E+02  0.86422650835E+02 0.  0.
         13    1    3    3    0    0 -0.40182810529E+02  0.13599947393E+02  0.21929025815E+02  0.47754687397E+02  0.10566000000E+00 0. -1.
         22    1    1    0    0    0 -0.39025467024E+01 -0.18957678182E+02 -0.26262800265E+02  0.32624501691E+02  0.00000000000E+00 0. -1.
</event>
<event>
 5    1  0.6978980E-004  0.9118800E+02  0.7818608E-02  0.1130116E+00
         25   -1    0    0    0    0  0.00000000000E+00  0.00000000000E+00  0.99999998245E-14  0.12500000000E+03  0.12500000000E+03 0.  0.
        -13    1    3    3    0    0  0.25727730109E+02 -0.82219566336E+01 -0.19869810907E+02  0.33531138020E+02  0.10566000000E+00 0.  1.
         23    2    1    0    0    0 -0.11974021542E+02 -0.83732359990E+01  0.27371483276E+02  0.93972812410E+02  0.88702892301E+02 0.  0.
         13    1    3    3    0    0 -0.37701751651E+02 -0.15127936539E+00  0.47241294183E+02  0.60441674390E+02  0.10566000000E+00 0. -1.
         22    1    1    0    0    0  0.11974021542E+02  0.83732359990E+01 -0.27371483276E+02  0.31027187590E+02  0.00000000000E+00 0. -1.
</event>
<event>
 5    1  0.6978980E-004  0.9118800E+02  0.7818608E-02  0.1130116E+00
         25   -1    0    0    0    0  0.00000000000E+00  0.00000000000E+00  0.99999998245E-14  0.12500000000E+03  0.12500000000E+03 0.  0.
        -13    1    3    3    0    0 -0.24511441088E+02  0.34381296996E+01 -0.43089011410E+02  0.49692107505E+02  0.10566000000E+00 0. -1.
         23    2    1    0    0    0  0.14629396213E+02 -0.10425666091E+02 -0.22988048963E+02  0.95825282484E+02  0.91276068172E+02 0.  0.
         13    1    3    3    0    0  0.39140837301E+02 -0.13863795790E+02  0.20100962446E+02  0.46133174979E+02  0.10566000000E+00 0.  1.
         22    1    1    0    0    0 -0.14629396213E+02  0.10425666091E+02  0.22988048963E+02  0.29174717516E+02  0.00000000000E+00 0. -1.
</event>
<event>
 5    1  0.6978980E-004  0.9118800E+02  0.7818608E-02  0.1130116E+00
         25   -1    0    0    0    0  0.00000000000E+00  0.00000000000E+00  0.99999998245E-14  0.12500000000E+03  0.12500000000E+03 0.  0.
        -13    1    3    3    0    0 -0.47680403112E+02  0.17795685993E+02  0.76940880122E+01  0.51471520623E+02  0.10566000000E+00 0.  1.
         23    2    1    0    0    0 -0.22401174714E+02 -0.15874017776E+02 -0.79968210958E+01  0.96403737717E+02  0.92064838180E+02 0.  0.
         13    1    3    3    0    0  0.25279228398E+02 -0.33669703769E+02 -0.15690909108E+02  0.44932217093E+02  0.10566000000E+00 0. -1.
         22    1    1    0    0    0  0.22401174714E+02  0.15874017776E+02  0.79968210958E+01  0.28596262283E+02  0.00000000000E+00 0. -1.
</event>
<event>
 5    1  0.6978980E-004  0.9118800E+02  0.7818608E-02  0.1130116E+00
         25   -1    0    0    0    0  0.00000000000E+00  0.00000000000E+00  0.99999998245E-14  0.12500000000E+03  0.12500000000E+03 0.  0.
        -13    1    3    3    0    0  0.26245859412E+01 -0.75787830367E+01 -0.48406582668E+02  0.49066636459E+02  0.10566000000E+00 0.  1.
         23    2    1    0    0    0 -0.14557621611E+02 -0.23750727317E+02 -0.77324271387E+01  0.96089589686E+02  0.91637314570E+02 0.  0.
         13    1    3    3    0    0 -0.17182207552E+02 -0.16171944280E+02  0.40674155530E+02  0.47022953228E+02  0.10566000000E+00 0. -1.
         22    1    1    0    0    0  0.14557621611E+02  0.23750727317E+02  0.77324271387E+01  0.28910410314E+02  0.00000000000E+00 0. -1.
</event>
<event>
 5    1  0.6978980E-004  0.9118800E+02  0.7818608E-02  0.1130116E+00
         25   -1    0    0    0    0  0.00000000000E+00  0.00000000000E+00  0.99999998245E-14  0.12500000000E+03  0.12500000000E+03 0.  0.
        -13    1    3    3    0    0  0.26959233599E+02  0.38226249310E+02  0.71565218085E+01  0.47320961328E+02  0.10566000000E+00 0. -1.
         23    2    1    0    0    0 -0.12931181852E+02  0.12998490896E+02  0.21588097011E+02  0.96676473344E+02  0.92434400177E+02 0.  0.
         13    1    3    3    0    0 -0.39890415452E+02 -0.25227758414E+02  0.14431575202E+02  0.49355512016E+02  0.10566000000E+00 0.  1.
         22    1    1    0    0    0  0.12931181852E+02 -0.12998490896E+02 -0.21588097011E+02  0.28323526656E+02  0.00000000000E+00 0.  1.
</event>
<event>
 5    1  0.6978980E-004  0.9118800E+02  0.7818608E-02  0.1130116E+00
         25   -1    0    0    0    0  0.00000000000E+00  0.00000000000E+00  0.99999998245E-14  0.12500000000E+03  0.12500000000E+03 0.  0.
        -13    1    3    3    0    0 -0.47954014118E+02 -0.18238500968E+01  0.14785515464E+02  0.50214903472E+02  0.10566000000E+00 0. -1.
         23    2    1    0    0    0 -0.59342169239E+01 -0.17341455669E+02  0.22827603316E+02  0.95724746143E+02  0.91138282493E+02 0.  0.
         13    1    3    3    0    0  0.42019797194E+02 -0.15517605572E+02  0.80420878521E+01  0.45509842671E+02  0.10566000000E+00 0.  1.
         22    1    1    0    0    0  0.59342169239E+01  0.17341455669E+02 -0.22827603316E+02  0.29275253857E+02  0.00000000000E+00 0. -1.
</event>
<event>
 5    1  0.6978980E-004  0.9118800E+02  0.7818608E-02  0.1130116E+00
         25   -1    0    0    0    0  0.00000000000E+00  0.00000000000E+00  0.99999998245E-14  0.12500000000E+03  0.12500000000E+03 0.  0.
        -13    1    3    3    0    0  0.38810121458E+02  0.31643873497E+02 -0.32001105517E+02  0.59427621320E+02  0.10566000000E+00 0.  1.
         23    2    1    0    0    0  0.14066600090E+02  0.25098679739E+02 -0.66134069886E+01  0.95477972381E+02  0.90799191049E+02 0.  0.
         13    1    3    3    0    0 -0.24743521367E+02 -0.65451937574E+01  0.25387698528E+02  0.36050351060E+02  0.10566000000E+00 0. -1.
         22    1    1    0    0    0 -0.14066600090E+02 -0.25098679739E+02  0.66134069886E+01  0.29522027619E+02  0.00000000000E+00 0.  1.
</event>
<event>
 5    1  0.6978980E-004  0.9118800E+02  0.7818608E-02  0.1130116E+00
         25   -1    0    0    0    0  0.00000000000E+00  0.00000000000E+00  0.99999998245E-14  0.12500000000E+03  0.12500000000E+03 0.  0.
        -13    1    3    3    0    0 -0.46535645563E+02 -0.36498198902E+02  0.16473032182E+02  0.61392644383E+02  0.10566000000E+00 0.  1.
         23    2    1    0    0    0 -0.23271170371E+02 -0.17380164185E+02 -0.48354535309E+00  0.95950881363E+02  0.91447910532E+02 0.  0.
         13    1    3    3    0    0  0.23264475193E+02  0.19118034717E+02 -0.16956577535E+02  0.34558236980E+02  0.10566000000E+00 0. -1.
         22    1    1    0    0    0  0.23271170371E+02  0.17380164185E+02  0.48354535309E+00  0.29049118637E+02  0.00000000000E+00 0.  1.
</event>
<event>
 5    1  0.6978980E-004  0.9118800E+02  0.7818608E-02  0.1130116E+00
         25   -1    0    0    0    0  0.00000000000E+00  0.00000000000E+00  0.99999998245E-14  0.12500000000E+03  0.12500000000E+03 0.  0.
        -13    1    3    3    0    0  0.28624898374E+02  0.14365845825E+02  0.17838644667E+02  0.36660479277E+02  0.10566000000E+00 0.  1.
         23    2    1    0    0    0  0.31048967348E+01 -0.20597921918E+02 -0.21436571077E+02  0.95109510699E+02  0.90290518189E+02 0.  0.
         13    1    3    3    0    0 -0.25520001640E+02 -0.34963767743E+02 -0.39275215744E+02  0.58449031423E+02  0.10566000000E+00 0. -1.
         22    1    1    0    0    0 -0.31048967348E+01  0.20597921918E+02  0.21436571077E+02  0.29890489301E+02  0.00000000000E+00 0. -1.
</event>
<event>
 5    1  0.6978980E-004  0.9118800E+02  0.7818608E-02  0.1130116E+00
         25   -1    0    0    0    0  0.00000000000E+00  0.00000000000E+00  0.99999998245E-14  0.12500000000E+03  0.12500000000E+03 0.  0.
        -13    1    3    3    0    0 -0.11336624034E+02  0.13546821923E+02 -0.32720450932E+02  0.37184331403E+02  0.10566000000E+00 0. -1.
         23    2    1    0    0    0 -0.20661355534E+02  0.10733803770E+02  0.22120896774E+02  0.92883956814E+02  0.87154972339E+02 0.  0.
         13    1    3    3    0    0 -0.93247314994E+01 -0.28130181522E+01  0.54841347705E+02  0.55699625410E+02  0.10566000000E+00 0.  1.
         22    1    1    0    0    0  0.20661355534E+02 -0.10733803770E+02 -0.22120896774E+02  0.32116043186E+02  0.00000000000E+00 0.  1.
</event>
<event>
 5    1  0.6978980E-004  0.9118800E+02  0.7818608E-02  0.1130116E+00
         25   -1    0    0    0    0  0.00000000000E+00  0.00000000000E+00  0.99999998245E-14  0.12500000000E+03  0.12500000000E+03 0.  0.
        -13    1    3    3    0    0 -0.13468228942E+02 -0.45735545014E+02  0.12301988354E+02  0.49239042944E+02  0.10566000000E+00 0.  1.
         23    2    1    0    0    0  0.56926786238E+01 -0.75494023119E+01  0.28532222688E+02  0.94941926265E+02  0.90058212097E+02 0.  0.
         13    1    3    3    0    0  0.19160907566E+02  0.38186142702E+02  0.16230234334E+02  0.45702883320E+02  0.10566000000E+00 0. -1.
         22    1    1    0    0    0 -0.56926786238E+01  0.75494023119E+01 -0.28532222688E+02  0.30058073735E+02  0.00000000000E+00 0.  1.
</event>
<event>
 5    1  0.6978980E-004  0.9118800E+02  0.7818608E-02  0.1130116E+00
         25   -1    0    0    0    0  0.00000000000E+00  0.00000000000E+00  0.99999998245E-14  0.12500000000E+03  0.12500000000E+03 0.  0.
        -13    1    3    3    0    0 -0.17397668895E+02  0.38682498517E+02 -0.45811416899E+02  0.62431655887E+02  0.10566000000E+00 0.  1.
         23    2    1    0    0    0 -0.65032622786E+01  0.17490449894E+02 -0.22530961844E+02  0.95745043165E+02  0.91166116465E+02 0.  0.
         13    1    3    3    0    0  0.10894406616E+02 -0.21192048623E+02  0.23280455055E+02  0.33313387278E+02  0.10566000000E+00 0. -1.
         22    1    1    0    0    0  0.65032622786E+01 -0.17490449894E+02  0.22530961844E+02  0.29254956835E+02  0.00000000000E+00 0.  1.
</event>
<event>
 5    1  0.6978980E-004  0.9118800E+02  0.7818608E-02  0.1130116E+00
         25   -1    0    0    0    0  0.00000000000E+00  0.00000000000E+00  0.99999998245E-14  0.12500000000E+03  0.12500000000E+03 0.  0.
        -13    1    3    3    0    0 -0.27238336376E+02  0.30186424601E+02 -0.32102482738E+02  0.51804707901E+02  0.10566000000E+00 0. -1.
         23    2    1    0    0    0  0.25041429319E+01 -0.29188200828E+01 -0.28266068094E+02  0.96473506209E+02  0.92159516884E+02 0.  0.
         13    1    3    3    0    0  0.29742479308E+02 -0.33105244684E+02  0.38364146440E+01  0.44668798308E+02  0.10566000000E+00 0.  1.
         22    1    1    0    0    0 -0.25041429319E+01  0.29188200828E+01  0.28266068094E+02  0.28526493791E+02  0.00000000000E+00 0. -1.
</event>
<event>
 5    1  0.6978980E-004  0.9118800E+02  0.7818608E-02  0.1130116E+00
         25   -1    0    0    0    0  0.00000000000E+00  0.00000000000E+00  0.99999998245E-14  0.12500000000E+03  0.12500000000E+03 0.  0.
        -13    1    3    3    0    0  0.37799893241E+01  0.78194636547E+01  0.61129611364E+02  0.61743605991E+02  0.10566000000E+00 0.  1.
         23    2    1    0    0    0  0.71882387996E+01 -0.54880000934E+00  0.28664422806E+02  0.95442918052E+02  0.90750920177E+02 0.  0.
         13    1    3    3    0    0  0.34082494754E+01 -0.83682636640E+01 -0.32465188558E+02  0.33699312061E+02  0.10566000000E+00 0. -1.
         22    1    1    0    0    0 -0.71882387996E+01  0.54880000934E+00 -0.28664422806E+02  0.29557081948E+02  0.00000000000E+00 0.  1.
</event>
<event>
 5    1  0.6978980E-004  0.9118800E+02  0.7818608E-02  0.1130116E+00
         25   -1    0    0    0    0  0.00000000000E+00  0.00000000000E+00  0.99999998245E-14  0.12500000000E+03  0.12500000000E+03 0.  0.
        -13    1    3    3    0    0 -0.47098685428E+02  0.36818394801E+02  0.54758202257E+01  0.60032292443E+02  0.10566000000E+00 0. -1.
         23    2    1    0    0    0 -0.15818181614E+02  0.26692510452E+02 -0.25230769819E+01  0.93870096350E+02  0.88558026669E+02 0.  0.
         13    1    3    3    0    0  0.31280503814E+02 -0.10125884349E+02 -0.79988972076E+01  0.33837803907E+02  0.10566000000E+00 0.  1.
         22    1    1    0    0    0  0.15818181614E+02 -0.26692510452E+02  0.25230769819E+01  0.31129903650E+02  0.00000000000E+00 0. -1.
</event>
<event>
 5    1  0.6978980E-004  0.9118800E+02  0.7818608E-02  0.1130116E+00
         25   -1    0    0    0    0  0.00000000000E+00  0.00000000000E+00  0.99999998245E-14  0.12500000000E+03  0.12500000000E+03 0.  0.
        -13    1    3    3    0    0  0.64020353231E+01  0.58121061229E+02  0.53664199243E+01  0.58718425060E+02  0.10566000000E+00 0. -1.
         23    2    1    0    0    0 -0.69201695755E+01  0.24294962641E+02  0.14047358069E+02  0.96095636568E+02  0.91645562588E+02 0.  0.
         13    1    3    3    0    0 -0.13322204899E+02 -0.33826098588E+02  0.86809381450E+01  0.37377211509E+02  0.10566000000E+00 0.  1.
         22    1    1    0    0    0  0.69201695755E+01 -0.24294962641E+02 -0.14047358069E+02  0.28904363432E+02  0.00000000000E+00 0. -1.
</event>
<event>
 5    1  0.6978980E-004  0.9118800E+02  0.7818608E-02  0.1130116E+00
         25   -1    0    0    0    0  0.00000000000E+00  0.00000000000E+00  0.99999998245E-14  0.12500000000E+03  0.12500000000E+03 0.  0.
        -13    1    3    3    0    0 -0.10415350784E+02 -0.64114513574E+01  0.55858197785E+02  0.57181602499E+02  0.10566000000E+00 0.  1.
         23    2    1    0    0    0  0.44703897380E+01 -0.17865993368E+02  0.19062145006E+02  0.98494463302E+02  0.94861034285E+02 0.  0.
         13    1    3    3    0    0  0.14885740522E+02 -0.11454542010E+02 -0.36796052780E+02  0.41312860803E+02  0.10566000000E+00 0. -1.
         22    1    1    0    0    0 -0.44703897380E+01  0.17865993368E+02 -0.19062145006E+02  0.26505536698E+02  0.00000000000E+00 0.  1.
</event>
<event>
 5    1  0.6978980E-004  0.9118800E+02  0.7818608E-02  0.1130116E+00
         25   -1    0    0    0    0  0.00000000000E+00  0.00000000000E+00  0.99999998245E-14  0.12500000000E+03  0.12500000000E+03 0.  0.
        -13    1    3    3    0    0 -0.69584394997E+01 -0.23598793595E+02 -0.33045985638E+02  0.41199165892E+02  0.10566000000E+00 0. -1.
         23    2    1    0    0    0 -0.18046570453E+02  0.22576648593E+02 -0.74230783228E+01  0.95158990322E+02  0.90358992804E+02 0.  0.
         13    1    3    3    0    0 -0.11088130953E+02  0.46175442188E+02  0.25622907315E+02  0.53959824430E+02  0.10566000000E+00 0.  1.
         22    1    1    0    0    0  0.18046570453E+02 -0.22576648593E+02  0.74230783228E+01  0.29841009678E+02  0.00000000000E+00 0.  1.
</event>
<event>
 5    1  0.6978980E-004  0.9118800E+02  0.7818608E-02  0.1130116E+00
         25   -1    0    0    0    0  0.00000000000E+00  0.00000000000E+00  0.99999998245E-14  0.12500000000E+03  0.12500000000E+03 0.  0.
        -13    1    3    3    0    0 -0.58856036900E+01  0.21533397449E+02 -0.35014923591E+02  0.41525697762E+02  0.10566000000E+00 0. -1.
         23    2    1    0    0    0  0.17942562927E+02  0.17928969193E+02  0.13915231423E+02  0.96068751042E+02  0.91608884724E+02 0.  0.
         13    1    3    3    0    0  0.23828166617E+02 -0.36044282555E+01  0.48930155014E+02  0.54543053280E+02  0.10566000000E+00 0.  1.
         22    1    1    0    0    0 -0.17942562927E+02 -0.17928969193E+02 -0.13915231423E+02  0.28931248958E+02  0.00000000000E+00 0.  1.
</event>
<event>
 5    1  0.6978980E-004  0.9118800E+02  0.7818608E-02  0.1130116E+00
         25   -1    0    0    0    0  0.00000000000E+00  0.00000000000E+00  0.99999998245E-14  0.12500000000E+03  0.12500000000E+03 0.  0.
        -13    1    3    3    0    0  0.19861544778E+02  0.19102808917E+01  0.43965980694E+02  0.48281971340E+02  0.10566000000E+00 0.  1.
         23    2    1    0    0    0  0.28339818538E+02 -0.86113009693E+01 -0.11302398527E+01  0.95359196008E+02  0.90635528365E+02 0.  0.
         13    1    3    3    0    0  0.84782737598E+01 -0.10521581861E+02 -0.45096220547E+02  0.47077224668E+02  0.10566000000E+00 0. -1.
         22    1    1    0    0    0 -0.28339818538E+02  0.86113009693E+01  0.11302398527E+01  0.29640803992E+02  0.00000000000E+00 0.  1.
</event>
<event>
 5    1  0.6978980E-004  0.9118800E+02  0.7818608E-02  0.1130116E+00
         25   -1    0    0    0    0  0.00000000000E+00  0.00000000000E+00  0.99999998245E-14  0.12500000000E+03  0.12500000000E+03 0.  0.
        -13    1    3    3    0    0 -0.51406435085E+01  0.11844708023E+01 -0.43059987759E+02  0.43382057312E+02  0.10566000000E+00 0. -1.
         23    2    1    0    0    0  0.24064770456E+02 -0.13331658376E+02  0.11255352066E+00  0.97488930219E+02  0.93526640883E+02 0.  0.
         13    1    3    3    0    0  0.29205413965E+02 -0.14516129179E+02  0.43172541280E+02  0.54106872907E+02  0.10566000000E+00 0.  1.
         22    1    1    0    0    0 -0.24064770456E+02  0.13331658376E+02 -0.11255352066E+00  0.27511069781E+02  0.00000000000E+00 0.  1.
</event>
<event>
 5    1  0.6978980E-004  0.9118800E+02  0.7818608E-02  0.1130116E+00
         25   -1    0    0    0    0  0.00000000000E+00  0.00000000000E+00  0.99999998245E-14  0.12500000000E+03  0.12500000000E+03 0.  0.
        -13    1    3    3    0    0  0.45001930199E+02  0.16266319026E+01  0.23291049401E+02  0.50698163667E+02  0.10566000000E+00 0. -1.
         23    2    1    0    0    0  0.12033083772E+02  0.26383867443E+02  0.61064005736E+01  0.95365700712E+02  0.90644498884E+02 0.  0.
         13    1    3    3    0    0 -0.32968846426E+02  0.24757235541E+02 -0.17184648827E+02  0.44667537045E+02  0.10566000000E+00 0.  1.
         22    1    1    0    0    0 -0.12033083772E+02 -0.26383867443E+02 -0.61064005736E+01  0.29634299288E+02  0.00000000000E+00 0. -1.
</event>
<event>
 5    1  0.6978980E-004  0.9118800E+02  0.7818608E-02  0.1130116E+00
         25   -1    0    0    0    0  0.00000000000E+00  0.00000000000E+00  0.99999998245E-14  0.12500000000E+03  0.12500000000E+03 0.  0.
        -13    1    3    3    0    0 -0.20267272976E+02 -0.20153767933E+02  0.38556946369E+02  0.47995687234E+02  0.10566000000E+00 0.  1.
         23    2    1    0    0    0 -0.28843634671E+02  0.54608349323E+01 -0.68493647094E+00  0.95635989424E+02  0.91016467498E+02 0.  0.
         13    1    3    3    0    0 -0.85763616948E+01  0.25614602865E+02 -0.39241882840E+02  0.47640302189E+02  0.10566000000E+00 0. -1.
         22    1    1    0    0    0  0.28843634671E+02 -0.54608349323E+01  0.68493647094E+00  0.29364010576E+02  0.00000000000E+00 0. -1.
</event>
<event>
 5    1  0.6978980E-004  0.9118800E+02  0.7818608E-02  0.1130116E+00
         25   -1    0    0    0    0  0.00000000000E+00  0.00000000000E+00  0.99999998245E-14  0.12500000000E+03  0.12500000000E+03 0.  0.
        -13    1    3    3    0    0  0.44563109263E+02 -0.62641215066E+01 -0.50815865920E+00  0.45004214410E+02  0.10566000000E+00 0. -1.
         23    2    1    0    0    0  0.24687489025E+01 -0.15637268136E+02  0.25221393152E+02  0.95221861232E+02  0.90445924773E+02 0.  0.
         13    1    3    3    0    0 -0.42094360360E+02 -0.93731466296E+01  0.25729551812E+02  0.50217646822E+02  0.10566000000E+00 0.  1.
         22    1    1    0    0    0 -0.24687489025E+01  0.15637268136E+02 -0.25221393152E+02  0.29778138768E+02  0.00000000000E+00 0.  1.
</event>
<event>
 5    1  0.6978980E-004  0.9118800E+02  0.7818608E-02  0.1130116E+00
         25   -1    0    0    0    0  0.00000000000E+00  0.00000000000E+00  0.99999998245E-14  0.12500000000E+03  0.12500000000E+03 0.  0.
        -13    1    3    3    0    0 -0.14848231134E+02  0.33637279719E+01  0.41323955716E+02  0.44039358689E+02  0.10566000000E+00 0. -1.
         23    2    1    0    0    0  0.14458279119E+02  0.25922611543E+02  0.69839413623E+01  0.94507393335E+02  0.89453051003E+02 0.  0.
         13    1    3    3    0    0  0.29306510253E+02  0.22558883571E+02 -0.34340014354E+02  0.50468034646E+02  0.10566000000E+00 0.  1.
         22    1    1    0    0    0 -0.14458279119E+02 -0.25922611543E+02 -0.69839413623E+01  0.30492606665E+02  0.00000000000E+00 0.  1.
</event>
<event>
 5    1  0.6978980E-004  0.9118800E+02  0.7818608E-02  0.1130116E+00
         25   -1    0    0    0    0  0.00000000000E+00  0.00000000000E+00  0.99999998245E-14  0.12500000000E+03  0.12500000000E+03 0.  0.
        -13    1    3    3    0    0  0.12123060360E+02  0.34976872085E+02 -0.14003492120E+02  0.39578518529E+02  0.10566000000E+00 0.  1.
         23    2    1    0    0    0 -0.12764936970E+02 -0.20061879114E+02 -0.22561241089E+01  0.10111459221E+03  0.98252979863E+02 0.  0.
         13    1    3    3    0    0 -0.24887997330E+02 -0.55038751199E+02  0.11747368011E+02  0.61536073679E+02  0.10566000000E+00 0. -1.
         22    1    1    0    0    0  0.12764936970E+02  0.20061879114E+02  0.22561241089E+01  0.23885407792E+02  0.00000000000E+00 0. -1.
</event>
<event>
 5    1  0.6978980E-004  0.9118800E+02  0.7818608E-02  0.1130116E+00
         25   -1    0    0    0    0  0.00000000000E+00  0.00000000000E+00  0.99999998245E-14  0.12500000000E+03  0.12500000000E+03 0.  0.
        -13    1    3    3    0    0  0.33380165258E+02 -0.64716198839E+01 -0.55913990927E+01  0.34458557782E+02  0.10566000000E+00 0. -1.
         23    2    1    0    0    0 -0.27476078526E+02  0.45538569058E+01 -0.68526746115E+01  0.96318444024E+02  0.91948958700E+02 0.  0.
         13    1    3    3    0    0 -0.60856243784E+02  0.11025476790E+02 -0.12612755188E+01  0.61859886242E+02  0.10566000000E+00 0.  1.
         22    1    1    0    0    0  0.27476078526E+02 -0.45538569058E+01  0.68526746115E+01  0.28681555976E+02  0.00000000000E+00 0.  1.
</event>
<event>
 5    1  0.6978980E-004  0.9118800E+02  0.7818608E-02  0.1130116E+00
         25   -1    0    0    0    0  0.00000000000E+00  0.00000000000E+00  0.99999998245E-14  0.12500000000E+03  0.12500000000E+03 0.  0.
        -13    1    3    3    0    0 -0.25609728252E+02 -0.16039941314E+02 -0.14796092807E+02  0.33646298829E+02  0.10566000000E+00 0. -1.
         23    2    1    0    0    0  0.19999095831E+02  0.14814417166E+02  0.14680453973E+02  0.96104558856E+02  0.91657731338E+02 0.  0.
         13    1    3    3    0    0  0.45608824084E+02  0.30854358479E+02  0.29476546780E+02  0.62458260027E+02  0.10566000000E+00 0.  1.
         22    1    1    0    0    0 -0.19999095831E+02 -0.14814417166E+02 -0.14680453973E+02  0.28895441144E+02  0.00000000000E+00 0.  1.
</event>
<event>
 5    1  0.6978980E-004  0.9118800E+02  0.7818608E-02  0.1130116E+00
         25   -1    0    0    0    0  0.00000000000E+00  0.00000000000E+00  0.99999998245E-14  0.12500000000E+03  0.12500000000E+03 0.  0.
        -13    1    3    3    0    0  0.29430588197E+02 -0.32093363961E+02  0.10174646377E+01  0.43556743798E+02  0.10566000000E+00 0.  1.
         23    2    1    0    0    0  0.15261158925E+02  0.14534914544E+02  0.20084018272E+02  0.95887554165E+02  0.91361307682E+02 0.  0.
         13    1    3    3    0    0 -0.14169429272E+02  0.46628278504E+02  0.19066553635E+02  0.52330810368E+02  0.10566000000E+00 0. -1.
         22    1    1    0    0    0 -0.15261158925E+02 -0.14534914544E+02 -0.20084018272E+02  0.29112445835E+02  0.00000000000E+00 0. -1.
</event>
<event>
 5    1  0.6978980E-004  0.9118800E+02  0.7818608E-02  0.1130116E+00
         25   -1    0    0    0    0  0.00000000000E+00  0.00000000000E+00  0.99999998245E-14  0.12500000000E+03  0.12500000000E+03 0.  0.
        -13    1    3    3    0    0 -0.32656355141E+02 -0.16000815986E+02 -0.10457813507E+02  0.37839670594E+02  0.10566000000E+00 0. -1.
         23    2    1    0    0    0  0.15235216033E+02 -0.23273005219E+02  0.15872337483E+02  0.92973828254E+02  0.87283773197E+02 0.  0.
         13    1    3    3    0    0  0.47891571174E+02 -0.72721892339E+01  0.26330150989E+02  0.55134157660E+02  0.10566000000E+00 0.  1.
         22    1    1    0    0    0 -0.15235216033E+02  0.23273005219E+02 -0.15872337483E+02  0.32026171746E+02  0.00000000000E+00 0.  1.
</event>
<event>
 5    1  0.6978980E-004  0.9118800E+02  0.7818608E-02  0.1130116E+00
         25   -1    0    0    0    0  0.00000000000E+00  0.00000000000E+00  0.99999998245E-14  0.12500000000E+03  0.12500000000E+03 0.  0.
        -13    1    3    3    0    0  0.35753088069E+00 -0.56921308374E+02  0.13611798063E+02  0.58527390049E+02  0.10566000000E+00 0.  1.
         23    2    1    0    0    0 -0.10634612285E+02 -0.25730924812E+02 -0.53500711135E+01  0.96648655569E+02  0.92396774253E+02 0.  0.
         13    1    3    3    0    0 -0.10992143166E+02  0.31190383563E+02 -0.18961869177E+02  0.38121265520E+02  0.10566000000E+00 0. -1.
         22    1    1    0    0    0  0.10634612285E+02  0.25730924812E+02  0.53500711135E+01  0.28351344431E+02  0.00000000000E+00 0.  1.
</event>
<event>
 5    1  0.6978980E-004  0.9118800E+02  0.7818608E-02  0.1130116E+00
         25   -1    0    0    0    0  0.00000000000E+00  0.00000000000E+00  0.99999998245E-14  0.12500000000E+03  0.12500000000E+03 0.  0.
        -13    1    3    3    0    0  0.30805474224E+02 -0.26504758821E+02 -0.95670612360E+01  0.41749482716E+02  0.10566000000E+00 0.  1.
         23    2    1    0    0    0  0.86837276063E+01 -0.27256775414E+00  0.29792149594E+02  0.93966895164E+02  0.88694553333E+02 0.  0.
         13    1    3    3    0    0 -0.22121746617E+02  0.26232191067E+02  0.39359210830E+02  0.52217412448E+02  0.10566000000E+00 0. -1.
         22    1    1    0    0    0 -0.86837276063E+01  0.27256775414E+00 -0.29792149594E+02  0.31033104836E+02  0.00000000000E+00 0.  1.
</event>
<event>
 5    1  0.6978980E-004  0.9118800E+02  0.7818608E-02  0.1130116E+00
         25   -1    0    0    0    0  0.00000000000E+00  0.00000000000E+00  0.99999998245E-14  0.12500000000E+03  0.12500000000E+03 0.  0.
        -13    1    3    3    0    0 -0.92323042748E+01 -0.30390376691E+02  0.39231961177E+02  0.50477404643E+02  0.10566000000E+00 0.  1.
         23    2    1    0    0    0  0.22901420519E+02 -0.13137215173E+02  0.11977941409E+02  0.96008060350E+02  0.91526035025E+02 0.  0.
         13    1    3    3    0    0  0.32133724794E+02  0.17253161518E+02 -0.27254019769E+02  0.45530655707E+02  0.10566000000E+00 0. -1.
         22    1    1    0    0    0 -0.22901420519E+02  0.13137215173E+02 -0.11977941409E+02  0.28991939650E+02  0.00000000000E+00 0. -1.
</event>
<event>
 5    1  0.6978980E-004  0.9118800E+02  0.7818608E-02  0.1130116E+00
         25   -1    0    0    0    0  0.00000000000E+00  0.00000000000E+00  0.99999998245E-14  0.12500000000E+03  0.12500000000E+03 0.  0.
        -13    1    3    3    0    0  0.55007077233E+02 -0.75859126882E+01  0.25862630393E+02  0.61255297174E+02  0.10566000000E+00 0.  1.
         23    2    1    0    0    0  0.24540907414E+02  0.49636215711E+01  0.14246775505E+02  0.96192634829E+02  0.91777768045E+02 0.  0.
         13    1    3    3    0    0 -0.30466169819E+02  0.12549534259E+02 -0.11615854888E+02  0.34937337655E+02  0.10566000000E+00 0. -1.
         22    1    1    0    0    0 -0.24540907414E+02 -0.49636215711E+01 -0.14246775505E+02  0.28807365171E+02  0.00000000000E+00 0.  1.
</event>
<event>
 5    1  0.6978980E-004  0.9118800E+02  0.7818608E-02  0.1130116E+00
         25   -1    0    0    0    0  0.00000000000E+00  0.00000000000E+00  0.99999998245E-14  0.12500000000E+03  0.12500000000E+03 0.  0.
        -13    1    3    3    0    0  0.24659988125E+02 -0.43449745075E+02 -0.27755029634E+02  0.57151974554E+02  0.10566000000E+00 0. -1.
         23    2    1    0    0    0  0.18418751328E+02 -0.60919027827E+01 -0.22338946360E+02  0.95413006161E+02  0.90709710286E+02 0.  0.
         13    1    3    3    0    0 -0.62412367971E+01  0.37357842293E+02  0.54160832741E+01  0.38261031607E+02  0.10566000000E+00 0.  1.
         22    1    1    0    0    0 -0.18418751328E+02  0.60919027827E+01  0.22338946360E+02  0.29586993839E+02  0.00000000000E+00 0. -1.
</event>
<event>
 5    1  0.6978980E-004  0.9118800E+02  0.7818608E-02  0.1130116E+00
         25   -1    0    0    0    0  0.00000000000E+00  0.00000000000E+00  0.99999998245E-14  0.12500000000E+03  0.12500000000E+03 0.  0.
        -13    1    3    3    0    0 -0.29566107038E+02 -0.26496332314E+02  0.83504287543E+01  0.40570323340E+02  0.10566000000E+00 0.  1.
         23    2    1    0    0    0  0.20765652730E+02 -0.68259194662E+01  0.19453610990E+02  0.95738276018E+02  0.91156837399E+02 0.  0.
         13    1    3    3    0    0  0.50331759767E+02  0.19670412848E+02  0.11103182236E+02  0.55167952678E+02  0.10566000000E+00 0. -1.
         22    1    1    0    0    0 -0.20765652730E+02  0.68259194662E+01 -0.19453610990E+02  0.29261723982E+02  0.00000000000E+00 0. -1.
</event>
<event>
 5    1  0.6978980E-004  0.9118800E+02  0.7818608E-02  0.1130116E+00
         25   -1    0    0    0    0  0.00000000000E+00  0.00000000000E+00  0.99999998245E-14  0.12500000000E+03  0.12500000000E+03 0.  0.
        -13    1    3    3    0    0  0.36764056129E+02 -0.36096997463E+02 -0.21393187825E+02  0.55787710997E+02  0.10566000000E+00 0. -1.
         23    2    1    0    0    0  0.67390507493E+01 -0.90825704749E+01 -0.26201187372E+02  0.96462128475E+02  0.92144083472E+02 0.  0.
         13    1    3    3    0    0 -0.30025005380E+02  0.27014426988E+02 -0.48079995474E+01  0.40674417479E+02  0.10566000000E+00 0.  1.
         22    1    1    0    0    0 -0.67390507493E+01  0.90825704749E+01  0.26201187372E+02  0.28537871525E+02  0.00000000000E+00 0.  1.
</event>
<event>
 5    1  0.6978980E-004  0.9118800E+02  0.7818608E-02  0.1130116E+00
         25   -1    0    0    0    0  0.00000000000E+00  0.00000000000E+00  0.99999998245E-14  0.12500000000E+03  0.12500000000E+03 0.  0.
        -13    1    3    3    0    0  0.13665171327E+02  0.41159897512E+02  0.21828935338E+02  0.48552936601E+02  0.10566000000E+00 0. -1.
         23    2    1    0    0    0  0.26208928944E+02 -0.25978264279E+01  0.15305599011E+02  0.94538253175E+02  0.89496163571E+02 0.  0.
         13    1    3    3    0    0  0.12543757617E+02 -0.43757723940E+02 -0.65233363272E+01  0.45985316574E+02  0.10566000000E+00 0.  1.
         22    1    1    0    0    0 -0.26208928944E+02  0.25978264279E+01 -0.15305599011E+02  0.30461746825E+02  0.00000000000E+00 0. -1.
</event>
<event>
 5    1  0.6978980E-004  0.9118800E+02  0.7818608E-02  0.1130116E+00
         25   -1    0    0    0    0  0.00000000000E+00  0.00000000000E+00  0.99999998245E-14  0.12500000000E+03  0.12500000000E+03 0.  0.
        -13    1    3    3    0    0 -0.34440763848E+02  0.31921482770E+02  0.35336977535E+02  0.58769553529E+02  0.10566000000E+00 0. -1.
         23    2    1    0    0    0 -0.18945298343E+02  0.23241278215E+02  0.40547239529E+01  0.94742403785E+02  0.89780849552E+02 0.  0.
         13    1    3    3    0    0  0.15495465506E+02 -0.86802045546E+01 -0.31282253582E+02  0.35972850256E+02  0.10566000000E+00 0.  1.
         22    1    1    0    0    0  0.18945298343E+02 -0.23241278215E+02 -0.40547239529E+01  0.30257596215E+02  0.00000000000E+00 0. -1.
</event>
<event>
 5    1  0.6978980E-004  0.9118800E+02  0.7818608E-02  0.1130116E+00
         25   -1    0    0    0    0  0.00000000000E+00  0.00000000000E+00  0.99999998245E-14  0.12500000000E+03  0.12500000000E+03 0.  0.
        -13    1    3    3    0    0  0.40255715359E+02  0.14775905399E+01 -0.90424983483E+01  0.41285394915E+02  0.10566000000E+00 0.  1.
         23    2    1    0    0    0 -0.11553737318E+02  0.19030715886E+02 -0.17557504157E+02  0.96646465029E+02  0.92393810708E+02 0.  0.
         13    1    3    3    0    0 -0.51809452678E+02  0.17553125346E+02 -0.85150058084E+01  0.55361070114E+02  0.10566000000E+00 0. -1.
         22    1    1    0    0    0  0.11553737318E+02 -0.19030715886E+02  0.17557504157E+02  0.28353534971E+02  0.00000000000E+00 0.  1.
</event>
<event>
 5    1  0.6978980E-004  0.9118800E+02  0.7818608E-02  0.1130116E+00
         25   -1    0    0    0    0  0.00000000000E+00  0.00000000000E+00  0.99999998245E-14  0.12500000000E+03  0.12500000000E+03 0.  0.
        -13    1    3    3    0    0  0.38011434534E+02  0.47353321139E+02  0.69180991369E+01  0.61115279905E+02  0.10566000000E+00 0. -1.
         23    2    1    0    0    0  0.16961710699E+02  0.23686828012E+02 -0.58841199777E+01  0.95278150814E+02  0.90523685871E+02 0.  0.
         13    1    3    3    0    0 -0.21049723835E+02 -0.23666493127E+02 -0.12802219115E+02  0.34162870909E+02  0.10566000000E+00 0.  1.
         22    1    1    0    0    0 -0.16961710699E+02 -0.23686828012E+02  0.58841199777E+01  0.29721849186E+02  0.00000000000E+00 0. -1.
</event>
<event>
 5    1  0.6978980E-004  0.9118800E+02  0.7818608E-02  0.1130116E+00
         25   -1    0    0    0    0  0.00000000000E+00  0.00000000000E+00  0.99999998245E-14  0.12500000000E+03  0.12500000000E+03 0.  0.
        -13    1    3    3    0    0 -0.13706041778E+02  0.29559013687E+02  0.26344212748E+02  0.41900114328E+02  0.10566000000E+00 0.  1.
         23    2    1    0    0    0 -0.21230299317E+02 -0.18670594907E+02  0.14599587921E+01  0.96690139475E+02  0.92452879180E+02 0.  0.
         13    1    3    3    0    0 -0.75242575389E+01 -0.48229608594E+02 -0.24884253956E+02  0.54790025147E+02  0.10566000000E+00 0. -1.
         22    1    1    0    0    0  0.21230299317E+02  0.18670594907E+02 -0.14599587921E+01  0.28309860525E+02  0.00000000000E+00 0.  1.
</event>
<event>
 5    1  0.6978980E-004  0.9118800E+02  0.7818608E-02  0.1130116E+00
         25   -1    0    0    0    0  0.00000000000E+00  0.00000000000E+00  0.99999998245E-14  0.12500000000E+03  0.12500000000E+03 0.  0.
        -13    1    3    3    0    0  0.85273661538E+01 -0.23413111682E+02  0.37587432633E+02  0.45096740771E+02  0.10566000000E+00 0. -1.
         23    2    1    0    0    0 -0.82332344734E+01  0.19881837690E+02  0.22386300709E+02  0.93948106671E+02  0.88668070171E+02 0.  0.
         13    1    3    3    0    0 -0.16760600627E+02  0.43294949372E+02 -0.15201131924E+02  0.48851365900E+02  0.10566000000E+00 0.  1.
         22    1    1    0    0    0  0.82332344734E+01 -0.19881837690E+02 -0.22386300709E+02  0.31051893329E+02  0.00000000000E+00 0.  1.
</event>
<event>
 5    1  0.6978980E-004  0.9118800E+02  0.7818608E-02  0.1130116E+00
         25   -1    0    0    0    0  0.00000000000E+00  0.00000000000E+00  0.99999998245E-14  0.12500000000E+03  0.12500000000E+03 0.  0.
        -13    1    3    3    0    0  0.70945958674E+01 -0.38075277046E+02 -0.43508642098E+02  0.58250091107E+02  0.10566000000E+00 0. -1.
         23    2    1    0    0    0 -0.55200969667E+01 -0.61791487366E+01 -0.27828038493E+02  0.95964623716E+02  0.91466693003E+02 0.  0.
         13    1    3    3    0    0 -0.12614692834E+02  0.31896128309E+02  0.15680603606E+02  0.37714532609E+02  0.10566000000E+00 0.  1.
         22    1    1    0    0    0  0.55200969667E+01  0.61791487366E+01  0.27828038493E+02  0.29035376284E+02  0.00000000000E+00 0. -1.
</event>
<event>
 5    1  0.6978980E-004  0.9118800E+02  0.7818608E-02  0.1130116E+00
         25   -1    0    0    0    0  0.00000000000E+00  0.00000000000E+00  0.99999998245E-14  0.12500000000E+03  0.12500000000E+03 0.  0.
        -13    1    3    3    0    0 -0.65747839677E+01 -0.72867986390E+01  0.32858987370E+02  0.34293577149E+02  0.10566000000E+00 0. -1.
         23    2    1    0    0    0  0.18354443205E+02  0.83336400762E+01 -0.21142138659E+02  0.95788270005E+02  0.91225366544E+02 0.  0.
         13    1    3    3    0    0  0.24929227172E+02  0.15620438715E+02 -0.54001126029E+02  0.61494692856E+02  0.10566000000E+00 0.  1.
         22    1    1    0    0    0 -0.18354443205E+02 -0.83336400762E+01  0.21142138659E+02  0.29211729995E+02  0.00000000000E+00 0.  1.
</event>
<event>
 5    1  0.6978980E-004  0.9118800E+02  0.7818608E-02  0.1130116E+00
         25   -1    0    0    0    0  0.00000000000E+00  0.00000000000E+00  0.99999998245E-14  0.12500000000E+03  0.12500000000E+03 0.  0.
        -13    1    3    3    0    0  0.34286224316E+02  0.14322875032E+02 -0.18897826264E+02  0.41687275379E+02  0.10566000000E+00 0.  1.
         23    2    1    0    0    0  0.65692938035E+01  0.85534368135E+00  0.27126946899E+02  0.97075844114E+02  0.92972904808E+02 0.  0.
         13    1    3    3    0    0 -0.27716930512E+02 -0.13467531350E+02  0.46024773163E+02  0.55388568734E+02  0.10566000000E+00 0. -1.
         22    1    1    0    0    0 -0.65692938035E+01 -0.85534368135E+00 -0.27126946899E+02  0.27924155886E+02  0.00000000000E+00 0.  1.
</event>
<event>
 5    1  0.6978980E-004  0.9118800E+02  0.7818608E-02  0.1130116E+00
         25   -1    0    0    0    0  0.00000000000E+00  0.00000000000E+00  0.99999998245E-14  0.12500000000E+03  0.12500000000E+03 0.  0.
        -13    1    3    3    0    0  0.51973032217E+02  0.16133386927E+02  0.99962057424E+01  0.55330078121E+02  0.10566000000E+00 0. -1.
         23    2    1    0    0    0  0.14197703329E+02  0.10510519501E+02 -0.15704144991E+02  0.10136388420E+03  0.98569625398E+02 0.  0.
         13    1    3    3    0    0 -0.37775328888E+02 -0.56228674262E+01 -0.25700350734E+02  0.46033806084E+02  0.10566000000E+00 0.  1.
         22    1    1    0    0    0 -0.14197703329E+02 -0.10510519501E+02  0.15704144991E+02  0.23636115795E+02  0.00000000000E+00 0. -1.
</event>
<event>
 5    1  0.6978980E-004  0.9118800E+02  0.7818608E-02  0.1130116E+00
         25   -1    0    0    0    0  0.00000000000E+00  0.00000000000E+00  0.99999998245E-14  0.12500000000E+03  0.12500000000E+03 0.  0.
        -13    1    3    3    0    0  0.14551062882E+02 -0.49173605259E+02 -0.26048735899E+02  0.57518037963E+02  0.10566000000E+00 0. -1.
         23    2    1    0    0    0  0.71600460259E+01 -0.11774460168E+02 -0.25924017175E+02  0.95640864492E+02  0.91023162563E+02 0.  0.
         13    1    3    3    0    0 -0.73910168563E+01  0.37399145091E+02  0.12471872465E+00  0.38122826529E+02  0.10566000000E+00 0.  1.
         22    1    1    0    0    0 -0.71600460259E+01  0.11774460168E+02  0.25924017175E+02  0.29359135508E+02  0.00000000000E+00 0. -1.
</event>
<event>
 5    1  0.6978980E-004  0.9118800E+02  0.7818608E-02  0.1130116E+00
         25   -1    0    0    0    0  0.00000000000E+00  0.00000000000E+00  0.99999998245E-14  0.12500000000E+03  0.12500000000E+03 0.  0.
        -13    1    3    3    0    0  0.50394107218E+01 -0.38262425949E+02 -0.10134721777E+02  0.39901536931E+02  0.10566000000E+00 0. -1.
         23    2    1    0    0    0 -0.12955354914E+02  0.15994371614E+02 -0.18067067004E+02  0.97612410577E+02  0.93691529202E+02 0.  0.
         13    1    3    3    0    0 -0.17994765635E+02  0.54256797563E+02 -0.79323452275E+01  0.57710873646E+02  0.10566000000E+00 0.  1.
         22    1    1    0    0    0  0.12955354914E+02 -0.15994371614E+02  0.18067067004E+02  0.27387589423E+02  0.00000000000E+00 0.  1.
</event>
<event>
 5    1  0.6978980E-004  0.9118800E+02  0.7818608E-02  0.1130116E+00
         25   -1    0    0    0    0  0.00000000000E+00  0.00000000000E+00  0.99999998245E-14  0.12500000000E+03  0.12500000000E+03 0.  0.
        -13    1    3    3    0    0 -0.21482707772E+02 -0.30411829006E+02 -0.15206520284E+02  0.40219839631E+02  0.10566000000E+00 0. -1.
         23    2    1    0    0    0  0.21112179506E+01  0.19289687873E+02 -0.22011117781E+02  0.95656540670E+02  0.91044687751E+02 0.  0.
         13    1    3    3    0    0  0.23593925723E+02  0.49701516879E+02 -0.68045974970E+01  0.55436701040E+02  0.10566000000E+00 0.  1.
         22    1    1    0    0    0 -0.21112179506E+01 -0.19289687873E+02  0.22011117781E+02  0.29343459330E+02  0.00000000000E+00 0.  1.
</event>
<event>
 5    1  0.6978980E-004  0.9118800E+02  0.7818608E-02  0.1130116E+00
         25   -1    0    0    0    0  0.00000000000E+00  0.00000000000E+00  0.99999998245E-14  0.12500000000E+03  0.12500000000E+03 0.  0.
        -13    1    3    3    0    0 -0.26384868523E+02  0.25907463435E+02  0.26071382053E+02  0.45244735327E+02  0.10566000000E+00 0.  1.
         23    2    1    0    0    0 -0.17474235140E+02  0.79639167013E+01 -0.21085111586E+02  0.96480624243E+02  0.92169170881E+02 0.  0.
         13    1    3    3    0    0  0.89106333836E+01 -0.17943546734E+02 -0.47156493639E+02  0.51235888916E+02  0.10566000000E+00 0. -1.
         22    1    1    0    0    0  0.17474235140E+02 -0.79639167013E+01  0.21085111586E+02  0.28519375757E+02  0.00000000000E+00 0. -1.
</event>
<event>
 5    1  0.6978980E-004  0.9118800E+02  0.7818608E-02  0.1130116E+00
         25   -1    0    0    0    0  0.00000000000E+00  0.00000000000E+00  0.99999998245E-14  0.12500000000E+03  0.12500000000E+03 0.  0.
        -13    1    3    3    0    0 -0.17567558306E+02  0.40710906890E+02  0.33097449169E+02  0.55330365534E+02  0.10566000000E+00 0.  1.
         23    2    1    0    0    0 -0.22134297806E+02  0.33546096331E+01  0.19389166518E+02  0.95383782763E+02  0.90669430851E+02 0.  0.
         13    1    3    3    0    0 -0.45667395001E+01 -0.37356297257E+02 -0.13708282651E+02  0.40053417229E+02  0.10566000000E+00 0. -1.
         22    1    1    0    0    0  0.22134297806E+02 -0.33546096331E+01 -0.19389166518E+02  0.29616217237E+02  0.00000000000E+00 0.  1.
</event>
<event>
 5    1  0.6978980E-004  0.9118800E+02  0.7818608E-02  0.1130116E+00
         25   -1    0    0    0    0  0.00000000000E+00  0.00000000000E+00  0.99999998245E-14  0.12500000000E+03  0.12500000000E+03 0.  0.
        -13    1    3    3    0    0  0.35143070300E+02  0.75368752965E+01 -0.21252546831E+01  0.36005107288E+02  0.10566000000E+00 0. -1.
         23    2    1    0    0    0 -0.22054674856E+02 -0.55820250580E+01 -0.17066075887E+02  0.96560263135E+02  0.92277114085E+02 0.  0.
         13    1    3    3    0    0 -0.57197745156E+02 -0.13118900355E+02 -0.14940821204E+02  0.60555155847E+02  0.10566000000E+00 0.  1.
         22    1    1    0    0    0  0.22054674856E+02  0.55820250580E+01  0.17066075887E+02  0.28439736865E+02  0.00000000000E+00 0.  1.
</event>
<event>
 5    1  0.6978980E-004  0.9118800E+02  0.7818608E-02  0.1130116E+00
         25   -1    0    0    0    0  0.00000000000E+00  0.00000000000E+00  0.99999998245E-14  0.12500000000E+03  0.12500000000E+03 0.  0.
        -13    1    3    3    0    0  0.19884674998E+02 -0.72118854554E+01  0.28181932774E+02  0.35236970507E+02  0.10566000000E+00 0.  1.
         23    2    1    0    0    0 -0.30135012887E+01 -0.10108536859E+02 -0.27517961336E+02  0.95529643648E+02  0.90870297193E+02 0.  0.
         13    1    3    3    0    0 -0.22898176286E+02 -0.28966514032E+01 -0.55699894110E+02  0.60292673141E+02  0.10566000000E+00 0. -1.
         22    1    1    0    0    0  0.30135012887E+01  0.10108536859E+02  0.27517961336E+02  0.29470356352E+02  0.00000000000E+00 0. -1.
</event>
<event>
 5    1  0.6978980E-004  0.9118800E+02  0.7818608E-02  0.1130116E+00
         25   -1    0    0    0    0  0.00000000000E+00  0.00000000000E+00  0.99999998245E-14  0.12500000000E+03  0.12500000000E+03 0.  0.
        -13    1    3    3    0    0 -0.26157783062E+02 -0.21679994125E+02  0.38908616477E+02  0.51654073994E+02  0.10566000000E+00 0.  1.
         23    2    1    0    0    0 -0.26481063358E+02  0.70887318200E+01  0.33678399940E+01  0.97380456528E+02  0.93381551347E+02 0.  0.
         13    1    3    3    0    0 -0.32328029591E+00  0.28768725945E+02 -0.35540776483E+02  0.45726382534E+02  0.10566000000E+00 0. -1.
         22    1    1    0    0    0  0.26481063358E+02 -0.70887318200E+01 -0.33678399940E+01  0.27619543472E+02  0.00000000000E+00 0. -1.
</event>
<event>
 5    1  0.6978980E-004  0.9118800E+02  0.7818608E-02  0.1130116E+00
         25   -1    0    0    0    0  0.00000000000E+00  0.00000000000E+00  0.99999998245E-14  0.12500000000E+03  0.12500000000E+03 0.  0.
        -13    1    3    3    0    0 -0.44679674882E+02 -0.19224338420E+01 -0.85956596140E+01  0.45539714839E+02  0.10566000000E+00 0.  1.
         23    2    1    0    0    0  0.15680188022E+01  0.91161089630E+01 -0.26950362811E+02  0.96506418596E+02  0.92204146593E+02 0.  0.
         13    1    3    3    0    0  0.46247693684E+02  0.11038542805E+02 -0.18354703197E+02  0.50966703757E+02  0.10566000000E+00 0. -1.
         22    1    1    0    0    0 -0.15680188022E+01 -0.91161089630E+01  0.26950362811E+02  0.28493581404E+02  0.00000000000E+00 0.  1.
</event>
<event>
 5    1  0.6978980E-004  0.9118800E+02  0.7818608E-02  0.1130116E+00
         25   -1    0    0    0    0  0.00000000000E+00  0.00000000000E+00  0.99999998245E-14  0.12500000000E+03  0.12500000000E+03 0.  0.
        -13    1    3    3    0    0  0.57675547763E+01  0.12217673631E+02  0.59628950106E+02  0.61140486520E+02  0.10566000000E+00 0. -1.
         23    2    1    0    0    0 -0.47724612618E+01  0.10999894694E+02  0.26843189291E+02  0.95600495224E+02  0.90967707490E+02 0.  0.
         13    1    3    3    0    0 -0.10540016038E+02 -0.12177789373E+01 -0.32785760815E+02  0.34460008704E+02  0.10566000000E+00 0.  1.
         22    1    1    0    0    0  0.47724612618E+01 -0.10999894694E+02 -0.26843189291E+02  0.29399504776E+02  0.00000000000E+00 0. -1.
</event>
<event>
 5    1  0.6978980E-004  0.9118800E+02  0.7818608E-02  0.1130116E+00
         25   -1    0    0    0    0  0.00000000000E+00  0.00000000000E+00  0.99999998245E-14  0.12500000000E+03  0.12500000000E+03 0.  0.
        -13    1    3    3    0    0 -0.22940089143E+01  0.42889341029E+02  0.16057877235E+02  0.45854385135E+02  0.10566000000E+00 0. -1.
         23    2    1    0    0    0 -0.35451788722E+01 -0.63364816129E+01  0.27625148131E+02  0.96436595061E+02  0.92109439067E+02 0.  0.
         13    1    3    3    0    0 -0.12511699579E+01 -0.49225822641E+02  0.11567270895E+02  0.50582209926E+02  0.10566000000E+00 0.  1.
         22    1    1    0    0    0  0.35451788722E+01  0.63364816129E+01 -0.27625148131E+02  0.28563404939E+02  0.00000000000E+00 0.  1.
</event>
<event>
 5    1  0.6978980E-004  0.9118800E+02  0.7818608E-02  0.1130116E+00
         25   -1    0    0    0    0  0.00000000000E+00  0.00000000000E+00  0.99999998245E-14  0.12500000000E+03  0.12500000000E+03 0.  0.
        -13    1    3    3    0    0  0.95740602152E+01  0.80978162225E+01  0.33223865927E+02  0.35511599341E+02  0.10566000000E+00 0. -1.
         23    2    1    0    0    0 -0.21925903560E+02 -0.19229966232E+02 -0.86211915712E+01  0.94588459554E+02  0.89566259767E+02 0.  0.
         13    1    3    3    0    0 -0.31499963775E+02 -0.27327782454E+02 -0.41845057498E+02  0.59076860214E+02  0.10566000000E+00 0.  1.
         22    1    1    0    0    0  0.21925903560E+02  0.19229966232E+02  0.86211915712E+01  0.30411540446E+02  0.00000000000E+00 0.  1.
</event>
<event>
 5    1  0.6978980E-004  0.9118800E+02  0.7818608E-02  0.1130116E+00
         25   -1    0    0    0    0  0.00000000000E+00  0.00000000000E+00  0.99999998245E-14  0.12500000000E+03  0.12500000000E+03 0.  0.
        -13    1    3    3    0    0 -0.72513194103E+01  0.15128993609E+01  0.34124968530E+02  0.34919838758E+02  0.10566000000E+00 0. -1.
         23    2    1    0    0    0  0.16849801611E+02  0.11589173538E+02 -0.20855586433E+02  0.95790750727E+02  0.91228765648E+02 0.  0.
         13    1    3    3    0    0  0.24101121021E+02  0.10076274178E+02 -0.54980554963E+02  0.60870911969E+02  0.10566000000E+00 0.  1.
         22    1    1    0    0    0 -0.16849801611E+02 -0.11589173538E+02  0.20855586433E+02  0.29209249273E+02  0.00000000000E+00 0.  1.
</event>
<event>
 5    1  0.6978980E-004  0.9118800E+02  0.7818608E-02  0.1130116E+00
         25   -1    0    0    0    0  0.00000000000E+00  0.00000000000E+00  0.99999998245E-14  0.12500000000E+03  0.12500000000E+03 0.  0.
        -13    1    3    3    0    0  0.21582571724E+02  0.10187335110E+02 -0.54890937654E+02  0.59854953007E+02  0.10566000000E+00 0. -1.
         23    2    1    0    0    0  0.14155797500E+02  0.13918008219E+02 -0.16350179923E+02  0.99281797513E+02  0.95892905777E+02 0.  0.
         13    1    3    3    0    0 -0.74267742246E+01  0.37306731096E+01  0.38540757731E+02  0.39426844506E+02  0.10566000000E+00 0.  1.
         22    1    1    0    0    0 -0.14155797500E+02 -0.13918008219E+02  0.16350179923E+02  0.25718202487E+02  0.00000000000E+00 0. -1.
</event>
<event>
 5    1  0.6978980E-004  0.9118800E+02  0.7818608E-02  0.1130116E+00
         25   -1    0    0    0    0  0.00000000000E+00  0.00000000000E+00  0.99999998245E-14  0.12500000000E+03  0.12500000000E+03 0.  0.
        -13    1    3    3    0    0  0.11739166214E+02  0.36763570272E+02 -0.10888158667E+02  0.40099018514E+02  0.10566000000E+00 0.  1.
         23    2    1    0    0    0  0.23759952754E+02 -0.16535591993E+02 -0.86697209010E+01  0.94782038157E+02  0.89836014712E+02 0.  0.
         13    1    3    3    0    0  0.12020786540E+02 -0.53299162265E+02  0.22184377661E+01  0.54683019644E+02  0.10566000000E+00 0. -1.
         22    1    1    0    0    0 -0.23759952754E+02  0.16535591993E+02  0.86697209010E+01  0.30217961843E+02  0.00000000000E+00 0. -1.
</event>
<event>
 5    1  0.6978980E-004  0.9118800E+02  0.7818608E-02  0.1130116E+00
         25   -1    0    0    0    0  0.00000000000E+00  0.00000000000E+00  0.99999998245E-14  0.12500000000E+03  0.12500000000E+03 0.  0.
        -13    1    3    3    0    0  0.28629314774E+02  0.32257503349E+02 -0.25478257952E+02  0.50093282774E+02  0.10566000000E+00 0.  1.
         23    2    1    0    0    0 -0.13892693689E+02  0.16269827728E+02 -0.19753616236E+02  0.95880941179E+02  0.91352259385E+02 0.  0.
         13    1    3    3    0    0 -0.42522008462E+02 -0.15987675622E+02  0.57246417161E+01  0.45787658406E+02  0.10566000000E+00 0. -1.
         22    1    1    0    0    0  0.13892693689E+02 -0.16269827728E+02  0.19753616236E+02  0.29119058821E+02  0.00000000000E+00 0. -1.
</event>
<event>
 5    1  0.6978980E-004  0.9118800E+02  0.7818608E-02  0.1130116E+00
         25   -1    0    0    0    0  0.00000000000E+00  0.00000000000E+00  0.99999998245E-14  0.12500000000E+03  0.12500000000E+03 0.  0.
        -13    1    3    3    0    0 -0.11666479527E+02 -0.12320692296E+02  0.31746146205E+02  0.35996321563E+02  0.10566000000E+00 0.  1.
         23    2    1    0    0    0  0.23602109012E+02  0.12789971040E+02 -0.10204254648E+02  0.96281195673E+02  0.91898307484E+02 0.  0.
         13    1    3    3    0    0  0.35268588539E+02  0.25110663337E+02 -0.41950400853E+02  0.60284874110E+02  0.10566000000E+00 0. -1.
         22    1    1    0    0    0 -0.23602109012E+02 -0.12789971040E+02  0.10204254648E+02  0.28718804327E+02  0.00000000000E+00 0. -1.
</event>
<event>
 5    1  0.6978980E-004  0.9118800E+02  0.7818608E-02  0.1130116E+00
         25   -1    0    0    0    0  0.00000000000E+00  0.00000000000E+00  0.99999998245E-14  0.12500000000E+03  0.12500000000E+03 0.  0.
        -13    1    3    3    0    0  0.36822289270E+02  0.18723008880E+02 -0.21150817563E+02  0.46409054033E+02  0.10566000000E+00 0.  1.
         23    2    1    0    0    0 -0.23653441558E+00 -0.82523280201E+01 -0.30682119155E+02  0.93226594421E+02  0.87645014720E+02 0.  0.
         13    1    3    3    0    0 -0.37058823686E+02 -0.26975336900E+02 -0.95313015915E+01  0.46817540387E+02  0.10566000000E+00 0. -1.
         22    1    1    0    0    0  0.23653441558E+00  0.82523280201E+01  0.30682119155E+02  0.31773405579E+02  0.00000000000E+00 0. -1.
</event>
<event>
 5    1  0.6978980E-004  0.9118800E+02  0.7818608E-02  0.1130116E+00
         25   -1    0    0    0    0  0.00000000000E+00  0.00000000000E+00  0.99999998245E-14  0.12500000000E+03  0.12500000000E+03 0.  0.
        -13    1    3    3    0    0 -0.31708884271E+02  0.33259578513E+02  0.19299142373E+02  0.49840956702E+02  0.10566000000E+00 0. -1.
         23    2    1    0    0    0 -0.18628352619E+02 -0.82285311969E+01  0.23917764181E+02  0.93586886649E+02  0.88157368735E+02 0.  0.
         13    1    3    3    0    0  0.13080531652E+02 -0.41488109709E+02  0.46186218079E+01  0.43745929948E+02  0.10566000000E+00 0.  1.
         22    1    1    0    0    0  0.18628352619E+02  0.82285311969E+01 -0.23917764181E+02  0.31413113351E+02  0.00000000000E+00 0.  1.
</event>
<event>
 5    1  0.6978980E-004  0.9118800E+02  0.7818608E-02  0.1130116E+00
         25   -1    0    0    0    0  0.00000000000E+00  0.00000000000E+00  0.99999998245E-14  0.12500000000E+03  0.12500000000E+03 0.  0.
        -13    1    3    3    0    0 -0.25630055972E+02 -0.19942626606E+02 -0.44658265998E+02  0.55217569768E+02  0.10566000000E+00 0. -1.
         23    2    1    0    0    0  0.28937035717E+01 -0.69042693897E+00 -0.33461681475E+02  0.91406334870E+02  0.85009315475E+02 0.  0.
         13    1    3    3    0    0  0.28523759544E+02  0.19252199667E+02  0.11196584523E+02  0.36188765102E+02  0.10566000000E+00 0.  1.
         22    1    1    0    0    0 -0.28937035717E+01  0.69042693897E+00  0.33461681475E+02  0.33593665130E+02  0.00000000000E+00 0. -1.
</event>
<event>
 5    1  0.6978980E-004  0.9118800E+02  0.7818608E-02  0.1130116E+00
         25   -1    0    0    0    0  0.00000000000E+00  0.00000000000E+00  0.99999998245E-14  0.12500000000E+03  0.12500000000E+03 0.  0.
        -13    1    3    3    0    0 -0.38797769465E+02  0.21201545904E+02 -0.32860292385E+02  0.55087044247E+02  0.10566000000E+00 0.  1.
         23    2    1    0    0    0 -0.39388300973E+01  0.26102473328E+02 -0.16148250134E+02  0.94054572571E+02  0.88818033883E+02 0.  0.
         13    1    3    3    0    0  0.34858939368E+02  0.49009274234E+01  0.16712042250E+02  0.38967528324E+02  0.10566000000E+00 0. -1.
         22    1    1    0    0    0  0.39388300973E+01 -0.26102473328E+02  0.16148250134E+02  0.30945427429E+02  0.00000000000E+00 0.  1.
</event>
<event>
 5    1  0.6978980E-004  0.9118800E+02  0.7818608E-02  0.1130116E+00
         25   -1    0    0    0    0  0.00000000000E+00  0.00000000000E+00  0.99999998245E-14  0.12500000000E+03  0.12500000000E+03 0.  0.
        -13    1    3    3    0    0 -0.25009432674E+02  0.27691959287E+02 -0.77470678404E+01  0.38109638623E+02  0.10566000000E+00 0.  1.
         23    2    1    0    0    0  0.26317266190E+02  0.59838605870E+01  0.94068565266E+01  0.96418641793E+02  0.92085071799E+02 0.  0.
         13    1    3    3    0    0  0.51326698864E+02 -0.21708098700E+02  0.17153924367E+02  0.58309003170E+02  0.10566000000E+00 0. -1.
         22    1    1    0    0    0 -0.26317266190E+02 -0.59838605870E+01 -0.94068565266E+01  0.28581358207E+02  0.00000000000E+00 0. -1.
</event>
<event>
 5    1  0.6978980E-004  0.9118800E+02  0.7818608E-02  0.1130116E+00
         25   -1    0    0    0    0  0.00000000000E+00  0.00000000000E+00  0.99999998245E-14  0.12500000000E+03  0.12500000000E+03 0.  0.
        -13    1    3    3    0    0  0.73398386342E+01 -0.35697528592E+02  0.32801056123E+02  0.49031696132E+02  0.10566000000E+00 0. -1.
         23    2    1    0    0    0  0.26387250000E+02  0.11610399749E+01  0.78518028961E+01  0.97444859189E+02  0.93467720617E+02 0.  0.
         13    1    3    3    0    0  0.19047411366E+02  0.36858568567E+02 -0.24949253227E+02  0.48413163057E+02  0.10566000000E+00 0.  1.
         22    1    1    0    0    0 -0.26387250000E+02 -0.11610399749E+01 -0.78518028961E+01  0.27555140811E+02  0.00000000000E+00 0.  1.
</event>
<event>
 5    1  0.6978980E-004  0.9118800E+02  0.7818608E-02  0.1130116E+00
         25   -1    0    0    0    0  0.00000000000E+00  0.00000000000E+00  0.99999998245E-14  0.12500000000E+03  0.12500000000E+03 0.  0.
        -13    1    3    3    0    0  0.26961814219E+02 -0.46513067650E+02  0.74550368159E+01  0.54277008265E+02  0.10566000000E+00 0.  1.
         23    2    1    0    0    0  0.23796511687E+02 -0.96948019548E+01  0.19056085277E+02  0.93009414830E+02  0.87334722233E+02 0.  0.
         13    1    3    3    0    0 -0.31653025321E+01  0.36818265695E+02  0.11601048461E+02  0.38732406565E+02  0.10566000000E+00 0. -1.
         22    1    1    0    0    0 -0.23796511687E+02  0.96948019548E+01 -0.19056085277E+02  0.31990585170E+02  0.00000000000E+00 0.  1.
</event>
<event>
 5    1  0.6978980E-004  0.9118800E+02  0.7818608E-02  0.1130116E+00
         25   -1    0    0    0    0  0.00000000000E+00  0.00000000000E+00  0.99999998245E-14  0.12500000000E+03  0.12500000000E+03 0.  0.
        -13    1    3    3    0    0  0.31998591056E+02 -0.60406222821E+01  0.27744916072E+02  0.42780725554E+02  0.10566000000E+00 0. -1.
         23    2    1    0    0    0 -0.17047005760E+02 -0.19219627626E+02  0.15408493994E+02  0.95043094642E+02  0.90198523604E+02 0.  0.
         13    1    3    3    0    0 -0.49045596816E+02 -0.13179005344E+02 -0.12336422077E+02  0.52262369087E+02  0.10566000000E+00 0.  1.
         22    1    1    0    0    0  0.17047005760E+02  0.19219627626E+02 -0.15408493994E+02  0.29956905358E+02  0.00000000000E+00 0.  1.
</event>
<event>
 5    1  0.6978980E-004  0.9118800E+02  0.7818608E-02  0.1130116E+00
         25   -1    0    0    0    0  0.00000000000E+00  0.00000000000E+00  0.99999998245E-14  0.12500000000E+03  0.12500000000E+03 0.  0.
        -13    1    3    3    0    0  0.72466694068E+01  0.19839360938E+02 -0.52103392838E+02  0.56221785539E+02  0.10566000000E+00 0.  1.
         23    2    1    0    0    0  0.13954521102E+02  0.24093997721E+02 -0.16641615634E+02  0.92562479190E+02  0.86692674417E+02 0.  0.
         13    1    3    3    0    0  0.67078516953E+01  0.42546367833E+01  0.35461777204E+02  0.36340693651E+02  0.10566000000E+00 0. -1.
         22    1    1    0    0    0 -0.13954521102E+02 -0.24093997721E+02  0.16641615634E+02  0.32437520810E+02  0.00000000000E+00 0.  1.
</event>
<event>
 5    1  0.6978980E-004  0.9118800E+02  0.7818608E-02  0.1130116E+00
         25   -1    0    0    0    0  0.00000000000E+00  0.00000000000E+00  0.99999998245E-14  0.12500000000E+03  0.12500000000E+03 0.  0.
        -13    1    3    3    0    0  0.28027237496E+02 -0.56725615381E+01 -0.31986745483E+02  0.42905326554E+02  0.10566000000E+00 0. -1.
         23    2    1    0    0    0 -0.47693045196E+00  0.28703197596E+02 -0.30184398159E+01  0.96134588279E+02  0.91698675398E+02 0.  0.
         13    1    3    3    0    0 -0.28504167948E+02  0.34375759134E+02  0.28968305667E+02  0.53229261725E+02  0.10566000000E+00 0.  1.
         22    1    1    0    0    0  0.47693045196E+00 -0.28703197596E+02  0.30184398159E+01  0.28865411721E+02  0.00000000000E+00 0.  1.
</event>
<event>
 5    1  0.6978980E-004  0.9118800E+02  0.7818608E-02  0.1130116E+00
         25   -1    0    0    0    0  0.00000000000E+00  0.00000000000E+00  0.99999998245E-14  0.12500000000E+03  0.12500000000E+03 0.  0.
        -13    1    3    3    0    0 -0.19687260845E+02 -0.23354240876E+02  0.16891861920E+02  0.34904941909E+02  0.10566000000E+00 0. -1.
         23    2    1    0    0    0  0.78793429644E+01  0.20909294812E+02 -0.16848994556E+02  0.97014802615E+02  0.92890799619E+02 0.  0.
         13    1    3    3    0    0  0.27566603809E+02  0.44263535688E+02 -0.33740856477E+02  0.62109860707E+02  0.10566000000E+00 0.  1.
         22    1    1    0    0    0 -0.78793429644E+01 -0.20909294812E+02  0.16848994556E+02  0.27985197385E+02  0.00000000000E+00 0.  1.
</event>
<event>
 5    1  0.6978980E-004  0.9118800E+02  0.7818608E-02  0.1130116E+00
         25   -1    0    0    0    0  0.00000000000E+00  0.00000000000E+00  0.99999998245E-14  0.12500000000E+03  0.12500000000E+03 0.  0.
        -13    1    3    3    0    0 -0.35451596539E+02  0.11525303899E+02  0.34058063348E+02  0.50493674556E+02  0.10566000000E+00 0.  1.
         23    2    1    0    0    0 -0.20349983498E+02 -0.21355056449E+02  0.10411510713E+02  0.93718059209E+02  0.88343165000E+02 0.  0.
         13    1    3    3    0    0  0.15101613041E+02 -0.32880360348E+02 -0.23646552635E+02  0.43224384653E+02  0.10566000000E+00 0. -1.
         22    1    1    0    0    0  0.20349983498E+02  0.21355056449E+02 -0.10411510713E+02  0.31281940791E+02  0.00000000000E+00 0. -1.
</event>
<event>
 5    1  0.6978980E-004  0.9118800E+02  0.7818608E-02  0.1130116E+00
         25   -1    0    0    0    0  0.00000000000E+00  0.00000000000E+00  0.99999998245E-14  0.12500000000E+03  0.12500000000E+03 0.  0.
        -13    1    3    3    0    0 -0.77021272622E+01  0.35927159667E+02 -0.18840861963E+02  0.41292527286E+02  0.10566000000E+00 0.  1.
         23    2    1    0    0    0 -0.27894410249E+02 -0.76469268925E+01  0.61480931726E+01  0.95430206905E+02  0.90733410199E+02 0.  0.
         13    1    3    3    0    0 -0.20192282986E+02 -0.43574086560E+02  0.24988955136E+02  0.54137679619E+02  0.10566000000E+00 0. -1.
         22    1    1    0    0    0  0.27894410249E+02  0.76469268925E+01 -0.61480931726E+01  0.29569793095E+02  0.00000000000E+00 0. -1.
</event>
<event>
 5    1  0.6978980E-004  0.9118800E+02  0.7818608E-02  0.1130116E+00
         25   -1    0    0    0    0  0.00000000000E+00  0.00000000000E+00  0.99999998245E-14  0.12500000000E+03  0.12500000000E+03 0.  0.
        -13    1    3    3    0    0 -0.11093780904E+02 -0.42600050066E+02  0.32619496238E+02  0.54789405356E+02  0.10566000000E+00 0.  1.
         23    2    1    0    0    0  0.11886406831E+02 -0.29192723432E+02  0.50943861732E+01  0.93071101817E+02  0.87422968688E+02 0.  0.
         13    1    3    3    0    0  0.22980187735E+02  0.13407326634E+02 -0.27525110065E+02  0.38281696461E+02  0.10566000000E+00 0. -1.
         22    1    1    0    0    0 -0.11886406831E+02  0.29192723432E+02 -0.50943861732E+01  0.31928898183E+02  0.00000000000E+00 0.  1.
</event>
<event>
 5    1  0.6978980E-004  0.9118800E+02  0.7818608E-02  0.1130116E+00
         25   -1    0    0    0    0  0.00000000000E+00  0.00000000000E+00  0.99999998245E-14  0.12500000000E+03  0.12500000000E+03 0.  0.
        -13    1    3    3    0    0 -0.30596118177E+02  0.18902232297E+02  0.33073067092E+02  0.48859551412E+02  0.10566000000E+00 0. -1.
         23    2    1    0    0    0  0.11665273383E+02 -0.37263927943E+01  0.24571508890E+02  0.97545971962E+02  0.93602847129E+02 0.  0.
         13    1    3    3    0    0  0.42261391560E+02 -0.22628625091E+02 -0.85015582016E+01  0.48686420550E+02  0.10566000000E+00 0.  1.
         22    1    1    0    0    0 -0.11665273383E+02  0.37263927943E+01 -0.24571508890E+02  0.27454028038E+02  0.00000000000E+00 0.  1.
</event>
<event>
 5    1  0.6978980E-004  0.9118800E+02  0.7818608E-02  0.1130116E+00
         25   -1    0    0    0    0  0.00000000000E+00  0.00000000000E+00  0.99999998245E-14  0.12500000000E+03  0.12500000000E+03 0.  0.
        -13    1    3    3    0    0  0.26527320315E+01  0.10667079741E+02 -0.46548954521E+02  0.47829278779E+02  0.10566000000E+00 0. -1.
         23    2    1    0    0    0  0.28117739482E+02 -0.41528127187E+01 -0.97912699275E+01  0.94938029109E+02  0.90052802717E+02 0.  0.
         13    1    3    3    0    0  0.25465007451E+02 -0.14819892459E+02  0.36757684594E+02  0.47108750330E+02  0.10566000000E+00 0.  1.
         22    1    1    0    0    0 -0.28117739482E+02  0.41528127187E+01  0.97912699275E+01  0.30061970891E+02  0.00000000000E+00 0. -1.
</event>
<event>
 5    1  0.6978980E-004  0.9118800E+02  0.7818608E-02  0.1130116E+00
         25   -1    0    0    0    0  0.00000000000E+00  0.00000000000E+00  0.99999998245E-14  0.12500000000E+03  0.12500000000E+03 0.  0.
        -13    1    3    3    0    0  0.54944296320E+02 -0.53501864061E+00 -0.27298941112E+02  0.61354749555E+02  0.10566000000E+00 0.  1.
         23    2    1    0    0    0  0.23179832460E+02 -0.76737030396E+01 -0.15959396576E+02  0.95829935032E+02  0.91282439483E+02 0.  0.
         13    1    3    3    0    0 -0.31764463861E+02 -0.71386843990E+01  0.11339544537E+02  0.34475185476E+02  0.10566000000E+00 0. -1.
         22    1    1    0    0    0 -0.23179832460E+02  0.76737030396E+01  0.15959396576E+02  0.29170064968E+02  0.00000000000E+00 0.  1.
</event>
<event>
 5    1  0.6978980E-004  0.9118800E+02  0.7818608E-02  0.1130116E+00
         25   -1    0    0    0    0  0.00000000000E+00  0.00000000000E+00  0.99999998245E-14  0.12500000000E+03  0.12500000000E+03 0.  0.
        -13    1    3    3    0    0  0.41715529547E+02 -0.62904856067E+01  0.44513630389E+02  0.61328868154E+02  0.10566000000E+00 0. -1.
         23    2    1    0    0    0  0.21802344951E+02  0.48589214607E+01  0.17994251058E+02  0.96316478001E+02  0.91946285952E+02 0.  0.
         13    1    3    3    0    0 -0.19913184596E+02  0.11149407067E+02 -0.26519379331E+02  0.34987609848E+02  0.10566000000E+00 0.  1.
         22    1    1    0    0    0 -0.21802344951E+02 -0.48589214607E+01 -0.17994251058E+02  0.28683521999E+02  0.00000000000E+00 0. -1.
</event>
<event>
 5    1  0.6978980E-004  0.9118800E+02  0.7818608E-02  0.1130116E+00
         25   -1    0    0    0    0  0.00000000000E+00  0.00000000000E+00  0.99999998245E-14  0.12500000000E+03  0.12500000000E+03 0.  0.
        -13    1    3    3    0    0 -0.25460489376E+02 -0.11211649910E+01  0.44646379956E+02  0.51408208853E+02  0.10566000000E+00 0.  1.
         23    2    1    0    0    0  0.47789090144E+01  0.20295874693E+02  0.21233080193E+02  0.95240897268E+02  0.90472229535E+02 0.  0.
         13    1    3    3    0    0  0.30239398391E+02  0.21417039684E+02 -0.23413299763E+02  0.43832688415E+02  0.10566000000E+00 0. -1.
         22    1    1    0    0    0 -0.47789090144E+01 -0.20295874693E+02 -0.21233080193E+02  0.29759102732E+02  0.00000000000E+00 0.  1.
</event>
<event>
 5    1  0.6978980E-004  0.9118800E+02  0.7818608E-02  0.1130116E+00
         25   -1    0    0    0    0  0.00000000000E+00  0.00000000000E+00  0.99999998245E-14  0.12500000000E+03  0.12500000000E+03 0.  0.
        -13    1    3    3    0    0  0.68176278133E+01  0.52490129291E+02 -0.12912007037E+02  0.54483252580E+02  0.10566000000E+00 0. -1.
         23    2    1    0    0    0 -0.11861763565E+02  0.44428320622E+02  0.78391483783E+00  0.79008787463E+02  0.64243263194E+02 0.  0.
         13    1    3    3    0    0 -0.18679391378E+02 -0.80618086691E+01  0.13695921874E+02  0.24525534883E+02  0.10566000000E+00 0.  1.
         22    1    1    0    0    0  0.11861763565E+02 -0.44428320622E+02 -0.78391483783E+00  0.45991212537E+02  0.00000000000E+00 0. -1.
</event>
<event>
 5    1  0.6978980E-004  0.9118800E+02  0.7818608E-02  0.1130116E+00
         25   -1    0    0    0    0  0.00000000000E+00  0.00000000000E+00  0.99999998245E-14  0.12500000000E+03  0.12500000000E+03 0.  0.
        -13    1    3    3    0    0 -0.33087865725E+02  0.39789298575E+02  0.31632444981E+02  0.60651610687E+02  0.10566000000E+00 0.  1.
         23    2    1    0    0    0 -0.84093902520E+01  0.25367556713E+02  0.10132355544E+02  0.96418617828E+02  0.92085039268E+02 0.  0.
         13    1    3    3    0    0  0.24678475473E+02 -0.14421741862E+02 -0.21500089437E+02  0.35767007141E+02  0.10566000000E+00 0. -1.
         22    1    1    0    0    0  0.84093902520E+01 -0.25367556713E+02 -0.10132355544E+02  0.28581382172E+02  0.00000000000E+00 0.  1.
</event>
<event>
 5    1  0.6978980E-004  0.9118800E+02  0.7818608E-02  0.1130116E+00
         25   -1    0    0    0    0  0.00000000000E+00  0.00000000000E+00  0.99999998245E-14  0.12500000000E+03  0.12500000000E+03 0.  0.
        -13    1    3    3    0    0  0.34215634536E+02 -0.24915438970E+02  0.44229027322E+01  0.42556573857E+02  0.10566000000E+00 0. -1.
         23    2    1    0    0    0  0.10358271064E+02  0.23118569148E+02  0.12427027947E+02  0.96783107143E+02  0.92578489865E+02 0.  0.
         13    1    3    3    0    0 -0.23857363472E+02  0.48034008119E+02  0.80041252151E+01  0.54226533286E+02  0.10566000000E+00 0.  1.
         22    1    1    0    0    0 -0.10358271064E+02 -0.23118569148E+02 -0.12427027947E+02  0.28216892857E+02  0.00000000000E+00 0.  1.
</event>
<event>
 5    1  0.6978980E-004  0.9118800E+02  0.7818608E-02  0.1130116E+00
         25   -1    0    0    0    0  0.00000000000E+00  0.00000000000E+00  0.99999998245E-14  0.12500000000E+03  0.12500000000E+03 0.  0.
        -13    1    3    3    0    0 -0.60722595720E+01 -0.46977128135E+02 -0.14922134512E+02  0.49662905337E+02  0.10566000000E+00 0.  1.
         23    2    1    0    0    0  0.98766984267E+01 -0.22005924191E+02  0.18701140401E+02  0.94478818444E+02  0.89413112075E+02 0.  0.
         13    1    3    3    0    0  0.15948957999E+02  0.24971203944E+02  0.33623274912E+02  0.44815913106E+02  0.10566000000E+00 0. -1.
         22    1    1    0    0    0 -0.98766984267E+01  0.22005924191E+02 -0.18701140401E+02  0.30521181556E+02  0.00000000000E+00 0.  1.
</event>
<event>
 5    1  0.6978980E-004  0.9118800E+02  0.7818608E-02  0.1130116E+00
         25   -1    0    0    0    0  0.00000000000E+00  0.00000000000E+00  0.99999998245E-14  0.12500000000E+03  0.12500000000E+03 0.  0.
        -13    1    3    3    0    0 -0.39298356358E+02  0.16334976970E+01 -0.20989543973E+02  0.44582521770E+02  0.10566000000E+00 0. -1.
         23    2    1    0    0    0 -0.15117096394E+02 -0.10272121783E+02  0.22662771146E+02  0.95885668729E+02  0.91358728003E+02 0.  0.
         13    1    3    3    0    0  0.24181259964E+02 -0.11905619480E+02  0.43652315119E+02  0.51303146959E+02  0.10566000000E+00 0.  1.
         22    1    1    0    0    0  0.15117096394E+02  0.10272121783E+02 -0.22662771146E+02  0.29114331271E+02  0.00000000000E+00 0.  1.
</event>
<event>
 5    1  0.6978980E-004  0.9118800E+02  0.7818608E-02  0.1130116E+00
         25   -1    0    0    0    0  0.00000000000E+00  0.00000000000E+00  0.99999998245E-14  0.12500000000E+03  0.12500000000E+03 0.  0.
        -13    1    3    3    0    0  0.27740616565E+02  0.34531088907E+02 -0.18021177282E+02  0.47819576569E+02  0.10566000000E+00 0. -1.
         23    2    1    0    0    0 -0.10903837010E+02  0.83889057923E+01 -0.26407590351E+02  0.95223696836E+02  0.90448461618E+02 0.  0.
         13    1    3    3    0    0 -0.38644453576E+02 -0.26142183115E+02 -0.83864130686E+01  0.47404120268E+02  0.10566000000E+00 0.  1.
         22    1    1    0    0    0  0.10903837010E+02 -0.83889057923E+01  0.26407590351E+02  0.29776303164E+02  0.00000000000E+00 0. -1.
</event>
<event>
 5    1  0.6978980E-004  0.9118800E+02  0.7818608E-02  0.1130116E+00
         25   -1    0    0    0    0  0.00000000000E+00  0.00000000000E+00  0.99999998245E-14  0.12500000000E+03  0.12500000000E+03 0.  0.
        -13    1    3    3    0    0 -0.95927760446E+01  0.39529947966E+02  0.46906102344E+02  0.62087291289E+02  0.10566000000E+00 0. -1.
         23    2    1    0    0    0 -0.44930467843E+01  0.22715137187E+02  0.19082440242E+02  0.94994926222E+02  0.90131745548E+02 0.  0.
         13    1    3    3    0    0  0.50997292604E+01 -0.16814810779E+02 -0.27823662102E+02  0.32907634933E+02  0.10566000000E+00 0.  1.
         22    1    1    0    0    0  0.44930467843E+01 -0.22715137187E+02 -0.19082440242E+02  0.30005073778E+02  0.00000000000E+00 0. -1.
</event>
<event>
 5    1  0.6978980E-004  0.9118800E+02  0.7818608E-02  0.1130116E+00
         25   -1    0    0    0    0  0.00000000000E+00  0.00000000000E+00  0.99999998245E-14  0.12500000000E+03  0.12500000000E+03 0.  0.
        -13    1    3    3    0    0  0.38450469915E+01 -0.21899481583E+02 -0.56171628612E+02  0.60412206589E+02  0.10566000000E+00 0.  1.
         23    2    1    0    0    0  0.86248680525E+01 -0.12067347187E+01 -0.27900757078E+02  0.95771643851E+02  0.91202581997E+02 0.  0.
         13    1    3    3    0    0  0.47798210611E+01  0.20692746864E+02  0.28270871534E+02  0.35359437262E+02  0.10566000000E+00 0. -1.
         22    1    1    0    0    0 -0.86248680525E+01  0.12067347187E+01  0.27900757078E+02  0.29228356149E+02  0.00000000000E+00 0.  1.
</event>
<event>
 5    1  0.6978980E-004  0.9118800E+02  0.7818608E-02  0.1130116E+00
         25   -1    0    0    0    0  0.00000000000E+00  0.00000000000E+00  0.99999998245E-14  0.12500000000E+03  0.12500000000E+03 0.  0.
        -13    1    3    3    0    0 -0.19364498588E+02  0.56582848925E+02 -0.14399008782E+02  0.61513780700E+02  0.10566000000E+00 0.  1.
         23    2    1    0    0    0 -0.55849816528E+01  0.26931653876E+02  0.60482272876E+00  0.97488696667E+02  0.93526328735E+02 0.  0.
         13    1    3    3    0    0  0.13779516935E+02 -0.29651195049E+02  0.15003831511E+02  0.35974915967E+02  0.10566000000E+00 0. -1.
         22    1    1    0    0    0  0.55849816528E+01 -0.26931653876E+02 -0.60482272876E+00  0.27511303333E+02  0.00000000000E+00 0.  1.
</event>
<event>
 5    1  0.6978980E-004  0.9118800E+02  0.7818608E-02  0.1130116E+00
         25   -1    0    0    0    0  0.00000000000E+00  0.00000000000E+00  0.99999998245E-14  0.12500000000E+03  0.12500000000E+03 0.  0.
        -13    1    3    3    0    0 -0.21213891039E+02 -0.12648923666E+02  0.24319302875E+02  0.34662142162E+02  0.10566000000E+00 0.  1.
         23    2    1    0    0    0  0.26192811619E+02 -0.49557368541E+01 -0.12864079101E+02  0.95400891240E+02  0.90693014118E+02 0.  0.
         13    1    3    3    0    0  0.47406702658E+02  0.76931868119E+01 -0.37183381976E+02  0.60738749077E+02  0.10566000000E+00 0. -1.
         22    1    1    0    0    0 -0.26192811619E+02  0.49557368541E+01  0.12864079101E+02  0.29599108760E+02  0.00000000000E+00 0. -1.
</event>
<event>
 5    1  0.6978980E-004  0.9118800E+02  0.7818608E-02  0.1130116E+00
         25   -1    0    0    0    0  0.00000000000E+00  0.00000000000E+00  0.99999998245E-14  0.12500000000E+03  0.12500000000E+03 0.  0.
        -13    1    3    3    0    0  0.32647391203E+02  0.37871220256E+02  0.37303059738E+02  0.62382777318E+02  0.10566000000E+00 0. -1.
         23    2    1    0    0    0  0.17997583663E+02  0.17526538769E+02  0.16687335109E+02  0.94841091996E+02  0.89918146106E+02 0.  0.
         13    1    3    3    0    0 -0.14649807539E+02 -0.20344681487E+02 -0.20615724629E+02  0.32458314678E+02  0.10566000000E+00 0.  1.
         22    1    1    0    0    0 -0.17997583663E+02 -0.17526538769E+02 -0.16687335109E+02  0.30158908004E+02  0.00000000000E+00 0. -1.
</event>
<event>
 5    1  0.6978980E-004  0.9118800E+02  0.7818608E-02  0.1130116E+00
         25   -1    0    0    0    0  0.00000000000E+00  0.00000000000E+00  0.99999998245E-14  0.12500000000E+03  0.12500000000E+03 0.  0.
        -13    1    3    3    0    0 -0.22748331108E+02 -0.66771893069E+00 -0.29928558381E+02  0.37598699280E+02  0.10566000000E+00 0.  1.
         23    2    1    0    0    0 -0.40911497597E+01 -0.62109496430E+01  0.26597710513E+02  0.97382041959E+02  0.93383673571E+02 0.  0.
         13    1    3    3    0    0  0.18657181348E+02 -0.55432307123E+01  0.56526268895E+02  0.59783342678E+02  0.10566000000E+00 0. -1.
         22    1    1    0    0    0  0.40911497597E+01  0.62109496430E+01 -0.26597710513E+02  0.27617958041E+02  0.00000000000E+00 0. -1.
</event>
<event>
 5    1  0.6978980E-004  0.9118800E+02  0.7818608E-02  0.1130116E+00
         25   -1    0    0    0    0  0.00000000000E+00  0.00000000000E+00  0.99999998245E-14  0.12500000000E+03  0.12500000000E+03 0.  0.
        -13    1    3    3    0    0  0.24780602039E+01  0.41629861265E+02 -0.31270598470E+02  0.52125306944E+02  0.10566000000E+00 0. -1.
         23    2    1    0    0    0  0.25205335664E+02  0.13272452504E+02 -0.75248756159E+01  0.95536621130E+02  0.90879894820E+02 0.  0.
         13    1    3    3    0    0  0.22727275460E+02 -0.28357408761E+02  0.23745722854E+02  0.43411314186E+02  0.10566000000E+00 0.  1.
         22    1    1    0    0    0 -0.25205335664E+02 -0.13272452504E+02  0.75248756159E+01  0.29463378870E+02  0.00000000000E+00 0. -1.
</event>
<event>
 5    1  0.6978980E-004  0.9118800E+02  0.7818608E-02  0.1130116E+00
         25   -1    0    0    0    0  0.00000000000E+00  0.00000000000E+00  0.99999998245E-14  0.12500000000E+03  0.12500000000E+03 0.  0.
        -13    1    3    3    0    0 -0.52185083395E+01  0.44840996968E+02 -0.32746787307E+02  0.55770163003E+02  0.10566000000E+00 0.  1.
         23    2    1    0    0    0 -0.15234675121E+02  0.23205454817E+02  0.11555165054E+01  0.97216485505E+02  0.93161802131E+02 0.  0.
         13    1    3    3    0    0 -0.10016166781E+02 -0.21635542151E+02  0.33902303812E+02  0.41446322502E+02  0.10566000000E+00 0. -1.
         22    1    1    0    0    0  0.15234675121E+02 -0.23205454817E+02 -0.11555165054E+01  0.27783514495E+02  0.00000000000E+00 0.  1.
</event>
<event>
 5    1  0.6978980E-004  0.9118800E+02  0.7818608E-02  0.1130116E+00
         25   -1    0    0    0    0  0.00000000000E+00  0.00000000000E+00  0.99999998245E-14  0.12500000000E+03  0.12500000000E+03 0.  0.
        -13    1    3    3    0    0 -0.37186159831E+02 -0.38599029062E+02 -0.95974660383E+01  0.54450142753E+02  0.10566000000E+00 0. -1.
         23    2    1    0    0    0 -0.92873724447E+01  0.91800762875E+00 -0.19094670661E+02  0.10374665973E+03  0.10154636839E+03 0.  0.
         13    1    3    3    0    0  0.27898787386E+02  0.39517036690E+02 -0.94972046229E+01  0.49296516977E+02  0.10566000000E+00 0.  1.
         22    1    1    0    0    0  0.92873724447E+01 -0.91800762875E+00  0.19094670661E+02  0.21253340269E+02  0.00000000000E+00 0.  1.
</event>
<event>
 5    1  0.6978980E-004  0.9118800E+02  0.7818608E-02  0.1130116E+00
         25   -1    0    0    0    0  0.00000000000E+00  0.00000000000E+00  0.99999998245E-14  0.12500000000E+03  0.12500000000E+03 0.  0.
        -13    1    3    3    0    0 -0.37202928324E+02  0.45653691425E+02  0.19176998838E+02  0.61936143447E+02  0.10566000000E+00 0. -1.
         23    2    1    0    0    0 -0.12379611571E+02  0.24455370448E+02  0.96413774470E+01  0.95943570669E+02  0.91437917010E+02 0.  0.
         13    1    3    3    0    0  0.24823316753E+02 -0.21198320977E+02 -0.95356213909E+01  0.34007427221E+02  0.10566000000E+00 0.  1.
         22    1    1    0    0    0  0.12379611571E+02 -0.24455370448E+02 -0.96413774470E+01  0.29056429331E+02  0.00000000000E+00 0. -1.
</event>
<event>
 5    1  0.6978980E-004  0.9118800E+02  0.7818608E-02  0.1130116E+00
         25   -1    0    0    0    0  0.00000000000E+00  0.00000000000E+00  0.99999998245E-14  0.12500000000E+03  0.12500000000E+03 0.  0.
        -13    1    3    3    0    0 -0.33923210602E+02  0.15741341146E+02 -0.32837330141E+02  0.49768217303E+02  0.10566000000E+00 0.  1.
         23    2    1    0    0    0 -0.24118986257E+02  0.90947348079E+01  0.12303630421E+02  0.96437454230E+02  0.92110605022E+02 0.  0.
         13    1    3    3    0    0  0.98042243451E+01 -0.66466063382E+01  0.45140960563E+02  0.46669236927E+02  0.10566000000E+00 0. -1.
         22    1    1    0    0    0  0.24118986257E+02 -0.90947348079E+01 -0.12303630421E+02  0.28562545770E+02  0.00000000000E+00 0. -1.
</event>
<event>
 5    1  0.6978980E-004  0.9118800E+02  0.7818608E-02  0.1130116E+00
         25   -1    0    0    0    0  0.00000000000E+00  0.00000000000E+00  0.99999998245E-14  0.12500000000E+03  0.12500000000E+03 0.  0.
        -13    1    3    3    0    0  0.76691946578E+01  0.41680755916E+01  0.43811958954E+02  0.44673127406E+02  0.10566000000E+00 0.  1.
         23    2    1    0    0    0 -0.21682342733E+02  0.19016933640E+02  0.46988948920E+01  0.95779333261E+02  0.91213120302E+02 0.  0.
         13    1    3    3    0    0 -0.29351537391E+02  0.14848858048E+02 -0.39113064062E+02  0.51106205855E+02  0.10566000000E+00 0. -1.
         22    1    1    0    0    0  0.21682342733E+02 -0.19016933640E+02 -0.46988948920E+01  0.29220666739E+02  0.00000000000E+00 0. -1.
</event>
<event>
 5    1  0.6978980E-004  0.9118800E+02  0.7818608E-02  0.1130116E+00
         25   -1    0    0    0    0  0.00000000000E+00  0.00000000000E+00  0.99999998245E-14  0.12500000000E+03  0.12500000000E+03 0.  0.
        -13    1    3    3    0    0 -0.29659914448E+02 -0.23150417048E+02  0.11879811440E+02  0.39456221543E+02  0.10566000000E+00 0. -1.
         23    2    1    0    0    0  0.25791237292E+02 -0.10030853578E+02  0.53904211195E+01  0.96806692560E+02  0.92610329553E+02 0.  0.
         13    1    3    3    0    0  0.55451151741E+02  0.13119563471E+02 -0.64893903201E+01  0.57350471016E+02  0.10566000000E+00 0.  1.
         22    1    1    0    0    0 -0.25791237292E+02  0.10030853578E+02 -0.53904211195E+01  0.28193307440E+02  0.00000000000E+00 0.  1.
</event>
<event>
 5    1  0.6978980E-004  0.9118800E+02  0.7818608E-02  0.1130116E+00
         25   -1    0    0    0    0  0.00000000000E+00  0.00000000000E+00  0.99999998245E-14  0.12500000000E+03  0.12500000000E+03 0.  0.
        -13    1    3    3    0    0 -0.49843873496E+02  0.34526326633E+02 -0.23169474507E+01  0.60678318742E+02  0.10566000000E+00 0.  1.
         23    2    1    0    0    0 -0.18947028820E+02  0.19684926595E+02  0.80995146924E+01  0.96502835678E+02  0.92199289148E+02 0.  0.
         13    1    3    3    0    0  0.30896844676E+02 -0.14841400038E+02  0.10416462143E+02  0.35824516936E+02  0.10566000000E+00 0. -1.
         22    1    1    0    0    0  0.18947028820E+02 -0.19684926595E+02 -0.80995146924E+01  0.28497164322E+02  0.00000000000E+00 0.  1.
</event>
<event>
 5    1  0.6978980E-004  0.9118800E+02  0.7818608E-02  0.1130116E+00
         25   -1    0    0    0    0  0.00000000000E+00  0.00000000000E+00  0.99999998245E-14  0.12500000000E+03  0.12500000000E+03 0.  0.
        -13    1    3    3    0    0 -0.47921700192E+02 -0.14313571741E+02 -0.14764631132E+02  0.52147609550E+02  0.10566000000E+00 0.  1.
         23    2    1    0    0    0 -0.38379329642E+01 -0.21246768324E+02 -0.17999723501E+02  0.96890483111E+02  0.92723356161E+02 0.  0.
         13    1    3    3    0    0  0.44083767228E+02 -0.69331965824E+01 -0.32350923689E+01  0.44742873561E+02  0.10566000000E+00 0. -1.
         22    1    1    0    0    0  0.38379329642E+01  0.21246768324E+02  0.17999723501E+02  0.28109516889E+02  0.00000000000E+00 0. -1.
</event>
<event>
 5    1  0.6978980E-004  0.9118800E+02  0.7818608E-02  0.1130116E+00
         25   -1    0    0    0    0  0.00000000000E+00  0.00000000000E+00  0.99999998245E-14  0.12500000000E+03  0.12500000000E+03 0.  0.
        -13    1    3    3    0    0  0.36273072793E+02 -0.10034258234E+02  0.10990528477E+02  0.39207461387E+02  0.10566000000E+00 0. -1.
         23    2    1    0    0    0 -0.17323290014E+02 -0.23902423472E+02  0.10005678385E+01  0.95463186348E+02  0.90778833364E+02 0.  0.
         13    1    3    3    0    0 -0.53596362807E+02 -0.13868165237E+02 -0.99899606389E+01  0.56255724961E+02  0.10566000000E+00 0.  1.
         22    1    1    0    0    0  0.17323290014E+02  0.23902423472E+02 -0.10005678385E+01  0.29536813652E+02  0.00000000000E+00 0.  1.
</event>
<event>
 5    1  0.6978980E-004  0.9118800E+02  0.7818608E-02  0.1130116E+00
         25   -1    0    0    0    0  0.00000000000E+00  0.00000000000E+00  0.99999998245E-14  0.12500000000E+03  0.12500000000E+03 0.  0.
        -13    1    3    3    0    0  0.27676925151E+02  0.41380289349E+02  0.40075749294E+01  0.49944092276E+02  0.10566000000E+00 0. -1.
         23    2    1    0    0    0  0.70020904100E+01  0.10636373233E+02  0.28107757368E+02  0.94142136660E+02  0.88941183739E+02 0.  0.
         13    1    3    3    0    0 -0.20674834741E+02 -0.30743916116E+02  0.24100182439E+02  0.44198044384E+02  0.10566000000E+00 0.  1.
         22    1    1    0    0    0 -0.70020904100E+01 -0.10636373233E+02 -0.28107757368E+02  0.30857863340E+02  0.00000000000E+00 0. -1.
</event>
<event>
 5    1  0.6978980E-004  0.9118800E+02  0.7818608E-02  0.1130116E+00
         25   -1    0    0    0    0  0.00000000000E+00  0.00000000000E+00  0.99999998245E-14  0.12500000000E+03  0.12500000000E+03 0.  0.
        -13    1    3    3    0    0 -0.19803821176E+02 -0.31974073812E+02  0.46068141840E+02  0.59471149190E+02  0.10566000000E+00 0. -1.
         23    2    1    0    0    0 -0.87837265317E+01 -0.26856551302E+01  0.27834892869E+02  0.95688775933E+02  0.91088934472E+02 0.  0.
         13    1    3    3    0    0  0.11020094645E+02  0.29288418682E+02 -0.18233248970E+02  0.36217626743E+02  0.10566000000E+00 0.  1.
         22    1    1    0    0    0  0.87837265317E+01  0.26856551302E+01 -0.27834892869E+02  0.29311224067E+02  0.00000000000E+00 0. -1.
</event>
<event>
 5    1  0.6978980E-004  0.9118800E+02  0.7818608E-02  0.1130116E+00
         25   -1    0    0    0    0  0.00000000000E+00  0.00000000000E+00  0.99999998245E-14  0.12500000000E+03  0.12500000000E+03 0.  0.
        -13    1    3    3    0    0  0.34918942455E+01 -0.51277609585E+02 -0.25603355558E+02  0.57420636970E+02  0.10566000000E+00 0. -1.
         23    2    1    0    0    0  0.14838272015E+02 -0.24329670263E+02  0.32547624079E+00  0.96500647266E+02  0.92196322142E+02 0.  0.
         13    1    3    3    0    0  0.11346377770E+02  0.26947939322E+02  0.25928831799E+02  0.39080010296E+02  0.10566000000E+00 0.  1.
         22    1    1    0    0    0 -0.14838272015E+02  0.24329670263E+02 -0.32547624079E+00  0.28499352734E+02  0.00000000000E+00 0. -1.
</event>
<event>
 5    1  0.6978980E-004  0.9118800E+02  0.7818608E-02  0.1130116E+00
         25   -1    0    0    0    0  0.00000000000E+00  0.00000000000E+00  0.99999998245E-14  0.12500000000E+03  0.12500000000E+03 0.  0.
        -13    1    3    3    0    0 -0.34735372050E+02  0.39662920248E+01  0.66464463909E+01  0.35587412909E+02  0.10566000000E+00 0. -1.
         23    2    1    0    0    0  0.25515421244E+02 -0.76253329277E+01  0.87198838141E+01  0.96978244215E+02  0.92841591185E+02 0.  0.
         13    1    3    3    0    0  0.60250793295E+02 -0.11591624953E+02  0.20734374232E+01  0.61390831306E+02  0.10566000000E+00 0.  1.
         22    1    1    0    0    0 -0.25515421244E+02  0.76253329277E+01 -0.87198838141E+01  0.28021755785E+02  0.00000000000E+00 0.  1.
</event>
<event>
 5    1  0.6978980E-004  0.9118800E+02  0.7818608E-02  0.1130116E+00
         25   -1    0    0    0    0  0.00000000000E+00  0.00000000000E+00  0.99999998245E-14  0.12500000000E+03  0.12500000000E+03 0.  0.
        -13    1    3    3    0    0 -0.18020025075E+02  0.19733504161E+02  0.50765707895E+02  0.57369859267E+02  0.10566000000E+00 0. -1.
         23    2    1    0    0    0 -0.12319537144E+02  0.23862156292E+02  0.14170538774E+02  0.94635914842E+02  0.89632464601E+02 0.  0.
         13    1    3    3    0    0  0.57004879311E+01  0.41286521319E+01 -0.36595169121E+02  0.37266055575E+02  0.10566000000E+00 0.  1.
         22    1    1    0    0    0  0.12319537144E+02 -0.23862156292E+02 -0.14170538774E+02  0.30364085158E+02  0.00000000000E+00 0. -1.
</event>
<event>
 5    1  0.6978980E-004  0.9118800E+02  0.7818608E-02  0.1130116E+00
         25   -1    0    0    0    0  0.00000000000E+00  0.00000000000E+00  0.99999998245E-14  0.12500000000E+03  0.12500000000E+03 0.  0.
        -13    1    3    3    0    0  0.51776119292E+02  0.53618426928E+00 -0.30786705115E+02  0.60240239030E+02  0.10566000000E+00 0. -1.
         23    2    1    0    0    0  0.27797990227E+02 -0.92577342623E+01 -0.82814380957E+01  0.94553060560E+02  0.89516842773E+02 0.  0.
         13    1    3    3    0    0 -0.23978129065E+02 -0.97939185316E+01  0.22505267020E+02  0.34312821530E+02  0.10566000000E+00 0.  1.
         22    1    1    0    0    0 -0.27797990227E+02  0.92577342623E+01  0.82814380957E+01  0.30446939440E+02  0.00000000000E+00 0. -1.
</event>
<event>
 5    1  0.6978980E-004  0.9118800E+02  0.7818608E-02  0.1130116E+00
         25   -1    0    0    0    0  0.00000000000E+00  0.00000000000E+00  0.99999998245E-14  0.12500000000E+03  0.12500000000E+03 0.  0.
        -13    1    3    3    0    0 -0.20450672956E+02 -0.12706572267E+02 -0.29435626948E+02  0.38028335501E+02  0.10566000000E+00 0. -1.
         23    2    1    0    0    0  0.13874615732E+02  0.25384755777E+02 -0.24608148934E+01  0.95966460817E+02  0.91469203583E+02 0.  0.
         13    1    3    3    0    0  0.34325288688E+02  0.38091328044E+02  0.26974812055E+02  0.57938125316E+02  0.10566000000E+00 0.  1.
         22    1    1    0    0    0 -0.13874615732E+02 -0.25384755777E+02  0.24608148934E+01  0.29033539183E+02  0.00000000000E+00 0.  1.
</event>
<event>
 5    1  0.6978980E-004  0.9118800E+02  0.7818608E-02  0.1130116E+00
         25   -1    0    0    0    0  0.00000000000E+00  0.00000000000E+00  0.99999998245E-14  0.12500000000E+03  0.12500000000E+03 0.  0.
        -13    1    3    3    0    0  0.16893911417E+02 -0.29255552236E+02  0.17235188213E+02  0.37925643784E+02  0.10566000000E+00 0.  1.
         23    2    1    0    0    0  0.71135508286E+01  0.26317790012E+02  0.13765124226E+02  0.94459742609E+02  0.89386439980E+02 0.  0.
         13    1    3    3    0    0 -0.97803605884E+01  0.55573342249E+02 -0.34700639871E+01  0.56534098826E+02  0.10566000000E+00 0. -1.
         22    1    1    0    0    0 -0.71135508286E+01 -0.26317790012E+02 -0.13765124226E+02  0.30540257391E+02  0.00000000000E+00 0. -1.
</event>
<event>
 5    1  0.6978980E-004  0.9118800E+02  0.7818608E-02  0.1130116E+00
         25   -1    0    0    0    0  0.00000000000E+00  0.00000000000E+00  0.99999998245E-14  0.12500000000E+03  0.12500000000E+03 0.  0.
        -13    1    3    3    0    0 -0.14670220470E+02  0.34358416096E+02 -0.33597693482E+01  0.37510203137E+02  0.10566000000E+00 0.  1.
         23    2    1    0    0    0  0.16361036125E+02 -0.11775137067E+02 -0.21049152622E+02  0.95855460510E+02  0.91317386775E+02 0.  0.
         13    1    3    3    0    0  0.31031256595E+02 -0.46133553163E+02 -0.17689383273E+02  0.58345257373E+02  0.10566000000E+00 0. -1.
         22    1    1    0    0    0 -0.16361036125E+02  0.11775137067E+02  0.21049152622E+02  0.29144539490E+02  0.00000000000E+00 0. -1.
</event>
<event>
 5    1  0.6978980E-004  0.9118800E+02  0.7818608E-02  0.1130116E+00
         25   -1    0    0    0    0  0.00000000000E+00  0.00000000000E+00  0.99999998245E-14  0.12500000000E+03  0.12500000000E+03 0.  0.
        -13    1    3    3    0    0 -0.12192678152E+02  0.13451441046E+02  0.52687036244E+02  0.55727350726E+02  0.10566000000E+00 0.  1.
         23    2    1    0    0    0 -0.96828851353E+01 -0.14128161051E+02  0.22956553115E+02  0.96357958694E+02  0.92002661231E+02 0.  0.
         13    1    3    3    0    0  0.25097930167E+01 -0.27579602096E+02 -0.29730483129E+02  0.40630607968E+02  0.10566000000E+00 0. -1.
         22    1    1    0    0    0  0.96828851353E+01  0.14128161051E+02 -0.22956553115E+02  0.28642041306E+02  0.00000000000E+00 0.  1.
</event>
<event>
 5    1  0.6978980E-004  0.9118800E+02  0.7818608E-02  0.1130116E+00
         25   -1    0    0    0    0  0.00000000000E+00  0.00000000000E+00  0.99999998245E-14  0.12500000000E+03  0.12500000000E+03 0.  0.
        -13    1    3    3    0    0  0.52395997219E+01 -0.14138217983E+02  0.53448070147E+02  0.55534223497E+02  0.10566000000E+00 0. -1.
         23    2    1    0    0    0 -0.17653237308E+02 -0.61354139046E+00  0.23837680337E+02  0.95331022526E+02  0.90596664572E+02 0.  0.
         13    1    3    3    0    0 -0.22892837030E+02  0.13524676593E+02 -0.29610389810E+02  0.39796799029E+02  0.10566000000E+00 0.  1.
         22    1    1    0    0    0  0.17653237308E+02  0.61354139046E+00 -0.23837680337E+02  0.29668977474E+02  0.00000000000E+00 0. -1.
</event>
<event>
 5    1  0.6978980E-004  0.9118800E+02  0.7818608E-02  0.1130116E+00
         25   -1    0    0    0    0  0.00000000000E+00  0.00000000000E+00  0.99999998245E-14  0.12500000000E+03  0.12500000000E+03 0.  0.
        -13    1    3    3    0    0 -0.52847039349E+02 -0.13148891916E+02 -0.19497368930E+02  0.57843422149E+02  0.10566000000E+00 0.  1.
         23    2    1    0    0    0 -0.22892069101E+02 -0.23220290269E+02 -0.85264973963E+01  0.91296441349E+02  0.84847571192E+02 0.  0.
         13    1    3    3    0    0  0.29954970249E+02 -0.10071398353E+02  0.10970871534E+02  0.33453019200E+02  0.10566000000E+00 0. -1.
         22    1    1    0    0    0  0.22892069101E+02  0.23220290269E+02  0.85264973963E+01  0.33703558651E+02  0.00000000000E+00 0.  1.
</event>
<event>
 5    1  0.6978980E-004  0.9118800E+02  0.7818608E-02  0.1130116E+00
         25   -1    0    0    0    0  0.00000000000E+00  0.00000000000E+00  0.99999998245E-14  0.12500000000E+03  0.12500000000E+03 0.  0.
        -13    1    3    3    0    0  0.34370023261E+02  0.25935020845E+02  0.31385421942E+02  0.53282076533E+02  0.10566000000E+00 0.  1.
         23    2    1    0    0    0  0.27814094347E+02 -0.49359930620E+01  0.15551086780E+01  0.96708548378E+02  0.92477765407E+02 0.  0.
         13    1    3    3    0    0 -0.65559289138E+01 -0.30871013907E+02 -0.29830313263E+02  0.43426471846E+02  0.10566000000E+00 0. -1.
         22    1    1    0    0    0 -0.27814094347E+02  0.49359930620E+01 -0.15551086780E+01  0.28291451622E+02  0.00000000000E+00 0.  1.
</event>
<event>
 5    1  0.6978980E-004  0.9118800E+02  0.7818608E-02  0.1130116E+00
         25   -1    0    0    0    0  0.00000000000E+00  0.00000000000E+00  0.99999998245E-14  0.12500000000E+03  0.12500000000E+03 0.  0.
        -13    1    3    3    0    0 -0.59160181174E+01 -0.11777797870E+02  0.46400326673E+02  0.48236057803E+02  0.10566000000E+00 0.  1.
         23    2    1    0    0    0 -0.15310677655E+02  0.21348578662E+02  0.15525541629E+02  0.94484084415E+02  0.89420473627E+02 0.  0.
         13    1    3    3    0    0 -0.93946595380E+01  0.33126376531E+02 -0.30874785044E+02  0.46248026611E+02  0.10566000000E+00 0. -1.
         22    1    1    0    0    0  0.15310677655E+02 -0.21348578662E+02 -0.15525541629E+02  0.30515915585E+02  0.00000000000E+00 0. -1.
</event>
<event>
 5    1  0.6978980E-004  0.9118800E+02  0.7818608E-02  0.1130116E+00
         25   -1    0    0    0    0  0.00000000000E+00  0.00000000000E+00  0.99999998245E-14  0.12500000000E+03  0.12500000000E+03 0.  0.
        -13    1    3    3    0    0 -0.37580771824E+02 -0.71497095117E+01  0.25892710764E+02  0.46193899941E+02  0.10566000000E+00 0.  1.
         23    2    1    0    0    0  0.12507317771E+02  0.30132684187E+01  0.24506832923E+02  0.97321531033E+02  0.93302640683E+02 0.  0.
         13    1    3    3    0    0  0.50088089595E+02  0.10162977930E+02 -0.13858778410E+01  0.51127631093E+02  0.10566000000E+00 0. -1.
         22    1    1    0    0    0 -0.12507317771E+02 -0.30132684187E+01 -0.24506832923E+02  0.27678468967E+02  0.00000000000E+00 0. -1.
</event>
<event>
 5    1  0.6978980E-004  0.9118800E+02  0.7818608E-02  0.1130116E+00
         25   -1    0    0    0    0  0.00000000000E+00  0.00000000000E+00  0.99999998245E-14  0.12500000000E+03  0.12500000000E+03 0.  0.
        -13    1    3    3    0    0  0.22120079470E+02  0.13606616553E+02 -0.42755941944E+02  0.50025190308E+02  0.10566000000E+00 0. -1.
         23    2    1    0    0    0 -0.68148810996E+01 -0.15697629164E+02 -0.24602319361E+02  0.95031144772E+02  0.90181961572E+02 0.  0.
         13    1    3    3    0    0 -0.28934960570E+02 -0.29304245717E+02  0.18153622584E+02  0.45005954463E+02  0.10566000000E+00 0.  1.
         22    1    1    0    0    0  0.68148810996E+01  0.15697629164E+02  0.24602319361E+02  0.29968855228E+02  0.00000000000E+00 0. -1.
</event>
<event>
 4    1  0.6978980E-004  0.9118800E+02  0.7818608E-02  0.1130116E+00
         25   -1    0    0    0    0  0.00000000000E+00  0.00000000000E+00  0.99999998245E-14  0.12500000000E+03  0.12500000000E+03 0.  0.
        -13    1    1    0    0    0 -0.11400901832E+02 -0.16235262771E+02 -0.23877897174E+02  0.31043992291E+02  0.10566000000E+00 0. -1.
         13    1    1    0    0    0  0.37433838073E+02  0.63666525859E+01 -0.19288912918E+02  0.42589902836E+02  0.10566000000E+00 0.  1.
         22    1    1    0    0    0 -0.26032936240E+02  0.98686101851E+01  0.43166810093E+02  0.51366104873E+02  0.00000000000E+00 0. -1.
</event>
<event>
 5    1  0.6978980E-004  0.9118800E+02  0.7818608E-02  0.1130116E+00
         25   -1    0    0    0    0  0.00000000000E+00  0.00000000000E+00  0.99999998245E-14  0.12500000000E+03  0.12500000000E+03 0.  0.
        -13    1    3    3    0    0  0.20110460606E+00  0.29894756496E+02 -0.17122547946E+02  0.34451846412E+02  0.10566000000E+00 0.  1.
         23    2    1    0    0    0  0.16977116979E+02 -0.20026145458E+02  0.13610543293E+02  0.95427785143E+02  0.90730073767E+02 0.  0.
         13    1    3    3    0    0  0.16776012373E+02 -0.49920901954E+02  0.30733091238E+02  0.60975938731E+02  0.10566000000E+00 0. -1.
         22    1    1    0    0    0 -0.16977116979E+02  0.20026145458E+02 -0.13610543293E+02  0.29572214857E+02  0.00000000000E+00 0. -1.
</event>
<event>
 5    1  0.6978980E-004  0.9118800E+02  0.7818608E-02  0.1130116E+00
         25   -1    0    0    0    0  0.00000000000E+00  0.00000000000E+00  0.99999998245E-14  0.12500000000E+03  0.12500000000E+03 0.  0.
        -13    1    3    3    0    0  0.13054521262E+02  0.23221723540E+02  0.93892494621E+01  0.28246028731E+02  0.10566000000E+00 0.  1.
         23    2    1    0    0    0 -0.27753084845E+02 -0.10230980210E+02 -0.20614122148E+02  0.88946585371E+02  0.81312030738E+02 0.  0.
         13    1    3    3    0    0 -0.40807606107E+02 -0.33452703750E+02 -0.30003371611E+02  0.60700556640E+02  0.10566000000E+00 0. -1.
         22    1    1    0    0    0  0.27753084845E+02  0.10230980210E+02  0.20614122148E+02  0.36053414629E+02  0.00000000000E+00 0. -1.
</event>
<event>
 5    1  0.6978980E-004  0.9118800E+02  0.7818608E-02  0.1130116E+00
         25   -1    0    0    0    0  0.00000000000E+00  0.00000000000E+00  0.99999998245E-14  0.12500000000E+03  0.12500000000E+03 0.  0.
        -13    1    3    3    0    0  0.37286855039E+02  0.34935618916E+02 -0.65438925900E+01  0.51513500386E+02  0.10566000000E+00 0. -1.
         23    2    1    0    0    0 -0.48394253819E+01  0.28484403952E+02  0.50258105783E+01  0.95673560078E+02  0.91068051585E+02 0.  0.
         13    1    3    3    0    0 -0.42126280421E+02 -0.64512149638E+01  0.11569703168E+02  0.44160059692E+02  0.10566000000E+00 0.  1.
         22    1    1    0    0    0  0.48394253819E+01 -0.28484403952E+02 -0.50258105783E+01  0.29326439922E+02  0.00000000000E+00 0. -1.
</event>
<event>
 5    1  0.6978980E-004  0.9118800E+02  0.7818608E-02  0.1130116E+00
         25   -1    0    0    0    0  0.00000000000E+00  0.00000000000E+00  0.99999998245E-14  0.12500000000E+03  0.12500000000E+03 0.  0.
        -13    1    3    3    0    0 -0.45867473284E+02 -0.26640630018E+02  0.20052558953E+02  0.56706829905E+02  0.10566000000E+00 0.  1.
         23    2    1    0    0    0 -0.90163892749E+01 -0.12424200254E+02  0.24114920477E+02  0.96413544866E+02  0.92078152765E+02 0.  0.
         13    1    3    3    0    0  0.36851084009E+02  0.14216429763E+02  0.40623615232E+01  0.39706714962E+02  0.10566000000E+00 0. -1.
         22    1    1    0    0    0  0.90163892749E+01  0.12424200254E+02 -0.24114920477E+02  0.28586455134E+02  0.00000000000E+00 0.  1.
</event>
<event>
 5    1  0.6978980E-004  0.9118800E+02  0.7818608E-02  0.1130116E+00
         25   -1    0    0    0    0  0.00000000000E+00  0.00000000000E+00  0.99999998245E-14  0.12500000000E+03  0.12500000000E+03 0.  0.
        -13    1    3    3    0    0 -0.16402510293E+02 -0.31032831264E+02 -0.44649893066E+02  0.56795273351E+02  0.10566000000E+00 0. -1.
         23    2    1    0    0    0  0.45304662508E+01 -0.23394471082E+02 -0.76756219649E+01  0.99965192747E+02  0.96779637253E+02 0.  0.
         13    1    3    3    0    0  0.20932976543E+02  0.76383601824E+01  0.36974271101E+02  0.43169919397E+02  0.10566000000E+00 0.  1.
         22    1    1    0    0    0 -0.45304662508E+01  0.23394471082E+02  0.76756219649E+01  0.25034807253E+02  0.00000000000E+00 0. -1.
</event>
<event>
 5    1  0.6978980E-004  0.9118800E+02  0.7818608E-02  0.1130116E+00
         25   -1    0    0    0    0  0.00000000000E+00  0.00000000000E+00  0.99999998245E-14  0.12500000000E+03  0.12500000000E+03 0.  0.
        -13    1    3    3    0    0  0.31804010608E+01 -0.46739291565E+02  0.39640959780E+02  0.61368503185E+02  0.10566000000E+00 0.  1.
         23    2    1    0    0    0 -0.37966202942E+00 -0.26805227195E+02  0.12011123728E+02  0.95624305260E+02  0.91000419312E+02 0.  0.
         13    1    3    3    0    0 -0.35600630902E+01  0.19934064370E+02 -0.27629836051E+02  0.34255802074E+02  0.10566000000E+00 0. -1.
         22    1    1    0    0    0  0.37966202942E+00  0.26805227195E+02 -0.12011123728E+02  0.29375694740E+02  0.00000000000E+00 0.  1.
</event>
<event>
 5    1  0.6978980E-004  0.9118800E+02  0.7818608E-02  0.1130116E+00
         25   -1    0    0    0    0  0.00000000000E+00  0.00000000000E+00  0.99999998245E-14  0.12500000000E+03  0.12500000000E+03 0.  0.
        -13    1    3    3    0    0  0.34224359759E+02  0.27261918685E+02  0.16319374051E+02  0.46699594696E+02  0.10566000000E+00 0.  1.
         23    2    1    0    0    0  0.10480663891E+01  0.21372876338E+02 -0.19622910696E+02  0.95966279772E+02  0.91468956171E+02 0.  0.
         13    1    3    3    0    0 -0.33176293370E+02 -0.58890423470E+01 -0.35942284747E+02  0.49266685076E+02  0.10566000000E+00 0. -1.
         22    1    1    0    0    0 -0.10480663891E+01 -0.21372876338E+02  0.19622910696E+02  0.29033720228E+02  0.00000000000E+00 0.  1.
</event>
<event>
 5    1  0.6978980E-004  0.9118800E+02  0.7818608E-02  0.1130116E+00
         25   -1    0    0    0    0  0.00000000000E+00  0.00000000000E+00  0.99999998245E-14  0.12500000000E+03  0.12500000000E+03 0.  0.
        -13    1    3    3    0    0  0.45058585083E+01 -0.11659841678E+02  0.40250749373E+02  0.42147225982E+02  0.10566000000E+00 0.  1.
         23    2    1    0    0    0  0.20663581276E+00 -0.25558203853E+02 -0.12271851973E+02  0.96647525092E+02  0.92395244862E+02 0.  0.
         13    1    3    3    0    0 -0.42992226956E+01 -0.13898362175E+02 -0.52522601346E+02  0.54500299110E+02  0.10566000000E+00 0. -1.
         22    1    1    0    0    0 -0.20663581276E+00  0.25558203853E+02  0.12271851973E+02  0.28352474908E+02  0.00000000000E+00 0. -1.
</event>
<event>
 5    1  0.6978980E-004  0.9118800E+02  0.7818608E-02  0.1130116E+00
         25   -1    0    0    0    0  0.00000000000E+00  0.00000000000E+00  0.99999998245E-14  0.12500000000E+03  0.12500000000E+03 0.  0.
        -13    1    3    3    0    0 -0.46542647892E+02  0.16434794170E+02  0.31933663498E+02  0.58788524055E+02  0.10566000000E+00 0. -1.
         23    2    1    0    0    0 -0.23921097337E+02  0.17009214383E+02  0.30367900157E+01  0.95491452673E+02  0.90817746990E+02 0.  0.
         13    1    3    3    0    0  0.22621550554E+02  0.57442021272E+00 -0.28896873482E+02  0.36702928618E+02  0.10566000000E+00 0.  1.
         22    1    1    0    0    0  0.23921097337E+02 -0.17009214383E+02 -0.30367900157E+01  0.29508547327E+02  0.00000000000E+00 0. -1.
</event>
<event>
 5    1  0.6978980E-004  0.9118800E+02  0.7818608E-02  0.1130116E+00
         25   -1    0    0    0    0  0.00000000000E+00  0.00000000000E+00  0.99999998245E-14  0.12500000000E+03  0.12500000000E+03 0.  0.
        -13    1    3    3    0    0 -0.44472257249E+02 -0.20679993547E+02  0.17156418487E+02  0.51959577147E+02  0.10566000000E+00 0. -1.
         23    2    1    0    0    0 -0.61369605862E+01 -0.44634335083E+01  0.28828540218E+02  0.95189443900E+02  0.90401111580E+02 0.  0.
         13    1    3    3    0    0  0.38335296663E+02  0.16216560039E+02  0.11672121731E+02  0.43229866753E+02  0.10566000000E+00 0.  1.
         22    1    1    0    0    0  0.61369605862E+01  0.44634335083E+01 -0.28828540218E+02  0.29810556100E+02  0.00000000000E+00 0.  1.
</event>
<event>
 5    1  0.6978980E-004  0.9118800E+02  0.7818608E-02  0.1130116E+00
         25   -1    0    0    0    0  0.00000000000E+00  0.00000000000E+00  0.99999998245E-14  0.12500000000E+03  0.12500000000E+03 0.  0.
        -13    1    3    3    0    0 -0.39719490662E+02  0.46699603832E+02  0.10820829459E+02  0.62254256487E+02  0.10566000000E+00 0. -1.
         23    2    1    0    0    0 -0.18380685527E+02  0.20685875448E+02  0.88042971012E+01  0.95960876547E+02  0.91461571913E+02 0.  0.
         13    1    3    3    0    0  0.21338805135E+02 -0.26013728385E+02 -0.20165323574E+01  0.33706620060E+02  0.10566000000E+00 0.  1.
         22    1    1    0    0    0  0.18380685527E+02 -0.20685875448E+02 -0.88042971012E+01  0.29039123453E+02  0.00000000000E+00 0. -1.
</event>
<event>
 5    1  0.6978980E-004  0.9118800E+02  0.7818608E-02  0.1130116E+00
         25   -1    0    0    0    0  0.00000000000E+00  0.00000000000E+00  0.99999998245E-14  0.12500000000E+03  0.12500000000E+03 0.  0.
        -13    1    3    3    0    0  0.40808030534E+02  0.22900610575E+02 -0.12635431183E+02  0.48470595271E+02  0.10566000000E+00 0.  1.
         23    2    1    0    0    0  0.12148425289E+02  0.14426705150E+02  0.23179302765E+02  0.95116992535E+02  0.90300875598E+02 0.  0.
         13    1    3    3    0    0 -0.28659605245E+02 -0.84739054247E+01  0.35814733948E+02  0.46646397264E+02  0.10566000000E+00 0. -1.
         22    1    1    0    0    0 -0.12148425289E+02 -0.14426705150E+02 -0.23179302765E+02  0.29883007465E+02  0.00000000000E+00 0. -1.
</event>
<event>
 5    1  0.6978980E-004  0.9118800E+02  0.7818608E-02  0.1130116E+00
         25   -1    0    0    0    0  0.00000000000E+00  0.00000000000E+00  0.99999998245E-14  0.12500000000E+03  0.12500000000E+03 0.  0.
        -13    1    3    3    0    0  0.42340828001E+01 -0.43704621295E+02 -0.95750640818E+01  0.44941232692E+02  0.10566000000E+00 0. -1.
         23    2    1    0    0    0  0.23812788969E+01 -0.10391622969E+02  0.27909394459E+02  0.95123744944E+02  0.90310222213E+02 0.  0.
         13    1    3    3    0    0 -0.18528039032E+01  0.33312998326E+02  0.37484458540E+02  0.50182512252E+02  0.10566000000E+00 0.  1.
         22    1    1    0    0    0 -0.23812788969E+01  0.10391622969E+02 -0.27909394459E+02  0.29876255056E+02  0.00000000000E+00 0.  1.
</event>
<event>
 5    1  0.6978980E-004  0.9118800E+02  0.7818608E-02  0.1130116E+00
         25   -1    0    0    0    0  0.00000000000E+00  0.00000000000E+00  0.99999998245E-14  0.12500000000E+03  0.12500000000E+03 0.  0.
        -13    1    3    3    0    0 -0.43143303948E+02  0.18830978230E+01 -0.35185622381E+01  0.43327614488E+02  0.10566000000E+00 0.  1.
         23    2    1    0    0    0  0.50047970653E+01  0.92064402140E+01 -0.25999777948E+02  0.96967964961E+02  0.92827750378E+02 0.  0.
         13    1    3    3    0    0  0.48148101013E+02  0.73233423910E+01 -0.22481215710E+02  0.53640350473E+02  0.10566000000E+00 0. -1.
         22    1    1    0    0    0 -0.50047970653E+01 -0.92064402140E+01  0.25999777948E+02  0.28032035039E+02  0.00000000000E+00 0. -1.
</event>
<event>
 5    1  0.6978980E-004  0.9118800E+02  0.7818608E-02  0.1130116E+00
         25   -1    0    0    0    0  0.00000000000E+00  0.00000000000E+00  0.99999998245E-14  0.12500000000E+03  0.12500000000E+03 0.  0.
        -13    1    3    3    0    0 -0.23044963167E+01 -0.40172799676E+02  0.23297635830E+02  0.46496833616E+02  0.10566000000E+00 0.  1.
         23    2    1    0    0    0  0.24578189910E+02 -0.14333049911E+02 -0.82890299670E+01  0.95365024772E+02  0.90643566749E+02 0.  0.
         13    1    3    3    0    0  0.26882686226E+02  0.25839749765E+02 -0.31586665797E+02  0.48868191156E+02  0.10566000000E+00 0. -1.
         22    1    1    0    0    0 -0.24578189910E+02  0.14333049911E+02  0.82890299670E+01  0.29634975228E+02  0.00000000000E+00 0. -1.
</event>
<event>
 5    1  0.6978980E-004  0.9118800E+02  0.7818608E-02  0.1130116E+00
         25   -1    0    0    0    0  0.00000000000E+00  0.00000000000E+00  0.99999998245E-14  0.12500000000E+03  0.12500000000E+03 0.  0.
        -13    1    3    3    0    0 -0.14109923116E+01 -0.15054455899E+02 -0.56342435899E+02  0.58336170502E+02  0.10566000000E+00 0.  1.
         23    2    1    0    0    0  0.14523403352E+02 -0.24450745940E+01 -0.29754358200E+02  0.91800158636E+02  0.85586445533E+02 0.  0.
         13    1    3    3    0    0  0.15934395664E+02  0.12609381305E+02  0.26588077699E+02  0.33463988134E+02  0.10566000000E+00 0. -1.
         22    1    1    0    0    0 -0.14523403352E+02  0.24450745940E+01  0.29754358200E+02  0.33199841364E+02  0.00000000000E+00 0.  1.
</event>
<event>
 5    1  0.6978980E-004  0.9118800E+02  0.7818608E-02  0.1130116E+00
         25   -1    0    0    0    0  0.00000000000E+00  0.00000000000E+00  0.99999998245E-14  0.12500000000E+03  0.12500000000E+03 0.  0.
        -13    1    3    3    0    0  0.36446072604E+02 -0.18589045661E+02 -0.11621474045E+02  0.42531619413E+02  0.10566000000E+00 0. -1.
         23    2    1    0    0    0 -0.13518552002E+02 -0.25571241701E+02  0.49935708127E+01  0.95647395348E+02  0.91032130795E+02 0.  0.
         13    1    3    3    0    0 -0.49964624606E+02 -0.69821960402E+01  0.16615044858E+02  0.53115775935E+02  0.10566000000E+00 0.  1.
         22    1    1    0    0    0  0.13518552002E+02  0.25571241701E+02 -0.49935708127E+01  0.29352604652E+02  0.00000000000E+00 0. -1.
</event>
<event>
 5    1  0.6978980E-004  0.9118800E+02  0.7818608E-02  0.1130116E+00
         25   -1    0    0    0    0  0.00000000000E+00  0.00000000000E+00  0.99999998245E-14  0.12500000000E+03  0.12500000000E+03 0.  0.
        -13    1    3    3    0    0  0.11159236793E+02 -0.14380152493E+02 -0.57328134921E+02  0.60148512609E+02  0.10566000000E+00 0. -1.
         23    2    1    0    0    0  0.21535468117E+01  0.48198593615E+01 -0.28934084615E+02  0.95588266616E+02  0.90950902436E+02 0.  0.
         13    1    3    3    0    0 -0.90056899814E+01  0.19200011855E+02  0.28394050306E+02  0.35439754007E+02  0.10566000000E+00 0.  1.
         22    1    1    0    0    0 -0.21535468117E+01 -0.48198593615E+01  0.28934084615E+02  0.29411733384E+02  0.00000000000E+00 0. -1.
</event>
<event>
 5    1  0.6978980E-004  0.9118800E+02  0.7818608E-02  0.1130116E+00
         25   -1    0    0    0    0  0.00000000000E+00  0.00000000000E+00  0.99999998245E-14  0.12500000000E+03  0.12500000000E+03 0.  0.
        -13    1    3    3    0    0 -0.43316962682E+02  0.91380862315E+01  0.32979768206E+01  0.44393149146E+02  0.10566000000E+00 0. -1.
         23    2    1    0    0    0  0.32834723818E+01  0.27252622614E+02 -0.94131549694E+01  0.95981142050E+02  0.91489264466E+02 0.  0.
         13    1    3    3    0    0  0.46600435063E+02  0.18114536383E+02 -0.12711131790E+02  0.51587992904E+02  0.10566000000E+00 0.  1.
         22    1    1    0    0    0 -0.32834723818E+01 -0.27252622614E+02  0.94131549694E+01  0.29018857950E+02  0.00000000000E+00 0.  1.
</event>
<event>
 5    1  0.6978980E-004  0.9118800E+02  0.7818608E-02  0.1130116E+00
         25   -1    0    0    0    0  0.00000000000E+00  0.00000000000E+00  0.99999998245E-14  0.12500000000E+03  0.12500000000E+03 0.  0.
        -13    1    3    3    0    0 -0.28873291588E+00 -0.50756610263E+02  0.23904915062E+02  0.56105017424E+02  0.10566000000E+00 0.  1.
         23    2    1    0    0    0 -0.13122019959E+02 -0.12259838586E+02  0.21823137575E+02  0.96738004607E+02  0.92517572124E+02 0.  0.
         13    1    3    3    0    0 -0.12833287043E+02  0.38496771677E+02 -0.20817774866E+01  0.40632987183E+02  0.10566000000E+00 0. -1.
         22    1    1    0    0    0  0.13122019959E+02  0.12259838586E+02 -0.21823137575E+02  0.28261995393E+02  0.00000000000E+00 0.  1.
</event>
<event>
 5    1  0.6978980E-004  0.9118800E+02  0.7818608E-02  0.1130116E+00
         25   -1    0    0    0    0  0.00000000000E+00  0.00000000000E+00  0.99999998245E-14  0.12500000000E+03  0.12500000000E+03 0.  0.
        -13    1    3    3    0    0  0.32925392076E+02 -0.12366558079E+01  0.45896883404E+01  0.33266907942E+02  0.10566000000E+00 0. -1.
         23    2    1    0    0    0 -0.28771879734E+02  0.16074374194E+01 -0.49469555660E+01  0.95761715375E+02  0.91188973257E+02 0.  0.
         13    1    3    3    0    0 -0.61697271809E+02  0.28440932273E+01 -0.95366439064E+01  0.62494807433E+02  0.10566000000E+00 0.  1.
         22    1    1    0    0    0  0.28771879734E+02 -0.16074374194E+01  0.49469555660E+01  0.29238284625E+02  0.00000000000E+00 0.  1.
</event>
<event>
 5    1  0.6978980E-004  0.9118800E+02  0.7818608E-02  0.1130116E+00
         25   -1    0    0    0    0  0.00000000000E+00  0.00000000000E+00  0.99999998245E-14  0.12500000000E+03  0.12500000000E+03 0.  0.
        -13    1    3    3    0    0  0.37333369900E+02 -0.36189855169E+02 -0.72548876381E+01  0.52498863644E+02  0.10566000000E+00 0. -1.
         23    2    1    0    0    0 -0.12499069834E+01 -0.24878095467E+02 -0.18177269713E+02  0.94163414006E+02  0.88971082390E+02 0.  0.
         13    1    3    3    0    0 -0.38583276884E+02  0.11311759703E+02 -0.10922382075E+02  0.41664550362E+02  0.10566000000E+00 0.  1.
         22    1    1    0    0    0  0.12499069834E+01  0.24878095467E+02  0.18177269713E+02  0.30836585994E+02  0.00000000000E+00 0. -1.
</event>
<event>
 5    1  0.6978980E-004  0.9118800E+02  0.7818608E-02  0.1130116E+00
         25   -1    0    0    0    0  0.00000000000E+00  0.00000000000E+00  0.99999998245E-14  0.12500000000E+03  0.12500000000E+03 0.  0.
        -13    1    3    3    0    0 -0.20303324852E+02  0.31369997097E+02 -0.83285362490E+01  0.38284166414E+02  0.10566000000E+00 0. -1.
         23    2    1    0    0    0  0.28633504488E+02  0.69916217436E+01  0.62553572824E+01  0.94868789460E+02  0.89956641584E+02 0.  0.
         13    1    3    3    0    0  0.48936829340E+02 -0.24378375353E+02  0.14583893531E+02  0.56584623046E+02  0.10566000000E+00 0.  1.
         22    1    1    0    0    0 -0.28633504488E+02 -0.69916217436E+01 -0.62553572824E+01  0.30131210540E+02  0.00000000000E+00 0.  1.
</event>
<event>
 5    1  0.6978980E-004  0.9118800E+02  0.7818608E-02  0.1130116E+00
         25   -1    0    0    0    0  0.00000000000E+00  0.00000000000E+00  0.99999998245E-14  0.12500000000E+03  0.12500000000E+03 0.  0.
        -13    1    3    3    0    0  0.62714574671E+01  0.24751973930E+02  0.32166011739E+02  0.41068903899E+02  0.10566000000E+00 0. -1.
         23    2    1    0    0    0  0.11605551468E+02  0.86084435414E+01 -0.22467578997E+02  0.98286965147E+02  0.94587215239E+02 0.  0.
         13    1    3    3    0    0  0.53340940008E+01 -0.16143530389E+02 -0.54633590736E+02  0.57218061248E+02  0.10566000000E+00 0.  1.
         22    1    1    0    0    0 -0.11605551468E+02 -0.86084435414E+01  0.22467578997E+02  0.26713034853E+02  0.00000000000E+00 0.  1.
</event>
<event>
 5    1  0.6978980E-004  0.9118800E+02  0.7818608E-02  0.1130116E+00
         25   -1    0    0    0    0  0.00000000000E+00  0.00000000000E+00  0.99999998245E-14  0.12500000000E+03  0.12500000000E+03 0.  0.
        -13    1    3    3    0    0 -0.25187130079E+02 -0.39135335548E+02  0.45525851850E+01  0.46762198472E+02  0.10566000000E+00 0. -1.
         23    2    1    0    0    0 -0.22531022365E+02  0.35132525789E+01 -0.18789100123E+02  0.95453084832E+02  0.90764922784E+02 0.  0.
         13    1    3    3    0    0  0.26561077138E+01  0.42648588127E+02 -0.23341685308E+02  0.48690886360E+02  0.10566000000E+00 0.  1.
         22    1    1    0    0    0  0.22531022365E+02 -0.35132525789E+01  0.18789100123E+02  0.29546915168E+02  0.00000000000E+00 0.  1.
</event>
<event>
 5    1  0.6978980E-004  0.9118800E+02  0.7818608E-02  0.1130116E+00
         25   -1    0    0    0    0  0.00000000000E+00  0.00000000000E+00  0.99999998245E-14  0.12500000000E+03  0.12500000000E+03 0.  0.
        -13    1    3    3    0    0 -0.37162832493E+02  0.12075757315E+01  0.42704954636E+02  0.56623834845E+02  0.10566000000E+00 0. -1.
         23    2    1    0    0    0 -0.27833582165E+02  0.10171554000E+02  0.70707298449E+01  0.94534215463E+02  0.89490523888E+02 0.  0.
         13    1    3    3    0    0  0.93292503276E+01  0.89639782686E+01 -0.35634224791E+02  0.37910380618E+02  0.10566000000E+00 0.  1.
         22    1    1    0    0    0  0.27833582165E+02 -0.10171554000E+02 -0.70707298449E+01  0.30465784537E+02  0.00000000000E+00 0. -1.
</event>
<event>
 5    1  0.6978980E-004  0.9118800E+02  0.7818608E-02  0.1130116E+00
         25   -1    0    0    0    0  0.00000000000E+00  0.00000000000E+00  0.99999998245E-14  0.12500000000E+03  0.12500000000E+03 0.  0.
        -13    1    3    3    0    0  0.25269427249E+02  0.28507874706E+02  0.11375713076E+02  0.39757526152E+02  0.10566000000E+00 0. -1.
         23    2    1    0    0    0 -0.18625253548E+02 -0.34077753081E+01  0.22948181906E+02  0.95248831030E+02  0.90483190469E+02 0.  0.
         13    1    3    3    0    0 -0.43894680798E+02 -0.31915650014E+02  0.11572468830E+02  0.55491304877E+02  0.10566000000E+00 0.  1.
         22    1    1    0    0    0  0.18625253548E+02  0.34077753081E+01 -0.22948181906E+02  0.29751168970E+02  0.00000000000E+00 0.  1.
</event>
<event>
 5    1  0.6978980E-004  0.9118800E+02  0.7818608E-02  0.1130116E+00
         25   -1    0    0    0    0  0.00000000000E+00  0.00000000000E+00  0.99999998245E-14  0.12500000000E+03  0.12500000000E+03 0.  0.
        -13    1    3    3    0    0 -0.14066559623E+02 -0.20299864506E+02 -0.50429027342E+02  0.56152030785E+02  0.10566000000E+00 0.  1.
         23    2    1    0    0    0 -0.14563937228E+02 -0.25452557934E+02 -0.14805862263E+02  0.92149512480E+02  0.86095168971E+02 0.  0.
         13    1    3    3    0    0 -0.49737760476E+00 -0.51526934280E+01  0.35623165080E+02  0.35997481695E+02  0.10566000000E+00 0. -1.
         22    1    1    0    0    0  0.14563937228E+02  0.25452557934E+02  0.14805862263E+02  0.32850487520E+02  0.00000000000E+00 0.  1.
</event>
<event>
 5    1  0.6978980E-004  0.9118800E+02  0.7818608E-02  0.1130116E+00
         25   -1    0    0    0    0  0.00000000000E+00  0.00000000000E+00  0.99999998245E-14  0.12500000000E+03  0.12500000000E+03 0.  0.
        -13    1    3    3    0    0 -0.31618474812E+02  0.38870567914E+02  0.13913729311E+02  0.52002423278E+02  0.10566000000E+00 0.  1.
         23    2    1    0    0    0 -0.28174772850E+02 -0.40910803470E+01  0.73233326566E+01  0.95602959932E+02  0.90971094217E+02 0.  0.
         13    1    3    3    0    0  0.34437019628E+01 -0.42961648261E+02 -0.65903966541E+01  0.43600536655E+02  0.10566000000E+00 0. -1.
         22    1    1    0    0    0  0.28174772850E+02  0.40910803470E+01 -0.73233326566E+01  0.29397040068E+02  0.00000000000E+00 0.  1.
</event>
<event>
 5    1  0.6978980E-004  0.9118800E+02  0.7818608E-02  0.1130116E+00
         25   -1    0    0    0    0  0.00000000000E+00  0.00000000000E+00  0.99999998245E-14  0.12500000000E+03  0.12500000000E+03 0.  0.
        -13    1    3    3    0    0 -0.40080871034E+02 -0.45848674172E+01  0.14946346206E+02  0.43022106655E+02  0.10566000000E+00 0.  1.
         23    2    1    0    0    0  0.10177417844E+02  0.10239537624E+02  0.24765842036E+02  0.96333383588E+02  0.91969266046E+02 0.  0.
         13    1    3    3    0    0  0.50258288878E+02  0.14824405041E+02  0.98194958305E+01  0.53311276933E+02  0.10566000000E+00 0. -1.
         22    1    1    0    0    0 -0.10177417844E+02 -0.10239537624E+02 -0.24765842036E+02  0.28666616412E+02  0.00000000000E+00 0. -1.
</event>
<event>
 5    1  0.6978980E-004  0.9118800E+02  0.7818608E-02  0.1130116E+00
         25   -1    0    0    0    0  0.00000000000E+00  0.00000000000E+00  0.99999998245E-14  0.12500000000E+03  0.12500000000E+03 0.  0.
        -13    1    3    3    0    0 -0.88416132601E+01 -0.16320800588E+02 -0.36877355470E+02  0.41285507958E+02  0.10566000000E+00 0.  1.
         23    2    1    0    0    0  0.16198170688E+02  0.22909262775E+02 -0.90085184077E+01  0.95531907791E+02  0.90873411665E+02 0.  0.
         13    1    3    3    0    0  0.25039783948E+02  0.39230063363E+02  0.27868837062E+02  0.54246399833E+02  0.10566000000E+00 0. -1.
         22    1    1    0    0    0 -0.16198170688E+02 -0.22909262775E+02  0.90085184077E+01  0.29468092209E+02  0.00000000000E+00 0. -1.
</event>
<event>
 5    1  0.6978980E-004  0.9118800E+02  0.7818608E-02  0.1130116E+00
         25   -1    0    0    0    0  0.00000000000E+00  0.00000000000E+00  0.99999998245E-14  0.12500000000E+03  0.12500000000E+03 0.  0.
        -13    1    3    3    0    0  0.31462084971E+02 -0.39520178971E+02  0.17602299451E+02  0.53493545841E+02  0.10566000000E+00 0. -1.
         23    2    1    0    0    0  0.26285748323E+02 -0.80920793550E+01 -0.10094311970E+02  0.95702944733E+02  0.91108376032E+02 0.  0.
         13    1    3    3    0    0 -0.51763366485E+01  0.31428099616E+02 -0.27696611421E+02  0.42209398892E+02  0.10566000000E+00 0.  1.
         22    1    1    0    0    0 -0.26285748323E+02  0.80920793550E+01  0.10094311970E+02  0.29297055267E+02  0.00000000000E+00 0.  1.
</event>
<event>
 5    1  0.6978980E-004  0.9118800E+02  0.7818608E-02  0.1130116E+00
         25   -1    0    0    0    0  0.00000000000E+00  0.00000000000E+00  0.99999998245E-14  0.12500000000E+03  0.12500000000E+03 0.  0.
        -13    1    3    3    0    0 -0.35809053123E+02 -0.15756429405E+02 -0.47761786521E+02  0.61739393979E+02  0.10566000000E+00 0.  1.
         23    2    1    0    0    0 -0.20379672768E+02 -0.10265915878E+02 -0.17158305616E+02  0.96449561430E+02  0.92127033804E+02 0.  0.
         13    1    3    3    0    0  0.15429380355E+02  0.54905135267E+01  0.30603480905E+02  0.34710167451E+02  0.10566000000E+00 0. -1.
         22    1    1    0    0    0  0.20379672768E+02  0.10265915878E+02  0.17158305616E+02  0.28550438570E+02  0.00000000000E+00 0.  1.
</event>
<event>
 5    1  0.6978980E-004  0.9118800E+02  0.7818608E-02  0.1130116E+00
         25   -1    0    0    0    0  0.00000000000E+00  0.00000000000E+00  0.99999998245E-14  0.12500000000E+03  0.12500000000E+03 0.  0.
        -13    1    3    3    0    0 -0.34082265697E+02  0.40270571677E+02  0.56094624781E+01  0.53054660601E+02  0.10566000000E+00 0. -1.
         23    2    1    0    0    0 -0.76680579419E+01  0.19437795262E+02 -0.20567317122E+02  0.95680355889E+02  0.91077379036E+02 0.  0.
         13    1    3    3    0    0  0.26414207755E+02 -0.20832776415E+02 -0.26176779600E+02  0.42625695287E+02  0.10566000000E+00 0.  1.
         22    1    1    0    0    0  0.76680579419E+01 -0.19437795262E+02  0.20567317122E+02  0.29319644111E+02  0.00000000000E+00 0. -1.
</event>
<event>
 5    1  0.6978980E-004  0.9118800E+02  0.7818608E-02  0.1130116E+00
         25   -1    0    0    0    0  0.00000000000E+00  0.00000000000E+00  0.99999998245E-14  0.12500000000E+03  0.12500000000E+03 0.  0.
        -13    1    3    3    0    0  0.47936677520E+02 -0.19508183262E+02 -0.88587322905E+01  0.52506976372E+02  0.10566000000E+00 0.  1.
         23    2    1    0    0    0  0.24871721589E+02 -0.76653660024E+01  0.20641614942E+02  0.91781983229E+02  0.85559896022E+02 0.  0.
         13    1    3    3    0    0 -0.23064955931E+02  0.11842817260E+02  0.29500347233E+02  0.39275006857E+02  0.10566000000E+00 0. -1.
         22    1    1    0    0    0 -0.24871721589E+02  0.76653660024E+01 -0.20641614942E+02  0.33218016771E+02  0.00000000000E+00 0.  1.
</event>
<event>
 5    1  0.6978980E-004  0.9118800E+02  0.7818608E-02  0.1130116E+00
         25   -1    0    0    0    0  0.00000000000E+00  0.00000000000E+00  0.99999998245E-14  0.12500000000E+03  0.12500000000E+03 0.  0.
        -13    1    3    3    0    0  0.18541741018E+02 -0.17238977305E+02  0.43231739613E+02  0.50099630463E+02  0.10566000000E+00 0.  1.
         23    2    1    0    0    0 -0.13021616176E+02  0.10653227051E+02  0.22099879228E+02  0.97224860102E+02  0.93173038083E+02 0.  0.
         13    1    3    3    0    0 -0.31563357194E+02  0.27892204356E+02 -0.21131860385E+02  0.47125229640E+02  0.10566000000E+00 0. -1.
         22    1    1    0    0    0  0.13021616176E+02 -0.10653227051E+02 -0.22099879228E+02  0.27775139898E+02  0.00000000000E+00 0.  1.
</event>
<event>
 5    1  0.6978980E-004  0.9118800E+02  0.7818608E-02  0.1130116E+00
         25   -1    0    0    0    0  0.00000000000E+00  0.00000000000E+00  0.99999998245E-14  0.12500000000E+03  0.12500000000E+03 0.  0.
        -13    1    3    3    0    0  0.36674229488E+02  0.29687251814E+02 -0.39166414336E+02  0.61321702560E+02  0.10566000000E+00 0. -1.
         23    2    1    0    0    0  0.20011623966E+02  0.19756760100E+02 -0.12677941580E+02  0.94153203309E+02  0.88956735704E+02 0.  0.
         13    1    3    3    0    0 -0.16662605523E+02 -0.99304917139E+01  0.26488472756E+02  0.32831500749E+02  0.10566000000E+00 0.  1.
         22    1    1    0    0    0 -0.20011623966E+02 -0.19756760100E+02  0.12677941580E+02  0.30846796691E+02  0.00000000000E+00 0. -1.
</event>
<event>
 5    1  0.6978980E-004  0.9118800E+02  0.7818608E-02  0.1130116E+00
         25   -1    0    0    0    0  0.00000000000E+00  0.00000000000E+00  0.99999998245E-14  0.12500000000E+03  0.12500000000E+03 0.  0.
        -13    1    3    3    0    0  0.12635143395E+02 -0.40857997615E+02  0.77369867176E+01  0.43461419043E+02  0.10566000000E+00 0.  1.
         23    2    1    0    0    0  0.88528380376E+00 -0.71927066803E+01  0.35572518921E+02  0.88696792715E+02  0.80927116461E+02 0.  0.
         13    1    3    3    0    0 -0.11749859591E+02  0.33665290935E+02  0.27835532204E+02  0.45235373672E+02  0.10566000000E+00 0. -1.
         22    1    1    0    0    0 -0.88528380376E+00  0.71927066803E+01 -0.35572518921E+02  0.36303207285E+02  0.00000000000E+00 0. -1.
</event>
<event>
 5    1  0.6978980E-004  0.9118800E+02  0.7818608E-02  0.1130116E+00
         25   -1    0    0    0    0  0.00000000000E+00  0.00000000000E+00  0.99999998245E-14  0.12500000000E+03  0.12500000000E+03 0.  0.
        -13    1    3    3    0    0  0.10754622515E+01  0.68287471728E+01 -0.51243413534E+02  0.51707707372E+02  0.10566000000E+00 0.  1.
         23    2    1    0    0    0  0.24229526438E+02  0.89595494722E+01 -0.13990273918E+02  0.95621925822E+02  0.90997150810E+02 0.  0.
         13    1    3    3    0    0  0.23154064186E+02  0.21308022993E+01  0.37253139616E+02  0.43914218450E+02  0.10566000000E+00 0. -1.
         22    1    1    0    0    0 -0.24229526438E+02 -0.89595494722E+01  0.13990273918E+02  0.29378074178E+02  0.00000000000E+00 0.  1.
</event>
<event>
 5    1  0.6978980E-004  0.9118800E+02  0.7818608E-02  0.1130116E+00
         25   -1    0    0    0    0  0.00000000000E+00  0.00000000000E+00  0.99999998245E-14  0.12500000000E+03  0.12500000000E+03 0.  0.
        -13    1    3    3    0    0 -0.80736731331E-01 -0.42649081079E+02  0.29182828511E+00  0.42650286788E+02  0.10566000000E+00 0.  1.
         23    2    1    0    0    0 -0.24064047812E+02  0.22503870004E+01 -0.15903331815E+02  0.96068034952E+02  0.91607907617E+02 0.  0.
         13    1    3    3    0    0 -0.23983311080E+02  0.44899468079E+02 -0.16195160101E+02  0.53417748164E+02  0.10566000000E+00 0. -1.
         22    1    1    0    0    0  0.24064047812E+02 -0.22503870004E+01  0.15903331815E+02  0.28931965048E+02  0.00000000000E+00 0. -1.
</event>
<event>
 5    1  0.6978980E-004  0.9118800E+02  0.7818608E-02  0.1130116E+00
         25   -1    0    0    0    0  0.00000000000E+00  0.00000000000E+00  0.99999998245E-14  0.12500000000E+03  0.12500000000E+03 0.  0.
        -13    1    3    3    0    0 -0.15987746834E+02 -0.65527300935E+01  0.57910762897E+02  0.60433549820E+02  0.10566000000E+00 0. -1.
         23    2    1    0    0    0 -0.27071170993E+01  0.71914253609E+01  0.28288533184E+02  0.95686416265E+02  0.91085696277E+02 0.  0.
         13    1    3    3    0    0  0.13280629735E+02  0.13744155454E+02 -0.29622229714E+02  0.35252866445E+02  0.10566000000E+00 0.  1.
         22    1    1    0    0    0  0.27071170993E+01 -0.71914253609E+01 -0.28288533184E+02  0.29313583735E+02  0.00000000000E+00 0. -1.
</event>
<event>
 5    1  0.6978980E-004  0.9118800E+02  0.7818608E-02  0.1130116E+00
         25   -1    0    0    0    0  0.00000000000E+00  0.00000000000E+00  0.99999998245E-14  0.12500000000E+03  0.12500000000E+03 0.  0.
        -13    1    3    3    0    0 -0.12284326534E+02  0.87737489476E+00  0.36245777169E+02  0.38281091830E+02  0.10566000000E+00 0.  1.
         23    2    1    0    0    0  0.91603269544E+01 -0.68170291691E+01 -0.21663680497E+02  0.10051125709E+03  0.97482379293E+02 0.  0.
         13    1    3    3    0    0  0.21444653488E+02 -0.76944040639E+01 -0.57909457666E+02  0.62230165260E+02  0.10566000000E+00 0. -1.
         22    1    1    0    0    0 -0.91603269544E+01  0.68170291691E+01  0.21663680497E+02  0.24488742910E+02  0.00000000000E+00 0. -1.
</event>
<event>
 5    1  0.6978980E-004  0.9118800E+02  0.7818608E-02  0.1130116E+00
         25   -1    0    0    0    0  0.00000000000E+00  0.00000000000E+00  0.99999998245E-14  0.12500000000E+03  0.12500000000E+03 0.  0.
        -13    1    3    3    0    0  0.21180820238E+02  0.11816501005E+00  0.36421331139E+02  0.42132714544E+02  0.10566000000E+00 0.  1.
         23    2    1    0    0    0  0.66267964007E+01  0.29628223156E+02 -0.41364699844E+01  0.94359235945E+02  0.89245778535E+02 0.  0.
         13    1    3    3    0    0 -0.14554023837E+02  0.29510058146E+02 -0.40557801123E+02  0.52226521401E+02  0.10566000000E+00 0. -1.
         22    1    1    0    0    0 -0.66267964007E+01 -0.29628223156E+02  0.41364699844E+01  0.30640764055E+02  0.00000000000E+00 0. -1.
</event>
<event>
 5    1  0.6978980E-004  0.9118800E+02  0.7818608E-02  0.1130116E+00
         25   -1    0    0    0    0  0.00000000000E+00  0.00000000000E+00  0.99999998245E-14  0.12500000000E+03  0.12500000000E+03 0.  0.
        -13    1    3    3    0    0 -0.34251347934E+01 -0.47571316926E+02  0.29828972255E+02  0.56254248660E+02  0.10566000000E+00 0. -1.
         23    2    1    0    0    0 -0.20368730524E+02 -0.22730154602E+02  0.22148561548E+02  0.87289207247E+02  0.78722943364E+02 0.  0.
         13    1    3    3    0    0 -0.16943595730E+02  0.24841162324E+02 -0.76804107076E+01  0.31034958588E+02  0.10566000000E+00 0.  1.
         22    1    1    0    0    0  0.20368730524E+02  0.22730154602E+02 -0.22148561548E+02  0.37710792753E+02  0.00000000000E+00 0. -1.
</event>
<event>
 5    1  0.6978980E-004  0.9118800E+02  0.7818608E-02  0.1130116E+00
         25   -1    0    0    0    0  0.00000000000E+00  0.00000000000E+00  0.99999998245E-14  0.12500000000E+03  0.12500000000E+03 0.  0.
        -13    1    3    3    0    0  0.28514054631E+01 -0.35779445629E+01  0.24706335285E+02  0.25126606768E+02  0.10566000000E+00 0.  1.
         23    2    1    0    0    0 -0.52042697885E+01  0.22000022796E+01 -0.36973062809E+02  0.87597703179E+02  0.79211273154E+02 0.  0.
         13    1    3    3    0    0 -0.80556752517E+01  0.57779468425E+01 -0.61679398094E+02  0.62471096411E+02  0.10566000000E+00 0. -1.
         22    1    1    0    0    0  0.52042697885E+01 -0.22000022796E+01  0.36973062809E+02  0.37402296821E+02  0.00000000000E+00 0. -1.
</event>
<event>
 5    1  0.6978980E-004  0.9118800E+02  0.7818608E-02  0.1130116E+00
         25   -1    0    0    0    0  0.00000000000E+00  0.00000000000E+00  0.99999998245E-14  0.12500000000E+03  0.12500000000E+03 0.  0.
        -13    1    3    3    0    0  0.99082811242E+01  0.32069692465E+02 -0.12044421328E+02  0.35661161770E+02  0.10566000000E+00 0.  1.
         23    2    1    0    0    0 -0.13545928432E+02 -0.87953153824E+01  0.24752253014E+02  0.95444564307E+02  0.90753187695E+02 0.  0.
         13    1    3    3    0    0 -0.23454209556E+02 -0.40865007847E+02  0.36796674341E+02  0.59783402537E+02  0.10566000000E+00 0. -1.
         22    1    1    0    0    0  0.13545928432E+02  0.87953153824E+01 -0.24752253014E+02  0.29555435693E+02  0.00000000000E+00 0. -1.
</event>
<event>
 5    1  0.6978980E-004  0.9118800E+02  0.7818608E-02  0.1130116E+00
         25   -1    0    0    0    0  0.00000000000E+00  0.00000000000E+00  0.99999998245E-14  0.12500000000E+03  0.12500000000E+03 0.  0.
        -13    1    3    3    0    0 -0.26144871396E+01  0.14149275003E+02 -0.25285312922E+02  0.29092881255E+02  0.10566000000E+00 0. -1.
         23    2    1    0    0    0  0.20008444973E+02 -0.30063911192E+02  0.68431474466E+01  0.88243976094E+02  0.80224647232E+02 0.  0.
         13    1    3    3    0    0  0.22622932113E+02 -0.44213186195E+02  0.32128460369E+02  0.59151094839E+02  0.10566000000E+00 0.  1.
         22    1    1    0    0    0 -0.20008444973E+02  0.30063911192E+02 -0.68431474466E+01  0.36756023906E+02  0.00000000000E+00 0.  1.
</event>
<event>
 5    1  0.6978980E-004  0.9118800E+02  0.7818608E-02  0.1130116E+00
         25   -1    0    0    0    0  0.00000000000E+00  0.00000000000E+00  0.99999998245E-14  0.12500000000E+03  0.12500000000E+03 0.  0.
        -13    1    3    3    0    0 -0.30315783886E+02 -0.17786877938E+02  0.77054254431E+01  0.35983392346E+02  0.10566000000E+00 0.  1.
         23    2    1    0    0    0  0.23933952281E+02 -0.49898613372E+01 -0.15163121261E+02  0.96231040437E+02  0.91830061033E+02 0.  0.
         13    1    3    3    0    0  0.54249736168E+02  0.12797016601E+02 -0.22868546704E+02  0.60247648091E+02  0.10566000000E+00 0. -1.
         22    1    1    0    0    0 -0.23933952281E+02  0.49898613372E+01  0.15163121261E+02  0.28768959563E+02  0.00000000000E+00 0. -1.
</event>
<event>
 5    1  0.6978980E-004  0.9118800E+02  0.7818608E-02  0.1130116E+00
         25   -1    0    0    0    0  0.00000000000E+00  0.00000000000E+00  0.99999998245E-14  0.12500000000E+03  0.12500000000E+03 0.  0.
        -13    1    3    3    0    0 -0.98262376473E+01  0.27642861847E+02 -0.22159285665E+02  0.36765851855E+02  0.10566000000E+00 0.  1.
         23    2    1    0    0    0  0.39149260061E+01  0.17261692334E+02  0.29154806781E+02  0.90892883055E+02  0.84250939246E+02 0.  0.
         13    1    3    3    0    0  0.13741163653E+02 -0.10381169513E+02  0.51314092446E+02  0.54127031200E+02  0.10566000000E+00 0. -1.
         22    1    1    0    0    0 -0.39149260061E+01 -0.17261692334E+02 -0.29154806781E+02  0.34107116945E+02  0.00000000000E+00 0. -1.
</event>
<event>
 5    1  0.6978980E-004  0.9118800E+02  0.7818608E-02  0.1130116E+00
         25   -1    0    0    0    0  0.00000000000E+00  0.00000000000E+00  0.99999998245E-14  0.12500000000E+03  0.12500000000E+03 0.  0.
        -13    1    3    3    0    0 -0.83205849122E+01  0.41210134932E+02  0.96781436850E+01  0.43141453193E+02  0.10566000000E+00 0.  1.
         23    2    1    0    0    0 -0.78785054439E+01  0.11462040319E+01 -0.26626030358E+02  0.97209171939E+02  0.93151988625E+02 0.  0.
         13    1    3    3    0    0  0.44207946826E+00 -0.40063930900E+02 -0.36304174043E+02  0.54067718746E+02  0.10566000000E+00 0. -1.
         22    1    1    0    0    0  0.78785054439E+01 -0.11462040319E+01  0.26626030358E+02  0.27790828061E+02  0.00000000000E+00 0. -1.
</event>
<event>
 5    1  0.6978980E-004  0.9118800E+02  0.7818608E-02  0.1130116E+00
         25   -1    0    0    0    0  0.00000000000E+00  0.00000000000E+00  0.99999998245E-14  0.12500000000E+03  0.12500000000E+03 0.  0.
        -13    1    3    3    0    0  0.15983591787E+02  0.29193013713E+02 -0.31729834091E+02  0.45983701369E+02  0.10566000000E+00 0. -1.
         23    2    1    0    0    0 -0.88792243587E+01  0.26516700112E+02  0.10555827590E+02  0.95110177215E+02  0.90291440922E+02 0.  0.
         13    1    3    3    0    0 -0.24862816146E+02 -0.26763136014E+01  0.42285661681E+02  0.49126475846E+02  0.10566000000E+00 0.  1.
         22    1    1    0    0    0  0.88792243587E+01 -0.26516700112E+02 -0.10555827590E+02  0.29889822785E+02  0.00000000000E+00 0.  1.
</event>
<event>
 5    1  0.6978980E-004  0.9118800E+02  0.7818608E-02  0.1130116E+00
         25   -1    0    0    0    0  0.00000000000E+00  0.00000000000E+00  0.99999998245E-14  0.12500000000E+03  0.12500000000E+03 0.  0.
        -13    1    3    3    0    0 -0.26298205263E+02 -0.21211526378E+02  0.30763282279E+02  0.45693710201E+02  0.10566000000E+00 0. -1.
         23    2    1    0    0    0 -0.80811254951E+01 -0.24389653656E+02 -0.15136930378E+02  0.95179093642E+02  0.90386798873E+02 0.  0.
         13    1    3    3    0    0  0.18217079768E+02 -0.31781272785E+01 -0.45900212657E+02  0.49485383441E+02  0.10566000000E+00 0.  1.
         22    1    1    0    0    0  0.80811254951E+01  0.24389653656E+02  0.15136930378E+02  0.29820906358E+02  0.00000000000E+00 0.  1.
</event>
<event>
 5    1  0.6978980E-004  0.9118800E+02  0.7818608E-02  0.1130116E+00
         25   -1    0    0    0    0  0.00000000000E+00  0.00000000000E+00  0.99999998245E-14  0.12500000000E+03  0.12500000000E+03 0.  0.
        -13    1    3    3    0    0 -0.57730997772E+01  0.43285177370E+02 -0.30024821330E+01  0.43771695466E+02  0.10566000000E+00 0.  1.
         23    2    1    0    0    0  0.11405065468E+02  0.13752492272E+00 -0.26740669588E+02  0.95928401464E+02  0.91417177631E+02 0.  0.
         13    1    3    3    0    0  0.17178165245E+02 -0.43147652447E+02 -0.23738187455E+02  0.52156705998E+02  0.10566000000E+00 0. -1.
         22    1    1    0    0    0 -0.11405065468E+02 -0.13752492272E+00  0.26740669588E+02  0.29071598536E+02  0.00000000000E+00 0. -1.
</event>
<event>
 5    1  0.6978980E-004  0.9118800E+02  0.7818608E-02  0.1130116E+00
         25   -1    0    0    0    0  0.00000000000E+00  0.00000000000E+00  0.99999998245E-14  0.12500000000E+03  0.12500000000E+03 0.  0.
        -13    1    3    3    0    0 -0.31206498588E+02 -0.28451248713E+01 -0.17379593600E+02  0.35832969838E+02  0.10566000000E+00 0.  1.
         23    2    1    0    0    0  0.27515944687E+02  0.31262823044E+01 -0.11000903137E+02  0.95202001361E+02  0.90418473446E+02 0.  0.
         13    1    3    3    0    0  0.58722443275E+02  0.59714071758E+01  0.63786904629E+01  0.59369031523E+02  0.10566000000E+00 0. -1.
         22    1    1    0    0    0 -0.27515944687E+02 -0.31262823044E+01  0.11000903137E+02  0.29797998639E+02  0.00000000000E+00 0. -1.
</event>
<event>
 5    1  0.6978980E-004  0.9118800E+02  0.7818608E-02  0.1130116E+00
         25   -1    0    0    0    0  0.00000000000E+00  0.00000000000E+00  0.99999998245E-14  0.12500000000E+03  0.12500000000E+03 0.  0.
        -13    1    3    3    0    0 -0.26194838530E+01 -0.95997296637E+01  0.35975088460E+02  0.37326058713E+02  0.10566000000E+00 0.  1.
         23    2    1    0    0    0 -0.16952900551E+02 -0.19590661586E+02 -0.17601040900E+02  0.93679216178E+02  0.88288187457E+02 0.  0.
         13    1    3    3    0    0 -0.14333416698E+02 -0.99909319224E+01 -0.53576129361E+02  0.56353157465E+02  0.10566000000E+00 0. -1.
         22    1    1    0    0    0  0.16952900551E+02  0.19590661586E+02  0.17601040900E+02  0.31320783822E+02  0.00000000000E+00 0. -1.
</event>
<event>
 5    1  0.6978980E-004  0.9118800E+02  0.7818608E-02  0.1130116E+00
         25   -1    0    0    0    0  0.00000000000E+00  0.00000000000E+00  0.99999998245E-14  0.12500000000E+03  0.12500000000E+03 0.  0.
        -13    1    3    3    0    0 -0.24842896496E+01  0.19522395884E+01 -0.21188740438E+02  0.21423277523E+02  0.10566000000E+00 0.  1.
         23    2    1    0    0    0  0.24170189292E+02  0.40192349484E+02  0.93870954539E+01  0.77169668949E+02  0.60559204397E+02 0.  0.
         13    1    3    3    0    0  0.26654478942E+02  0.38240109895E+02  0.30575835891E+02  0.55746391425E+02  0.10566000000E+00 0. -1.
         22    1    1    0    0    0 -0.24170189292E+02 -0.40192349484E+02 -0.93870954539E+01  0.47830331051E+02  0.00000000000E+00 0. -1.
</event>
<event>
 5    1  0.6978980E-004  0.9118800E+02  0.7818608E-02  0.1130116E+00
         25   -1    0    0    0    0  0.00000000000E+00  0.00000000000E+00  0.99999998245E-14  0.12500000000E+03  0.12500000000E+03 0.  0.
        -13    1    3    3    0    0  0.19049825101E+02 -0.16219269330E+02 -0.48501985564E+02  0.54574850450E+02  0.10566000000E+00 0.  1.
         23    2    1    0    0    0  0.11869914243E+02  0.14791616046E+02 -0.21636244198E+02  0.96228245928E+02  0.91826257040E+02 0.  0.
         13    1    3    3    0    0 -0.71799108582E+01  0.31010885375E+02  0.26865741366E+02  0.41653395478E+02  0.10566000000E+00 0. -1.
         22    1    1    0    0    0 -0.11869914243E+02 -0.14791616046E+02  0.21636244198E+02  0.28771754072E+02  0.00000000000E+00 0.  1.
</event>
<event>
 5    1  0.6978980E-004  0.9118800E+02  0.7818608E-02  0.1130116E+00
         25   -1    0    0    0    0  0.00000000000E+00  0.00000000000E+00  0.99999998245E-14  0.12500000000E+03  0.12500000000E+03 0.  0.
        -13    1    3    3    0    0 -0.62661210647E+01 -0.34273598932E+02 -0.17761823924E+02  0.39108022324E+02  0.10566000000E+00 0. -1.
         23    2    1    0    0    0  0.15980979307E+02 -0.61619797205E+01  0.24865558497E+02  0.94806330249E+02  0.89869808958E+02 0.  0.
         13    1    3    3    0    0  0.22247100372E+02  0.28111619211E+02  0.42627382421E+02  0.55698307925E+02  0.10566000000E+00 0.  1.
         22    1    1    0    0    0 -0.15980979307E+02  0.61619797205E+01 -0.24865558497E+02  0.30193669751E+02  0.00000000000E+00 0.  1.
</event>
<event>
 5    1  0.6978980E-004  0.9118800E+02  0.7818608E-02  0.1130116E+00
         25   -1    0    0    0    0  0.00000000000E+00  0.00000000000E+00  0.99999998245E-14  0.12500000000E+03  0.12500000000E+03 0.  0.
        -13    1    3    3    0    0 -0.97183986199E-01 -0.13044056598E+02 -0.43608274560E+02  0.45517574973E+02  0.10566000000E+00 0.  1.
         23    2    1    0    0    0  0.92462472239E+01  0.24823545324E+02 -0.11152986997E+02  0.96258207970E+02  0.91867034307E+02 0.  0.
         13    1    3    3    0    0  0.93434312101E+01  0.37867601922E+02  0.32455287563E+02  0.50740632997E+02  0.10566000000E+00 0. -1.
         22    1    1    0    0    0 -0.92462472239E+01 -0.24823545324E+02  0.11152986997E+02  0.28741792030E+02  0.00000000000E+00 0. -1.
</event>
<event>
 5    1  0.6978980E-004  0.9118800E+02  0.7818608E-02  0.1130116E+00
         25   -1    0    0    0    0  0.00000000000E+00  0.00000000000E+00  0.99999998245E-14  0.12500000000E+03  0.12500000000E+03 0.  0.
        -13    1    3    3    0    0 -0.55153454107E+01 -0.57287035588E+02 -0.21214752983E+02  0.61337593608E+02  0.10566000000E+00 0.  1.
         23    2    1    0    0    0 -0.10035357992E+02 -0.35597537102E+02 -0.79186665540E+01  0.87176748716E+02  0.78544173424E+02 0.  0.
         13    1    3    3    0    0 -0.45200125812E+01  0.21689498486E+02  0.13296086429E+02  0.25839155108E+02  0.10566000000E+00 0. -1.
         22    1    1    0    0    0  0.10035357992E+02  0.35597537102E+02  0.79186665540E+01  0.37823251284E+02  0.00000000000E+00 0.  1.
</event>
<event>
 5    1  0.6978980E-004  0.9118800E+02  0.7818608E-02  0.1130116E+00
         25   -1    0    0    0    0  0.00000000000E+00  0.00000000000E+00  0.99999998245E-14  0.12500000000E+03  0.12500000000E+03 0.  0.
        -13    1    3    3    0    0  0.34824610497E+02  0.12005117076E+02 -0.46443269196E+02  0.59277860538E+02  0.10566000000E+00 0. -1.
         23    2    1    0    0    0  0.89390166647E+01  0.17851064514E+02 -0.19959203379E+02  0.96769939378E+02  0.92560708967E+02 0.  0.
         13    1    3    3    0    0 -0.25885593832E+02  0.58459474372E+01  0.26484065817E+02  0.37492078840E+02  0.10566000000E+00 0.  1.
         22    1    1    0    0    0 -0.89390166647E+01 -0.17851064514E+02  0.19959203379E+02  0.28230060622E+02  0.00000000000E+00 0. -1.
</event>
<event>
 5    1  0.6978980E-004  0.9118800E+02  0.7818608E-02  0.1130116E+00
         25   -1    0    0    0    0  0.00000000000E+00  0.00000000000E+00  0.99999998245E-14  0.12500000000E+03  0.12500000000E+03 0.  0.
        -13    1    3    3    0    0  0.46945900067E+02 -0.28239296467E+02 -0.28839780885E+02  0.61912192043E+02  0.10566000000E+00 0. -1.
         23    2    1    0    0    0  0.23728073276E+02 -0.17734440381E+02 -0.95433113966E+01  0.93877554251E+02  0.88568552899E+02 0.  0.
         13    1    3    3    0    0 -0.23217826791E+02  0.10504856087E+02  0.19296469489E+02  0.31965362207E+02  0.10566000000E+00 0.  1.
         22    1    1    0    0    0 -0.23728073276E+02  0.17734440381E+02  0.95433113966E+01  0.31122445749E+02  0.00000000000E+00 0. -1.
</event>
<event>
 5    1  0.6978980E-004  0.9118800E+02  0.7818608E-02  0.1130116E+00
         25   -1    0    0    0    0  0.00000000000E+00  0.00000000000E+00  0.99999998245E-14  0.12500000000E+03  0.12500000000E+03 0.  0.
        -13    1    3    3    0    0 -0.36678588993E+02 -0.14165116906E+01  0.49987049622E+02  0.62016463055E+02  0.10566000000E+00 0.  1.
         23    2    1    0    0    0 -0.12460441873E+02 -0.21794503723E+00  0.26215379664E+02  0.95973180632E+02  0.91478386289E+02 0.  0.
         13    1    3    3    0    0  0.24218147120E+02  0.11985666533E+01 -0.23771669958E+02  0.33956717577E+02  0.10566000000E+00 0. -1.
         22    1    1    0    0    0  0.12460441873E+02  0.21794503723E+00 -0.26215379664E+02  0.29026819368E+02  0.00000000000E+00 0.  1.
</event>
<event>
 5    1  0.6978980E-004  0.9118800E+02  0.7818608E-02  0.1130116E+00
         25   -1    0    0    0    0  0.00000000000E+00  0.00000000000E+00  0.99999998245E-14  0.12500000000E+03  0.12500000000E+03 0.  0.
        -13    1    3    3    0    0 -0.33516017619E+02  0.73867006571E+01  0.40066039720E+02  0.52755904755E+02  0.10566000000E+00 0.  1.
         23    2    1    0    0    0  0.72612719442E+01  0.17077482150E+01  0.28527748471E+02  0.95513140095E+02  0.90847592284E+02 0.  0.
         13    1    3    3    0    0  0.40777289563E+02 -0.56789524422E+01 -0.11538291249E+02  0.42757235340E+02  0.10566000000E+00 0. -1.
         22    1    1    0    0    0 -0.72612719442E+01 -0.17077482150E+01 -0.28527748471E+02  0.29486859905E+02  0.00000000000E+00 0.  1.
</event>
<event>
 5    1  0.6978980E-004  0.9118800E+02  0.7818608E-02  0.1130116E+00
         25   -1    0    0    0    0  0.00000000000E+00  0.00000000000E+00  0.99999998245E-14  0.12500000000E+03  0.12500000000E+03 0.  0.
        -13    1    3    3    0    0 -0.20303630055E+02 -0.73543026898E+01 -0.32532024171E+02  0.39046983522E+02  0.10566000000E+00 0. -1.
         23    2    1    0    0    0  0.22436563774E+02  0.17479075420E+02 -0.35762869342E+01  0.96334562627E+02  0.91970868523E+02 0.  0.
         13    1    3    3    0    0  0.42740193829E+02  0.24833378109E+02  0.28955737237E+02  0.57287579106E+02  0.10566000000E+00 0.  1.
         22    1    1    0    0    0 -0.22436563774E+02 -0.17479075420E+02  0.35762869342E+01  0.28665437373E+02  0.00000000000E+00 0.  1.
</event>
<event>
 5    1  0.6978980E-004  0.9118800E+02  0.7818608E-02  0.1130116E+00
         25   -1    0    0    0    0  0.00000000000E+00  0.00000000000E+00  0.99999998245E-14  0.12500000000E+03  0.12500000000E+03 0.  0.
        -13    1    3    3    0    0  0.53263500509E+00  0.43550679293E+02 -0.39584052186E+02  0.58854513153E+02  0.10566000000E+00 0.  1.
         23    2    1    0    0    0  0.15093179737E+02  0.17477860815E+02 -0.18500372564E+02  0.95410416051E+02  0.90706140987E+02 0.  0.
         13    1    3    3    0    0  0.14560544732E+02 -0.26072818478E+02  0.21083679622E+02  0.36555902899E+02  0.10566000000E+00 0. -1.
         22    1    1    0    0    0 -0.15093179737E+02 -0.17477860815E+02  0.18500372564E+02  0.29589583949E+02  0.00000000000E+00 0.  1.
</event>
<event>
 5    1  0.6978980E-004  0.9118800E+02  0.7818608E-02  0.1130116E+00
         25   -1    0    0    0    0  0.00000000000E+00  0.00000000000E+00  0.99999998245E-14  0.12500000000E+03  0.12500000000E+03 0.  0.
        -13    1    3    3    0    0 -0.50620137467E+02  0.89617410695E+01 -0.34024705991E+02  0.61647407909E+02  0.10566000000E+00 0.  1.
         23    2    1    0    0    0 -0.27550445512E+02  0.71721729564E+01 -0.10468025626E+02  0.94667728847E+02  0.89676820928E+02 0.  0.
         13    1    3    3    0    0  0.23069691955E+02 -0.17895681132E+01  0.23556680366E+02  0.33020320937E+02  0.10566000000E+00 0. -1.
         22    1    1    0    0    0  0.27550445512E+02 -0.71721729564E+01  0.10468025626E+02  0.30332271153E+02  0.00000000000E+00 0.  1.
</event>
<event>
 5    1  0.6978980E-004  0.9118800E+02  0.7818608E-02  0.1130116E+00
         25   -1    0    0    0    0  0.00000000000E+00  0.00000000000E+00  0.99999998245E-14  0.12500000000E+03  0.12500000000E+03 0.  0.
        -13    1    3    3    0    0  0.33051496472E+02  0.98366235214E+01 -0.26849004253E+01  0.34588732785E+02  0.10566000000E+00 0. -1.
         23    2    1    0    0    0 -0.25383999266E+02  0.53076089150E+01 -0.15778244894E+02  0.94644256835E+02  0.89644097457E+02 0.  0.
         13    1    3    3    0    0 -0.58435495739E+02 -0.45290146064E+01 -0.13093344469E+02  0.60055524050E+02  0.10566000000E+00 0.  1.
         22    1    1    0    0    0  0.25383999266E+02 -0.53076089150E+01  0.15778244894E+02  0.30355743165E+02  0.00000000000E+00 0.  1.
</event>
<event>
 5    1  0.6978980E-004  0.9118800E+02  0.7818608E-02  0.1130116E+00
         25   -1    0    0    0    0  0.00000000000E+00  0.00000000000E+00  0.99999998245E-14  0.12500000000E+03  0.12500000000E+03 0.  0.
        -13    1    3    3    0    0  0.11591911311E+02  0.35321093486E+02 -0.17310587685E+02  0.41007556169E+02  0.10566000000E+00 0. -1.
         23    2    1    0    0    0  0.31712283508E+02 -0.89872551860E+01 -0.11839466310E+02  0.89976969812E+02  0.82880893171E+02 0.  0.
         13    1    3    3    0    0  0.20120372197E+02 -0.44308348672E+02  0.54711213752E+01  0.48969413643E+02  0.10566000000E+00 0.  1.
         22    1    1    0    0    0 -0.31712283508E+02  0.89872551860E+01  0.11839466310E+02  0.35023030188E+02  0.00000000000E+00 0. -1.
</event>
<event>
 5    1  0.6978980E-004  0.9118800E+02  0.7818608E-02  0.1130116E+00
         25   -1    0    0    0    0  0.00000000000E+00  0.00000000000E+00  0.99999998245E-14  0.12500000000E+03  0.12500000000E+03 0.  0.
        -13    1    3    3    0    0 -0.18971387726E+02  0.45957998829E+02 -0.16997631647E+02  0.52545045954E+02  0.10566000000E+00 0. -1.
         23    2    1    0    0    0  0.14677586072E+02  0.23683946115E+02  0.18344130144E+01  0.97076427385E+02  0.92973689000E+02 0.  0.
         13    1    3    3    0    0  0.33648973798E+02 -0.22274052714E+02  0.18832044661E+02  0.44531381431E+02  0.10566000000E+00 0.  1.
         22    1    1    0    0    0 -0.14677586072E+02 -0.23683946115E+02 -0.18344130144E+01  0.27923572615E+02  0.00000000000E+00 0. -1.
</event>
<event>
 5    1  0.6978980E-004  0.9118800E+02  0.7818608E-02  0.1130116E+00
         25   -1    0    0    0    0  0.00000000000E+00  0.00000000000E+00  0.99999998245E-14  0.12500000000E+03  0.12500000000E+03 0.  0.
        -13    1    3    3    0    0 -0.37374179238E+02  0.19397587171E+02 -0.33707816938E+02  0.53938147433E+02  0.10566000000E+00 0. -1.
         23    2    1    0    0    0  0.12874396648E+01  0.59170129636E+01 -0.29255842744E+02  0.95124041807E+02  0.90310633104E+02 0.  0.
         13    1    3    3    0    0  0.38661618902E+02 -0.13480574208E+02  0.44519741939E+01  0.41185894374E+02  0.10566000000E+00 0.  1.
         22    1    1    0    0    0 -0.12874396648E+01 -0.59170129636E+01  0.29255842744E+02  0.29875958193E+02  0.00000000000E+00 0.  1.
</event>
<event>
 5    1  0.6978980E-004  0.9118800E+02  0.7818608E-02  0.1130116E+00
         25   -1    0    0    0    0  0.00000000000E+00  0.00000000000E+00  0.99999998245E-14  0.12500000000E+03  0.12500000000E+03 0.  0.
        -13    1    3    3    0    0  0.30802754847E+02  0.74051508161E+01  0.45541927428E+02  0.55477241123E+02  0.10566000000E+00 0. -1.
         23    2    1    0    0    0 -0.50864659589E+01  0.17931448510E+01  0.29194254376E+02  0.95311753286E+02  0.90570074094E+02 0.  0.
         13    1    3    3    0    0 -0.35889220805E+02 -0.56120059652E+01 -0.16347673052E+02  0.39834512163E+02  0.10566000000E+00 0.  1.
         22    1    1    0    0    0  0.50864659589E+01 -0.17931448510E+01 -0.29194254376E+02  0.29688246714E+02  0.00000000000E+00 0. -1.
</event>
<event>
 5    1  0.6978980E-004  0.9118800E+02  0.7818608E-02  0.1130116E+00
         25   -1    0    0    0    0  0.00000000000E+00  0.00000000000E+00  0.99999998245E-14  0.12500000000E+03  0.12500000000E+03 0.  0.
        -13    1    3    3    0    0 -0.16969964964E+02  0.48608223644E+02 -0.11320182566E+02  0.52715242711E+02  0.10566000000E+00 0.  1.
         23    2    1    0    0    0  0.13888384157E+02  0.13220419592E+02 -0.16169711704E+02  0.99917610057E+02  0.96718160209E+02 0.  0.
         13    1    3    3    0    0  0.30858349121E+02 -0.35387804052E+02 -0.48495291376E+01  0.47202367345E+02  0.10566000000E+00 0. -1.
         22    1    1    0    0    0 -0.13888384157E+02 -0.13220419592E+02  0.16169711704E+02  0.25082389943E+02  0.00000000000E+00 0.  1.
</event>
<event>
 5    1  0.6978980E-004  0.9118800E+02  0.7818608E-02  0.1130116E+00
         25   -1    0    0    0    0  0.00000000000E+00  0.00000000000E+00  0.99999998245E-14  0.12500000000E+03  0.12500000000E+03 0.  0.
        -13    1    3    3    0    0  0.15364480655E+02 -0.39804834097E+00  0.33628765824E+02  0.36974731415E+02  0.10566000000E+00 0.  1.
         23    2    1    0    0    0  0.17845769697E+02 -0.50809320195E+00 -0.24238998320E+02  0.94895869148E+02  0.89994262522E+02 0.  0.
         13    1    3    3    0    0  0.24812890421E+01 -0.11004486098E+00 -0.57867764145E+02  0.57921137733E+02  0.10566000000E+00 0. -1.
         22    1    1    0    0    0 -0.17845769697E+02  0.50809320195E+00  0.24238998320E+02  0.30104130852E+02  0.00000000000E+00 0. -1.
</event>
<event>
 5    1  0.6978980E-004  0.9118800E+02  0.7818608E-02  0.1130116E+00
         25   -1    0    0    0    0  0.00000000000E+00  0.00000000000E+00  0.99999998245E-14  0.12500000000E+03  0.12500000000E+03 0.  0.
        -13    1    3    3    0    0  0.84194373528E+01 -0.29141441230E+02 -0.19570471697E+02  0.36098823371E+02  0.10566000000E+00 0.  1.
         23    2    1    0    0    0  0.34644887293E+01  0.69023410472E+01  0.27981130508E+02  0.95972622257E+02  0.91477623298E+02 0.  0.
         13    1    3    3    0    0 -0.49549486235E+01  0.36043782278E+02  0.47551602205E+02  0.59873798886E+02  0.10566000000E+00 0. -1.
         22    1    1    0    0    0 -0.34644887293E+01 -0.69023410472E+01 -0.27981130508E+02  0.29027377743E+02  0.00000000000E+00 0. -1.
</event>
<event>
 5    1  0.6978980E-004  0.9118800E+02  0.7818608E-02  0.1130116E+00
         25   -1    0    0    0    0  0.00000000000E+00  0.00000000000E+00  0.99999998245E-14  0.12500000000E+03  0.12500000000E+03 0.  0.
        -13    1    3    3    0    0 -0.22927583738E+02  0.40001170704E+02 -0.24996704655E+01  0.46173880823E+02  0.10566000000E+00 0. -1.
         23    2    1    0    0    0 -0.23176739907E+02 -0.63200201746E+01 -0.17957612907E+02  0.95007004333E+02  0.90148494626E+02 0.  0.
         13    1    3    3    0    0 -0.24915616923E+00 -0.46321190879E+02 -0.15457942441E+02  0.48833123510E+02  0.10566000000E+00 0.  1.
         22    1    1    0    0    0  0.23176739907E+02  0.63200201746E+01  0.17957612907E+02  0.29992995667E+02  0.00000000000E+00 0. -1.
</event>
<event>
 5    1  0.6978980E-004  0.9118800E+02  0.7818608E-02  0.1130116E+00
         25   -1    0    0    0    0  0.00000000000E+00  0.00000000000E+00  0.99999998245E-14  0.12500000000E+03  0.12500000000E+03 0.  0.
        -13    1    3    3    0    0  0.54367031732E+02  0.15568286987E+02 -0.11825750201E+02  0.57775472571E+02  0.10566000000E+00 0. -1.
         23    2    1    0    0    0  0.20437842407E+02  0.26721168153E+01 -0.21372767948E+02  0.95307562911E+02  0.90564290577E+02 0.  0.
         13    1    3    3    0    0 -0.33929189325E+02 -0.12896170172E+02 -0.95470177474E+01  0.37532090339E+02  0.10566000000E+00 0.  1.
         22    1    1    0    0    0 -0.20437842407E+02 -0.26721168153E+01  0.21372767948E+02  0.29692437089E+02  0.00000000000E+00 0. -1.
</event>
<event>
 5    1  0.6978980E-004  0.9118800E+02  0.7818608E-02  0.1130116E+00
         25   -1    0    0    0    0  0.00000000000E+00  0.00000000000E+00  0.99999998245E-14  0.12500000000E+03  0.12500000000E+03 0.  0.
        -13    1    3    3    0    0  0.33103043402E+02  0.75102005111E+01 -0.56460765902E+01  0.34410811370E+02  0.10566000000E+00 0. -1.
         23    2    1    0    0    0 -0.18553894592E+02 -0.14318388731E+02  0.18176918385E+02  0.95340876238E+02  0.90610259129E+02 0.  0.
         13    1    3    3    0    0 -0.51656937994E+02 -0.21828589242E+02  0.23822994975E+02  0.60930064868E+02  0.10566000000E+00 0.  1.
         22    1    1    0    0    0  0.18553894592E+02  0.14318388731E+02 -0.18176918385E+02  0.29659123762E+02  0.00000000000E+00 0.  1.
</event>
<event>
 5    1  0.6978980E-004  0.9118800E+02  0.7818608E-02  0.1130116E+00
         25   -1    0    0    0    0  0.00000000000E+00  0.00000000000E+00  0.99999998245E-14  0.12500000000E+03  0.12500000000E+03 0.  0.
        -13    1    3    3    0    0  0.19520932176E+02  0.68064376860E+01 -0.51276753987E+02  0.55287530696E+02  0.10566000000E+00 0.  1.
         23    2    1    0    0    0  0.26907348776E+02  0.45052517892E+01 -0.12214700377E+02  0.95108502595E+02  0.90289122538E+02 0.  0.
         13    1    3    3    0    0  0.73864166002E+01 -0.23011858968E+01  0.39062053610E+02  0.39820971899E+02  0.10566000000E+00 0. -1.
         22    1    1    0    0    0 -0.26907348776E+02 -0.45052517892E+01  0.12214700377E+02  0.29891497405E+02  0.00000000000E+00 0.  1.
</event>
<event>
 5    1  0.6978980E-004  0.9118800E+02  0.7818608E-02  0.1130116E+00
         25   -1    0    0    0    0  0.00000000000E+00  0.00000000000E+00  0.99999998245E-14  0.12500000000E+03  0.12500000000E+03 0.  0.
        -13    1    3    3    0    0  0.37056073061E+02 -0.37641225113E+02  0.26042630878E+02  0.58891800497E+02  0.10566000000E+00 0.  1.
         23    2    1    0    0    0  0.21047573513E+02 -0.30486760194E+02  0.30533226376E+02  0.76992492141E+02  0.60192383532E+02 0.  0.
         13    1    3    3    0    0 -0.16008499548E+02  0.71544649186E+01  0.44905954978E+01  0.18100691644E+02  0.10566000000E+00 0. -1.
         22    1    1    0    0    0 -0.21047573513E+02  0.30486760194E+02 -0.30533226376E+02  0.48007507859E+02  0.00000000000E+00 0.  1.
</event>
<event>
 5    1  0.6978980E-004  0.9118800E+02  0.7818608E-02  0.1130116E+00
         25   -1    0    0    0    0  0.00000000000E+00  0.00000000000E+00  0.99999998245E-14  0.12500000000E+03  0.12500000000E+03 0.  0.
        -13    1    3    3    0    0 -0.27487549854E+01 -0.84225756313E+01  0.53551929816E+02  0.54279975915E+02  0.10566000000E+00 0.  1.
         23    2    1    0    0    0 -0.89236934578E+01  0.17427349326E+02  0.21394292257E+02  0.95998956042E+02  0.91513600140E+02 0.  0.
         13    1    3    3    0    0 -0.61749384724E+01  0.25849924958E+02 -0.32157637559E+02  0.41718980127E+02  0.10566000000E+00 0. -1.
         22    1    1    0    0    0  0.89236934578E+01 -0.17427349326E+02 -0.21394292257E+02  0.29001043958E+02  0.00000000000E+00 0.  1.
</event>
<event>
 5    1  0.6978980E-004  0.9118800E+02  0.7818608E-02  0.1130116E+00
         25   -1    0    0    0    0  0.00000000000E+00  0.00000000000E+00  0.99999998245E-14  0.12500000000E+03  0.12500000000E+03 0.  0.
        -13    1    3    3    0    0 -0.45997431186E+01  0.32134308109E+02 -0.16093820814E+02  0.36232494074E+02  0.10566000000E+00 0. -1.
         23    2    1    0    0    0 -0.51837201630E+00 -0.26739555870E+02 -0.12828062921E+02  0.95338041940E+02  0.90606349032E+02 0.  0.
         13    1    3    3    0    0  0.40813711023E+01 -0.58873863979E+02  0.32657578925E+01  0.59105547866E+02  0.10566000000E+00 0.  1.
         22    1    1    0    0    0  0.51837201630E+00  0.26739555870E+02  0.12828062921E+02  0.29661958060E+02  0.00000000000E+00 0.  1.
</event>
<event>
 5    1  0.6978980E-004  0.9118800E+02  0.7818608E-02  0.1130116E+00
         25   -1    0    0    0    0  0.00000000000E+00  0.00000000000E+00  0.99999998245E-14  0.12500000000E+03  0.12500000000E+03 0.  0.
        -13    1    3    3    0    0 -0.11481575593E+02  0.35178514341E+02  0.20504275170E+02  0.42305920551E+02  0.10566000000E+00 0. -1.
         23    2    1    0    0    0  0.14074146528E+02  0.13303829128E+02 -0.21462804737E+02  0.96091083433E+02  0.91639352126E+02 0.  0.
         13    1    3    3    0    0  0.25555722121E+02 -0.21874685213E+02 -0.41967079907E+02  0.53785162882E+02  0.10566000000E+00 0.  1.
         22    1    1    0    0    0 -0.14074146528E+02 -0.13303829128E+02  0.21462804737E+02  0.28908916567E+02  0.00000000000E+00 0.  1.
</event>
<event>
 5    1  0.6978980E-004  0.9118800E+02  0.7818608E-02  0.1130116E+00
         25   -1    0    0    0    0  0.00000000000E+00  0.00000000000E+00  0.99999998245E-14  0.12500000000E+03  0.12500000000E+03 0.  0.
        -13    1    3    3    0    0 -0.51882365372E+02  0.12340491492E+02  0.27729582344E+02  0.60108306147E+02  0.10566000000E+00 0.  1.
         23    2    1    0    0    0 -0.26863400940E+02 -0.60511420199E+01  0.14729352509E+02  0.93771608188E+02  0.88418900960E+02 0.  0.
         13    1    3    3    0    0  0.25018964432E+02 -0.18391633512E+02 -0.13000229835E+02  0.33663302041E+02  0.10566000000E+00 0. -1.
         22    1    1    0    0    0  0.26863400940E+02  0.60511420199E+01 -0.14729352509E+02  0.31228391812E+02  0.00000000000E+00 0.  1.
</event>
<event>
 5    1  0.6978980E-004  0.9118800E+02  0.7818608E-02  0.1130116E+00
         25   -1    0    0    0    0  0.00000000000E+00  0.00000000000E+00  0.99999998245E-14  0.12500000000E+03  0.12500000000E+03 0.  0.
        -13    1    3    3    0    0 -0.55788861714E+01  0.28204543167E+02  0.51975421474E+02  0.59397607928E+02  0.10566000000E+00 0.  1.
         23    2    1    0    0    0  0.11187209178E+02  0.14199857292E+02  0.21187998086E+02  0.97148234182E+02  0.93070180753E+02 0.  0.
         13    1    3    3    0    0  0.16766095349E+02 -0.14004685874E+02 -0.30787423388E+02  0.37750626254E+02  0.10566000000E+00 0. -1.
         22    1    1    0    0    0 -0.11187209178E+02 -0.14199857292E+02 -0.21187998086E+02  0.27851765818E+02  0.00000000000E+00 0.  1.
</event>
<event>
 5    1  0.6978980E-004  0.9118800E+02  0.7818608E-02  0.1130116E+00
         25   -1    0    0    0    0  0.00000000000E+00  0.00000000000E+00  0.99999998245E-14  0.12500000000E+03  0.12500000000E+03 0.  0.
        -13    1    3    3    0    0  0.75532792754E+01 -0.29320823402E+02 -0.33383677027E+02  0.45069321813E+02  0.10566000000E+00 0.  1.
         23    2    1    0    0    0 -0.24579815701E+02 -0.15949159510E+02  0.31529626206E+01  0.95529943972E+02  0.90870710315E+02 0.  0.
         13    1    3    3    0    0 -0.32133094976E+02  0.13371663891E+02  0.36536639648E+02  0.50460622160E+02  0.10566000000E+00 0. -1.
         22    1    1    0    0    0  0.24579815701E+02  0.15949159510E+02 -0.31529626206E+01  0.29470056028E+02  0.00000000000E+00 0.  1.
</event>
<event>
 5    1  0.6978980E-004  0.9118800E+02  0.7818608E-02  0.1130116E+00
         25   -1    0    0    0    0  0.00000000000E+00  0.00000000000E+00  0.99999998245E-14  0.12500000000E+03  0.12500000000E+03 0.  0.
        -13    1    3    3    0    0 -0.98646873485E+01 -0.30899631496E+02 -0.75348594599E+01  0.33299918231E+02  0.10566000000E+00 0.  1.
         23    2    1    0    0    0  0.15080846324E+02  0.24476644983E+02 -0.11199462675E+02  0.94146053094E+02  0.88946687816E+02 0.  0.
         13    1    3    3    0    0  0.24945533672E+02  0.55376276480E+02 -0.36646032154E+01  0.60846134862E+02  0.10566000000E+00 0. -1.
         22    1    1    0    0    0 -0.15080846324E+02 -0.24476644983E+02  0.11199462675E+02  0.30853946906E+02  0.00000000000E+00 0. -1.
</event>
<event>
 5    1  0.6978980E-004  0.9118800E+02  0.7818608E-02  0.1130116E+00
         25   -1    0    0    0    0  0.00000000000E+00  0.00000000000E+00  0.99999998245E-14  0.12500000000E+03  0.12500000000E+03 0.  0.
        -13    1    3    3    0    0  0.55136039302E+02 -0.10946975724E+02  0.44009702074E+01  0.56384384454E+02  0.10566000000E+00 0.  1.
         23    2    1    0    0    0  0.17503362087E+02 -0.19768280892E+02  0.12357434106E+02  0.95847662333E+02  0.91306711600E+02 0.  0.
         13    1    3    3    0    0 -0.37632677215E+02 -0.88213051675E+01  0.79564638984E+01  0.39463277879E+02  0.10566000000E+00 0. -1.
         22    1    1    0    0    0 -0.17503362087E+02  0.19768280892E+02 -0.12357434106E+02  0.29152337667E+02  0.00000000000E+00 0.  1.
</event>
<event>
 5    1  0.6978980E-004  0.9118800E+02  0.7818608E-02  0.1130116E+00
         25   -1    0    0    0    0  0.00000000000E+00  0.00000000000E+00  0.99999998245E-14  0.12500000000E+03  0.12500000000E+03 0.  0.
        -13    1    3    3    0    0 -0.43648219817E+02  0.13257594641E+02 -0.40308342144E+02  0.60874498103E+02  0.10566000000E+00 0.  1.
         23    2    1    0    0    0 -0.12674244287E+02  0.10598729646E+02 -0.23667528862E+02  0.96136156514E+02  0.91700813129E+02 0.  0.
         13    1    3    3    0    0  0.30973975530E+02 -0.26588649957E+01  0.16640813282E+02  0.35261658411E+02  0.10566000000E+00 0. -1.
         22    1    1    0    0    0  0.12674244287E+02 -0.10598729646E+02  0.23667528862E+02  0.28863843486E+02  0.00000000000E+00 0.  1.
</event>
<event>
 5    1  0.6978980E-004  0.9118800E+02  0.7818608E-02  0.1130116E+00
         25   -1    0    0    0    0  0.00000000000E+00  0.00000000000E+00  0.99999998245E-14  0.12500000000E+03  0.12500000000E+03 0.  0.
        -13    1    3    3    0    0  0.10408483908E+02 -0.40165422054E+02 -0.18306793088E+02  0.45351378184E+02  0.10566000000E+00 0. -1.
         23    2    1    0    0    0  0.27175872699E+02  0.64507934286E+01 -0.79069550145E+01  0.95971380839E+02  0.91475926941E+02 0.  0.
         13    1    3    3    0    0  0.16767388791E+02  0.46616215482E+02  0.10399838073E+02  0.50620002655E+02  0.10566000000E+00 0.  1.
         22    1    1    0    0    0 -0.27175872699E+02 -0.64507934286E+01  0.79069550145E+01  0.29028619161E+02  0.00000000000E+00 0. -1.
</event>
<event>
 5    1  0.6978980E-004  0.9118800E+02  0.7818608E-02  0.1130116E+00
         25   -1    0    0    0    0  0.00000000000E+00  0.00000000000E+00  0.99999998245E-14  0.12500000000E+03  0.12500000000E+03 0.  0.
        -13    1    3    3    0    0 -0.75391371413E+01  0.43406772841E+02 -0.31625022633E+01  0.44170115485E+02  0.10566000000E+00 0. -1.
         23    2    1    0    0    0 -0.14361796325E+02  0.29736334243E+01 -0.28905868359E+02  0.92586223377E+02  0.86726903809E+02 0.  0.
         13    1    3    3    0    0 -0.68226591833E+01 -0.40433139417E+02 -0.25743366095E+02  0.48416107892E+02  0.10566000000E+00 0.  1.
         22    1    1    0    0    0  0.14361796325E+02 -0.29736334243E+01  0.28905868359E+02  0.32413776623E+02  0.00000000000E+00 0.  1.
</event>
<event>
 5    1  0.6978980E-004  0.9118800E+02  0.7818608E-02  0.1130116E+00
         25   -1    0    0    0    0  0.00000000000E+00  0.00000000000E+00  0.99999998245E-14  0.12500000000E+03  0.12500000000E+03 0.  0.
        -13    1    3    3    0    0  0.34802591295E+02  0.45261432614E+02 -0.51950555689E+01  0.57330771925E+02  0.10566000000E+00 0.  1.
         23    2    1    0    0    0  0.57292441735E+01  0.26405665060E+02  0.11303815886E+02  0.95710758978E+02  0.91119096486E+02 0.  0.
         13    1    3    3    0    0 -0.29073347121E+02 -0.18855767554E+02  0.16498871455E+02  0.38379987053E+02  0.10566000000E+00 0. -1.
         22    1    1    0    0    0 -0.57292441735E+01 -0.26405665060E+02 -0.11303815886E+02  0.29289241022E+02  0.00000000000E+00 0.  1.
</event>
<event>
 5    1  0.6978980E-004  0.9118800E+02  0.7818608E-02  0.1130116E+00
         25   -1    0    0    0    0  0.00000000000E+00  0.00000000000E+00  0.99999998245E-14  0.12500000000E+03  0.12500000000E+03 0.  0.
        -13    1    3    3    0    0  0.34261569320E+02 -0.14485923255E+02 -0.37211972072E+02  0.52615958932E+02  0.10566000000E+00 0. -1.
         23    2    1    0    0    0 -0.70244898622E+01 -0.10089670669E+02 -0.26940041249E+02  0.95387321389E+02  0.90674309191E+02 0.  0.
         13    1    3    3    0    0 -0.41286059182E+02  0.43962525863E+01  0.10271930823E+02  0.42771362457E+02  0.10566000000E+00 0.  1.
         22    1    1    0    0    0  0.70244898622E+01  0.10089670669E+02  0.26940041249E+02  0.29612678611E+02  0.00000000000E+00 0.  1.
</event>
<event>
 5    1  0.6978980E-004  0.9118800E+02  0.7818608E-02  0.1130116E+00
         25   -1    0    0    0    0  0.00000000000E+00  0.00000000000E+00  0.99999998245E-14  0.12500000000E+03  0.12500000000E+03 0.  0.
        -13    1    3    3    0    0  0.17799622075E+02 -0.27517293624E+02  0.94592662988E+01  0.34110363196E+02  0.10566000000E+00 0. -1.
         23    2    1    0    0    0 -0.80285672300E+01  0.27760252056E+02 -0.13322005533E+01  0.96071394014E+02  0.91612490979E+02 0.  0.
         13    1    3    3    0    0 -0.25828189305E+02  0.55277545680E+02 -0.10791466852E+02  0.61961030818E+02  0.10566000000E+00 0.  1.
         22    1    1    0    0    0  0.80285672300E+01 -0.27760252056E+02  0.13322005533E+01  0.28928605986E+02  0.00000000000E+00 0.  1.
</event>
<event>
 5    1  0.6978980E-004  0.9118800E+02  0.7818608E-02  0.1130116E+00
         25   -1    0    0    0    0  0.00000000000E+00  0.00000000000E+00  0.99999998245E-14  0.12500000000E+03  0.12500000000E+03 0.  0.
        -13    1    3    3    0    0 -0.30052974286E+02  0.18458723561E+02 -0.41947525337E+02  0.54804304437E+02  0.10566000000E+00 0. -1.
         23    2    1    0    0    0 -0.27573233810E+02  0.36834834542E+01 -0.24190697539E+01  0.97076834500E+02  0.92974236350E+02 0.  0.
         13    1    3    3    0    0  0.24797404763E+01 -0.14775240107E+02  0.39528455583E+02  0.42272530062E+02  0.10566000000E+00 0.  1.
         22    1    1    0    0    0  0.27573233810E+02 -0.36834834542E+01  0.24190697539E+01  0.27923165500E+02  0.00000000000E+00 0. -1.
</event>
<event>
 5    1  0.6978980E-004  0.9118800E+02  0.7818608E-02  0.1130116E+00
         25   -1    0    0    0    0  0.00000000000E+00  0.00000000000E+00  0.99999998245E-14  0.12500000000E+03  0.12500000000E+03 0.  0.
        -13    1    3    3    0    0 -0.76183277528E+01  0.47579167684E+02 -0.37480814307E+01  0.48330894816E+02  0.10566000000E+00 0.  1.
         23    2    1    0    0    0 -0.18099186130E+02 -0.21205911419E+01  0.13876875614E+02  0.10209486690E+03  0.99492294806E+02 0.  0.
         13    1    3    3    0    0 -0.10480858378E+02 -0.49699758826E+02  0.17624957045E+02  0.53763972087E+02  0.10566000000E+00 0. -1.
         22    1    1    0    0    0  0.18099186130E+02  0.21205911419E+01 -0.13876875614E+02  0.22905133097E+02  0.00000000000E+00 0. -1.
</event>
<event>
 5    1  0.6978980E-004  0.9118800E+02  0.7818608E-02  0.1130116E+00
         25   -1    0    0    0    0  0.00000000000E+00  0.00000000000E+00  0.99999998245E-14  0.12500000000E+03  0.12500000000E+03 0.  0.
        -13    1    3    3    0    0  0.31973648945E+02  0.41837079488E+02  0.25378352721E+02  0.58452779214E+02  0.10566000000E+00 0.  1.
         23    2    1    0    0    0  0.35196749167E+01  0.28290709853E+02  0.48020140342E+01  0.96089591593E+02  0.91637317170E+02 0.  0.
         13    1    3    3    0    0 -0.28453974028E+02 -0.13546369636E+02 -0.20576338686E+02  0.37636812379E+02  0.10566000000E+00 0. -1.
         22    1    1    0    0    0 -0.35196749167E+01 -0.28290709853E+02 -0.48020140342E+01  0.28910408407E+02  0.00000000000E+00 0.  1.
</event>
<event>
 5    1  0.6978980E-004  0.9118800E+02  0.7818608E-02  0.1130116E+00
         25   -1    0    0    0    0  0.00000000000E+00  0.00000000000E+00  0.99999998245E-14  0.12500000000E+03  0.12500000000E+03 0.  0.
        -13    1    3    3    0    0 -0.14421482859E+02  0.30101035376E+01 -0.45806066194E+02  0.48117011081E+02  0.10566000000E+00 0.  1.
         23    2    1    0    0    0 -0.75755225797E+00  0.26457899421E+02 -0.36110235457E+01  0.98286074451E+02  0.94586038149E+02 0.  0.
         13    1    3    3    0    0  0.13663930601E+02  0.23447795883E+02  0.42195042649E+02  0.50169063370E+02  0.10566000000E+00 0. -1.
         22    1    1    0    0    0  0.75755225797E+00 -0.26457899421E+02  0.36110235457E+01  0.26713925549E+02  0.00000000000E+00 0. -1.
</event>
<event>
 5    1  0.6978980E-004  0.9118800E+02  0.7818608E-02  0.1130116E+00
         25   -1    0    0    0    0  0.00000000000E+00  0.00000000000E+00  0.99999998245E-14  0.12500000000E+03  0.12500000000E+03 0.  0.
        -13    1    3    3    0    0  0.13648281482E+02  0.36153311320E+02  0.55155516504E+01  0.39035496421E+02  0.10566000000E+00 0. -1.
         23    2    1    0    0    0 -0.27257711760E+02 -0.21318078376E+01  0.11413457925E+02  0.95372403458E+02  0.90653741591E+02 0.  0.
         13    1    3    3    0    0 -0.40905993242E+02 -0.38285119158E+02  0.58979062741E+01  0.56336907037E+02  0.10566000000E+00 0.  1.
         22    1    1    0    0    0  0.27257711760E+02  0.21318078376E+01 -0.11413457925E+02  0.29627596542E+02  0.00000000000E+00 0.  1.
</event>
<event>
 5    1  0.6978980E-004  0.9118800E+02  0.7818608E-02  0.1130116E+00
         25   -1    0    0    0    0  0.00000000000E+00  0.00000000000E+00  0.99999998245E-14  0.12500000000E+03  0.12500000000E+03 0.  0.
        -13    1    3    3    0    0 -0.93253912089E+01 -0.34970547055E+02  0.27051825646E+02  0.45185335202E+02  0.10566000000E+00 0. -1.
         23    2    1    0    0    0  0.19988681349E+02 -0.21884498094E+02 -0.95401735436E+01  0.93863308619E+02  0.88548445242E+02 0.  0.
         13    1    3    3    0    0  0.29314072558E+02  0.13086048960E+02 -0.36591999189E+02  0.48677973417E+02  0.10566000000E+00 0.  1.
         22    1    1    0    0    0 -0.19988681349E+02  0.21884498094E+02  0.95401735436E+01  0.31136691381E+02  0.00000000000E+00 0.  1.
</event>
<event>
 5    1  0.6978980E-004  0.9118800E+02  0.7818608E-02  0.1130116E+00
         25   -1    0    0    0    0  0.00000000000E+00  0.00000000000E+00  0.99999998245E-14  0.12500000000E+03  0.12500000000E+03 0.  0.
        -13    1    3    3    0    0  0.10461799816E+02 -0.17432018492E+02 -0.38817984871E+02  0.43819763094E+02  0.10566000000E+00 0. -1.
         23    2    1    0    0    0  0.23417180140E+02  0.17769243663E+02 -0.34006996860E+01  0.95408191938E+02  0.90703075937E+02 0.  0.
         13    1    3    3    0    0  0.12955380324E+02  0.35201262155E+02  0.35417285185E+02  0.51588428844E+02  0.10566000000E+00 0.  1.
         22    1    1    0    0    0 -0.23417180140E+02 -0.17769243663E+02  0.34006996860E+01  0.29591808062E+02  0.00000000000E+00 0.  1.
</event>
<event>
 5    1  0.6978980E-004  0.9118800E+02  0.7818608E-02  0.1130116E+00
         25   -1    0    0    0    0  0.00000000000E+00  0.00000000000E+00  0.99999998245E-14  0.12500000000E+03  0.12500000000E+03 0.  0.
        -13    1    3    3    0    0 -0.75683984598E+01 -0.18805499421E+02 -0.33439606216E+02  0.39104295054E+02  0.10566000000E+00 0. -1.
         23    2    1    0    0    0  0.25557233462E+02  0.14187315605E+02 -0.14905840687E+01  0.95731007070E+02  0.91146869214E+02 0.  0.
         13    1    3    3    0    0  0.33125631921E+02  0.32992815026E+02  0.31949022148E+02  0.56626712016E+02  0.10566000000E+00 0.  1.
         22    1    1    0    0    0 -0.25557233462E+02 -0.14187315605E+02  0.14905840687E+01  0.29268992930E+02  0.00000000000E+00 0.  1.
</event>
<event>
 5    1  0.6978980E-004  0.9118800E+02  0.7818608E-02  0.1130116E+00
         25   -1    0    0    0    0  0.00000000000E+00  0.00000000000E+00  0.99999998245E-14  0.12500000000E+03  0.12500000000E+03 0.  0.
        -13    1    3    3    0    0 -0.20559449459E+02 -0.12173841677E+02  0.17154846074E+02  0.29414168203E+02  0.10566000000E+00 0.  1.
         23    2    1    0    0    0  0.19415851924E+01  0.35209186991E+02 -0.98164565328E+01  0.88396456176E+02  0.80461879446E+02 0.  0.
         13    1    3    3    0    0  0.22501034652E+02  0.47383028668E+02 -0.26971302606E+02  0.58982287972E+02  0.10566000000E+00 0. -1.
         22    1    1    0    0    0 -0.19415851924E+01 -0.35209186991E+02  0.98164565328E+01  0.36603543824E+02  0.00000000000E+00 0. -1.
</event>
<event>
 5    1  0.6978980E-004  0.9118800E+02  0.7818608E-02  0.1130116E+00
         25   -1    0    0    0    0  0.00000000000E+00  0.00000000000E+00  0.99999998245E-14  0.12500000000E+03  0.12500000000E+03 0.  0.
        -13    1    3    3    0    0 -0.19910355282E+02  0.27104079888E+02 -0.49766805718E+02  0.60064960746E+02  0.10566000000E+00 0.  1.
         23    2    1    0    0    0  0.31716040157E+00  0.66228593170E+01 -0.28192005742E+02  0.96038783796E+02  0.91567985393E+02 0.  0.
         13    1    3    3    0    0  0.20227515684E+02 -0.20481220571E+02  0.21574799975E+02  0.35973823050E+02  0.10566000000E+00 0. -1.
         22    1    1    0    0    0 -0.31716040157E+00 -0.66228593170E+01  0.28192005742E+02  0.28961216204E+02  0.00000000000E+00 0.  1.
</event>
<event>
 5    1  0.6978980E-004  0.9118800E+02  0.7818608E-02  0.1130116E+00
         25   -1    0    0    0    0  0.00000000000E+00  0.00000000000E+00  0.99999998245E-14  0.12500000000E+03  0.12500000000E+03 0.  0.
        -13    1    3    3    0    0  0.25515692711E+02 -0.23945578316E+02 -0.40264555758E+01  0.35223072040E+02  0.10566000000E+00 0. -1.
         23    2    1    0    0    0 -0.29331520573E+01  0.28918816054E+02  0.34858833826E+01  0.95724537819E+02  0.91137996768E+02 0.  0.
         13    1    3    3    0    0 -0.28448844768E+02  0.52864394370E+02  0.75123389584E+01  0.60501465779E+02  0.10566000000E+00 0.  1.
         22    1    1    0    0    0  0.29331520573E+01 -0.28918816054E+02 -0.34858833826E+01  0.29275462181E+02  0.00000000000E+00 0.  1.
</event>
<event>
 5    1  0.6978980E-004  0.9118800E+02  0.7818608E-02  0.1130116E+00
         25   -1    0    0    0    0  0.00000000000E+00  0.00000000000E+00  0.99999998245E-14  0.12500000000E+03  0.12500000000E+03 0.  0.
        -13    1    3    3    0    0  0.25292973798E+02 -0.38201621278E+02  0.37700905735E+01  0.45970894474E+02  0.10566000000E+00 0.  1.
         23    2    1    0    0    0 -0.21284875969E+02 -0.17997195899E+02  0.46014477647E+01  0.96749011933E+02  0.92532442868E+02 0.  0.
         13    1    3    3    0    0 -0.46577849767E+02  0.20204425379E+02  0.83135719126E+00  0.50778117458E+02  0.10566000000E+00 0. -1.
         22    1    1    0    0    0  0.21284875969E+02  0.17997195899E+02 -0.46014477647E+01  0.28250988067E+02  0.00000000000E+00 0. -1.
</event>
<event>
 5    1  0.6978980E-004  0.9118800E+02  0.7818608E-02  0.1130116E+00
         25   -1    0    0    0    0  0.00000000000E+00  0.00000000000E+00  0.99999998245E-14  0.12500000000E+03  0.12500000000E+03 0.  0.
        -13    1    3    3    0    0 -0.20856389088E+02  0.11860377397E+02  0.26003805076E+02  0.35381726361E+02  0.10566000000E+00 0.  1.
         23    2    1    0    0    0  0.12517908480E+02 -0.43551280070E+01 -0.23961130648E+02  0.97617506421E+02  0.93698327654E+02 0.  0.
         13    1    3    3    0    0  0.33374297568E+02 -0.16215505404E+02 -0.49964935725E+02  0.62235780060E+02  0.10566000000E+00 0. -1.
         22    1    1    0    0    0 -0.12517908480E+02  0.43551280070E+01  0.23961130648E+02  0.27382493579E+02  0.00000000000E+00 0. -1.
</event>
<event>
 5    1  0.6978980E-004  0.9118800E+02  0.7818608E-02  0.1130116E+00
         25   -1    0    0    0    0  0.00000000000E+00  0.00000000000E+00  0.99999998245E-14  0.12500000000E+03  0.12500000000E+03 0.  0.
        -13    1    3    3    0    0 -0.47774857331E+01 -0.42548490925E+02  0.78076912223E+01  0.43522059420E+02  0.10566000000E+00 0.  1.
         23    2    1    0    0    0 -0.29324601219E+02  0.26193745424E+01  0.59532941612E+01  0.94962771915E+02  0.90087141029E+02 0.  0.
         13    1    3    3    0    0 -0.24547115486E+02  0.45167865467E+02 -0.18543970610E+01  0.51440712495E+02  0.10566000000E+00 0. -1.
         22    1    1    0    0    0  0.29324601219E+02 -0.26193745424E+01 -0.59532941612E+01  0.30037228085E+02  0.00000000000E+00 0. -1.
</event>
<event>
 5    1  0.6978980E-004  0.9118800E+02  0.7818608E-02  0.1130116E+00
         25   -1    0    0    0    0  0.00000000000E+00  0.00000000000E+00  0.99999998245E-14  0.12500000000E+03  0.12500000000E+03 0.  0.
        -13    1    3    3    0    0  0.16568736174E+01  0.28686265831E+02  0.43818806039E+02  0.52399866453E+02  0.10566000000E+00 0. -1.
         23    2    1    0    0    0 -0.22943851960E+02  0.14043338535E+02  0.11036219405E+02  0.95923654997E+02  0.91410687281E+02 0.  0.
         13    1    3    3    0    0 -0.24600725578E+02 -0.14642927296E+02 -0.32782586635E+02  0.43523788544E+02  0.10566000000E+00 0.  1.
         22    1    1    0    0    0  0.22943851960E+02 -0.14043338535E+02 -0.11036219405E+02  0.29076345003E+02  0.00000000000E+00 0. -1.
</event>
<event>
 5    1  0.6978980E-004  0.9118800E+02  0.7818608E-02  0.1130116E+00
         25   -1    0    0    0    0  0.00000000000E+00  0.00000000000E+00  0.99999998245E-14  0.12500000000E+03  0.12500000000E+03 0.  0.
        -13    1    3    3    0    0  0.18554258130E+02 -0.13590112848E+02 -0.36244183114E+02  0.42925559235E+02  0.10566000000E+00 0.  1.
         23    2    1    0    0    0  0.27688591419E+02  0.21278438793E+02 -0.69012987301E+01  0.89404242157E+02  0.82012563302E+02 0.  0.
         13    1    3    3    0    0  0.91343332887E+01  0.34868551641E+02  0.29342884384E+02  0.46478682922E+02  0.10566000000E+00 0. -1.
         22    1    1    0    0    0 -0.27688591419E+02 -0.21278438793E+02  0.69012987301E+01  0.35595757843E+02  0.00000000000E+00 0. -1.
</event>
<event>
 5    1  0.6978980E-004  0.9118800E+02  0.7818608E-02  0.1130116E+00
         25   -1    0    0    0    0  0.00000000000E+00  0.00000000000E+00  0.99999998245E-14  0.12500000000E+03  0.12500000000E+03 0.  0.
        -13    1    3    3    0    0 -0.97461277859E+01 -0.22104153991E+02  0.30812395690E+02  0.39153486724E+02  0.10566000000E+00 0.  1.
         23    2    1    0    0    0  0.26117337959E+02 -0.11625289198E+02 -0.10212659683E+02  0.94642775015E+02  0.89642031178E+02 0.  0.
         13    1    3    3    0    0  0.35863465745E+02  0.10478864793E+02 -0.41025055373E+02  0.55489288290E+02  0.10566000000E+00 0. -1.
         22    1    1    0    0    0 -0.26117337959E+02  0.11625289198E+02  0.10212659683E+02  0.30357224985E+02  0.00000000000E+00 0. -1.
</event>
<event>
 5    1  0.6978980E-004  0.9118800E+02  0.7818608E-02  0.1130116E+00
         25   -1    0    0    0    0  0.00000000000E+00  0.00000000000E+00  0.99999998245E-14  0.12500000000E+03  0.12500000000E+03 0.  0.
        -13    1    3    3    0    0  0.33541618388E+02  0.32091492841E+02 -0.40543209086E+01  0.46597776330E+02  0.10566000000E+00 0. -1.
         23    2    1    0    0    0 -0.61167829022E+01 -0.11424491678E+01 -0.22596502677E+02  0.10156237733E+03  0.98821021715E+02 0.  0.
         13    1    3    3    0    0 -0.39658401290E+02 -0.33233942009E+02 -0.18542181768E+02  0.54964601000E+02  0.10566000000E+00 0.  1.
         22    1    1    0    0    0  0.61167829022E+01  0.11424491678E+01  0.22596502677E+02  0.23437622669E+02  0.00000000000E+00 0.  1.
</event>
<event>
 5    1  0.6978980E-004  0.9118800E+02  0.7818608E-02  0.1130116E+00
         25   -1    0    0    0    0  0.00000000000E+00  0.00000000000E+00  0.99999998245E-14  0.12500000000E+03  0.12500000000E+03 0.  0.
        -13    1    3    3    0    0 -0.28178721035E+02  0.32794510046E+02 -0.27216684707E+02  0.51090892523E+02  0.10566000000E+00 0.  1.
         23    2    1    0    0    0  0.40533668218E+01  0.35574448752E+02 -0.95889364416E+01  0.87933588133E+02  0.79739557519E+02 0.  0.
         13    1    3    3    0    0  0.32232087857E+02  0.27799387058E+01  0.17627748266E+02  0.36842695610E+02  0.10566000000E+00 0. -1.
         22    1    1    0    0    0 -0.40533668218E+01 -0.35574448752E+02  0.95889364416E+01  0.37066411867E+02  0.00000000000E+00 0. -1.
</event>
<event>
 5    1  0.6978980E-004  0.9118800E+02  0.7818608E-02  0.1130116E+00
         25   -1    0    0    0    0  0.00000000000E+00  0.00000000000E+00  0.99999998245E-14  0.12500000000E+03  0.12500000000E+03 0.  0.
        -13    1    3    3    0    0  0.15297245660E+02  0.29704714278E+02 -0.32483334941E+01  0.33569906310E+02  0.10566000000E+00 0.  1.
         23    2    1    0    0    0 -0.25515200260E+02 -0.77092770346E+01  0.17959757334E+02  0.92859507157E+02  0.87119898928E+02 0.  0.
         13    1    3    3    0    0 -0.40812445920E+02 -0.37413991313E+02  0.21208090828E+02  0.59289600847E+02  0.10566000000E+00 0. -1.
         22    1    1    0    0    0  0.25515200260E+02  0.77092770346E+01 -0.17959757334E+02  0.32140492843E+02  0.00000000000E+00 0. -1.
</event>
<event>
 5    1  0.6978980E-004  0.9118800E+02  0.7818608E-02  0.1130116E+00
         25   -1    0    0    0    0  0.00000000000E+00  0.00000000000E+00  0.99999998245E-14  0.12500000000E+03  0.12500000000E+03 0.  0.
        -13    1    3    3    0    0 -0.22383739305E+02  0.26851617632E+02 -0.12071485516E+02  0.36983416302E+02  0.10566000000E+00 0.  1.
         23    2    1    0    0    0 -0.15240846050E+00 -0.25828083013E+02  0.85899280030E+01  0.97780522350E+02  0.93915550297E+02 0.  0.
         13    1    3    3    0    0  0.22231330845E+02 -0.52679700645E+02  0.20661413519E+02  0.60797106048E+02  0.10566000000E+00 0. -1.
         22    1    1    0    0    0  0.15240846050E+00  0.25828083013E+02 -0.85899280030E+01  0.27219477650E+02  0.00000000000E+00 0. -1.
</event>
<event>
 5    1  0.6978980E-004  0.9118800E+02  0.7818608E-02  0.1130116E+00
         25   -1    0    0    0    0  0.00000000000E+00  0.00000000000E+00  0.99999998245E-14  0.12500000000E+03  0.12500000000E+03 0.  0.
        -13    1    3    3    0    0  0.19315385732E+02 -0.50698728401E+02  0.18554156543E+02  0.57338582791E+02  0.10566000000E+00 0. -1.
         23    2    1    0    0    0 -0.88061477649E+01 -0.25827198872E+02  0.10676345658E+02  0.95698518866E+02  0.91102303575E+02 0.  0.
         13    1    3    3    0    0 -0.28121533497E+02  0.24871529529E+02 -0.78778108851E+01  0.38359936075E+02  0.10566000000E+00 0.  1.
         22    1    1    0    0    0  0.88061477649E+01  0.25827198872E+02 -0.10676345658E+02  0.29301481134E+02  0.00000000000E+00 0. -1.
</event>
<event>
 5    1  0.6978980E-004  0.9118800E+02  0.7818608E-02  0.1130116E+00
         25   -1    0    0    0    0  0.00000000000E+00  0.00000000000E+00  0.99999998245E-14  0.12500000000E+03  0.12500000000E+03 0.  0.
        -13    1    3    3    0    0 -0.11138506970E+02 -0.51023161870E+02  0.16081621768E+02  0.54644845205E+02  0.10566000000E+00 0. -1.
         23    2    1    0    0    0  0.14660954054E+02 -0.11491328941E+02  0.13637206914E+02  0.10191390836E+03  0.99264681992E+02 0.  0.
         13    1    3    3    0    0  0.25799461025E+02  0.39531832929E+02 -0.24444148537E+01  0.47269063159E+02  0.10566000000E+00 0.  1.
         22    1    1    0    0    0 -0.14660954054E+02  0.11491328941E+02 -0.13637206914E+02  0.23086091636E+02  0.00000000000E+00 0. -1.
</event>
<event>
 5    1  0.6978980E-004  0.9118800E+02  0.7818608E-02  0.1130116E+00
         25   -1    0    0    0    0  0.00000000000E+00  0.00000000000E+00  0.99999998245E-14  0.12500000000E+03  0.12500000000E+03 0.  0.
        -13    1    3    3    0    0 -0.28570107229E+02  0.29325463393E+02  0.26668179666E+02  0.48861404002E+02  0.10566000000E+00 0.  1.
         23    2    1    0    0    0 -0.20504233310E+02  0.11837739788E+02 -0.16507391151E+02  0.96137400853E+02  0.91702509307E+02 0.  0.
         13    1    3    3    0    0  0.80658739192E+01 -0.17487723605E+02 -0.43175570816E+02  0.47275996852E+02  0.10566000000E+00 0. -1.
         22    1    1    0    0    0  0.20504233310E+02 -0.11837739788E+02  0.16507391151E+02  0.28862599147E+02  0.00000000000E+00 0.  1.
</event>
<event>
 5    1  0.6978980E-004  0.9118800E+02  0.7818608E-02  0.1130116E+00
         25   -1    0    0    0    0  0.00000000000E+00  0.00000000000E+00  0.99999998245E-14  0.12500000000E+03  0.12500000000E+03 0.  0.
        -13    1    3    3    0    0 -0.37412761445E+02 -0.23520359107E+01 -0.56877136779E+01  0.37915802019E+02  0.10566000000E+00 0. -1.
         23    2    1    0    0    0  0.13390320271E+02  0.23310240097E+02  0.89183265723E+01  0.96676784801E+02  0.92434821362E+02 0.  0.
         13    1    3    3    0    0  0.50803081715E+02  0.25662276008E+02  0.14606040250E+02  0.58760982782E+02  0.10566000000E+00 0.  1.
         22    1    1    0    0    0 -0.13390320271E+02 -0.23310240097E+02 -0.89183265723E+01  0.28323215199E+02  0.00000000000E+00 0.  1.
</event>
<event>
 5    1  0.6978980E-004  0.9118800E+02  0.7818608E-02  0.1130116E+00
         25   -1    0    0    0    0  0.00000000000E+00  0.00000000000E+00  0.99999998245E-14  0.12500000000E+03  0.12500000000E+03 0.  0.
        -13    1    3    3    0    0 -0.40944547094E+01  0.46198308024E+02  0.83518489707E+00  0.46387033980E+02  0.10566000000E+00 0.  1.
         23    2    1    0    0    0  0.15872970361E+02  0.39033124365E+01  0.21891053202E+02  0.97679581878E+02  0.93781104011E+02 0.  0.
         13    1    3    3    0    0  0.19967425071E+02 -0.42294995588E+02  0.21055868305E+02  0.51292547898E+02  0.10566000000E+00 0. -1.
         22    1    1    0    0    0 -0.15872970361E+02 -0.39033124365E+01 -0.21891053202E+02  0.27320418122E+02  0.00000000000E+00 0.  1.
</event>
<event>
 5    1  0.6978980E-004  0.9118800E+02  0.7818608E-02  0.1130116E+00
         25   -1    0    0    0    0  0.00000000000E+00  0.00000000000E+00  0.99999998245E-14  0.12500000000E+03  0.12500000000E+03 0.  0.
        -13    1    3    3    0    0 -0.10184371548E+01 -0.42018704610E+01  0.40098426560E+02  0.40330979485E+02  0.10566000000E+00 0.  1.
         23    2    1    0    0    0 -0.17463978956E+02 -0.20541233167E+02 -0.10561616359E+02  0.96043471184E+02  0.91574383951E+02 0.  0.
         13    1    3    3    0    0 -0.16445541801E+02 -0.16339362706E+02 -0.50660042918E+02  0.55712491699E+02  0.10566000000E+00 0. -1.
         22    1    1    0    0    0  0.17463978956E+02  0.20541233167E+02  0.10561616359E+02  0.28956528816E+02  0.00000000000E+00 0. -1.
</event>
<event>
 5    1  0.6978980E-004  0.9118800E+02  0.7818608E-02  0.1130116E+00
         25   -1    0    0    0    0  0.00000000000E+00  0.00000000000E+00  0.99999998245E-14  0.12500000000E+03  0.12500000000E+03 0.  0.
        -13    1    3    3    0    0  0.12940920426E+02 -0.36094701563E+02 -0.12207691764E+02  0.40240946865E+02  0.10566000000E+00 0. -1.
         23    2    1    0    0    0  0.20896827425E+02  0.15426244638E+02 -0.19007297018E+02  0.92814230473E+02  0.87054911512E+02 0.  0.
         13    1    3    3    0    0  0.79559069999E+01  0.51520946201E+02 -0.67996052537E+01  0.52573283608E+02  0.10566000000E+00 0.  1.
         22    1    1    0    0    0 -0.20896827425E+02 -0.15426244638E+02  0.19007297018E+02  0.32185769527E+02  0.00000000000E+00 0. -1.
</event>
<event>
 5    1  0.6978980E-004  0.9118800E+02  0.7818608E-02  0.1130116E+00
         25   -1    0    0    0    0  0.00000000000E+00  0.00000000000E+00  0.99999998245E-14  0.12500000000E+03  0.12500000000E+03 0.  0.
        -13    1    3    3    0    0 -0.25716229546E+02 -0.28668145813E+02 -0.48160026486E+01  0.38812267287E+02  0.10566000000E+00 0.  1.
         23    2    1    0    0    0  0.20618788664E+02 -0.41301384635E+01  0.19239057842E+02  0.96498529225E+02  0.92193450452E+02 0.  0.
         13    1    3    3    0    0  0.46335018210E+02  0.24538007349E+02  0.24055060490E+02  0.57686261938E+02  0.10566000000E+00 0. -1.
         22    1    1    0    0    0 -0.20618788664E+02  0.41301384635E+01 -0.19239057842E+02  0.28501470775E+02  0.00000000000E+00 0. -1.
</event>
<event>
 5    1  0.6978980E-004  0.9118800E+02  0.7818608E-02  0.1130116E+00
         25   -1    0    0    0    0  0.00000000000E+00  0.00000000000E+00  0.99999998245E-14  0.12500000000E+03  0.12500000000E+03 0.  0.
        -13    1    3    3    0    0 -0.30790064003E+02 -0.62706495183E+01 -0.21783566034E+02  0.38234591666E+02  0.10566000000E+00 0.  1.
         23    2    1    0    0    0  0.25363320747E+02 -0.10417708160E+02 -0.10363208645E+02  0.95687497957E+02  0.91087180707E+02 0.  0.
         13    1    3    3    0    0  0.56153384750E+02 -0.41470586418E+01  0.11420357389E+02  0.57452906290E+02  0.10566000000E+00 0. -1.
         22    1    1    0    0    0 -0.25363320747E+02  0.10417708160E+02  0.10363208645E+02  0.29312502043E+02  0.00000000000E+00 0. -1.
</event>
<event>
 5    1  0.6978980E-004  0.9118800E+02  0.7818608E-02  0.1130116E+00
         25   -1    0    0    0    0  0.00000000000E+00  0.00000000000E+00  0.99999998245E-14  0.12500000000E+03  0.12500000000E+03 0.  0.
        -13    1    3    3    0    0  0.14839994904E+01  0.13719038382E+02 -0.50147351658E+02  0.52011367132E+02  0.10566000000E+00 0.  1.
         23    2    1    0    0    0  0.67499267927E+01  0.28219311389E+02 -0.11208399425E+02  0.93895028297E+02  0.88593211220E+02 0.  0.
         13    1    3    3    0    0  0.52659273023E+01  0.14500273007E+02  0.38938952232E+02  0.41883661165E+02  0.10566000000E+00 0. -1.
         22    1    1    0    0    0 -0.67499267927E+01 -0.28219311389E+02  0.11208399425E+02  0.31104971703E+02  0.00000000000E+00 0.  1.
</event>
<event>
 5    1  0.6978980E-004  0.9118800E+02  0.7818608E-02  0.1130116E+00
         25   -1    0    0    0    0  0.00000000000E+00  0.00000000000E+00  0.99999998245E-14  0.12500000000E+03  0.12500000000E+03 0.  0.
        -13    1    3    3    0    0 -0.35118445292E+02  0.31272389141E+02  0.15292935668E+02  0.49448483977E+02  0.10566000000E+00 0.  1.
         23    2    1    0    0    0  0.20964525796E+00  0.26020482991E+02 -0.13828555435E+02  0.95532417275E+02  0.90874112478E+02 0.  0.
         13    1    3    3    0    0  0.35328090550E+02 -0.52519061497E+01 -0.29121491103E+02  0.46083933298E+02  0.10566000000E+00 0. -1.
         22    1    1    0    0    0 -0.20964525796E+00 -0.26020482991E+02  0.13828555435E+02  0.29467582725E+02  0.00000000000E+00 0.  1.
</event>
<event>
 5    1  0.6978980E-004  0.9118800E+02  0.7818608E-02  0.1130116E+00
         25   -1    0    0    0    0  0.00000000000E+00  0.00000000000E+00  0.99999998245E-14  0.12500000000E+03  0.12500000000E+03 0.  0.
        -13    1    3    3    0    0  0.51284486440E+02 -0.33795683720E+01  0.11842029776E+02  0.52742438937E+02  0.10566000000E+00 0.  1.
         23    2    1    0    0    0  0.10410465397E+02 -0.14084137588E+02  0.22662528908E+02  0.96358580030E+02  0.92003505409E+02 0.  0.
         13    1    3    3    0    0 -0.40874021043E+02 -0.10704569216E+02  0.10820499133E+02  0.43616141093E+02  0.10566000000E+00 0. -1.
         22    1    1    0    0    0 -0.10410465397E+02  0.14084137588E+02 -0.22662528908E+02  0.28641419970E+02  0.00000000000E+00 0.  1.
</event>
<event>
 5    1  0.6978980E-004  0.9118800E+02  0.7818608E-02  0.1130116E+00
         25   -1    0    0    0    0  0.00000000000E+00  0.00000000000E+00  0.99999998245E-14  0.12500000000E+03  0.12500000000E+03 0.  0.
        -13    1    3    3    0    0  0.30122970047E+02  0.12562060345E+02  0.16218687078E+02  0.36445241927E+02  0.10566000000E+00 0. -1.
         23    2    1    0    0    0 -0.27715640461E+02 -0.63968767085E+00  0.46199955695E+01  0.96894657349E+02  0.92728983265E+02 0.  0.
         13    1    3    3    0    0 -0.57838610508E+02 -0.13201748016E+02 -0.11598691509E+02  0.60449415422E+02  0.10566000000E+00 0.  1.
         22    1    1    0    0    0  0.27715640461E+02  0.63968767085E+00 -0.46199955695E+01  0.28105342651E+02  0.00000000000E+00 0.  1.
</event>
<event>
 5    1  0.6978980E-004  0.9118800E+02  0.7818608E-02  0.1130116E+00
         25   -1    0    0    0    0  0.00000000000E+00  0.00000000000E+00  0.99999998245E-14  0.12500000000E+03  0.12500000000E+03 0.  0.
        -13    1    3    3    0    0  0.27726475393E+02 -0.44769550141E+01 -0.11887533018E+02  0.30497953525E+02  0.10566000000E+00 0. -1.
         23    2    1    0    0    0 -0.31018514110E+02  0.10024717695E+02  0.10943223775E+01  0.92383428692E+02  0.86434120421E+02 0.  0.
         13    1    3    3    0    0 -0.58744989503E+02  0.14501672709E+02  0.12981855395E+02  0.61885475167E+02  0.10566000000E+00 0.  1.
         22    1    1    0    0    0  0.31018514110E+02 -0.10024717695E+02 -0.10943223775E+01  0.32616571308E+02  0.00000000000E+00 0.  1.
</event>
<event>
 5    1  0.6978980E-004  0.9118800E+02  0.7818608E-02  0.1130116E+00
         25   -1    0    0    0    0  0.00000000000E+00  0.00000000000E+00  0.99999998245E-14  0.12500000000E+03  0.12500000000E+03 0.  0.
        -13    1    3    3    0    0 -0.28932329274E+02 -0.35072617844E+02 -0.26546010292E+01  0.45543674317E+02  0.10566000000E+00 0.  1.
         23    2    1    0    0    0  0.48851194282E+01 -0.12463021558E+02  0.26309336992E+02  0.95480980519E+02  0.90803332151E+02 0.  0.
         13    1    3    3    0    0  0.33817448702E+02  0.22609596286E+02  0.28963938021E+02  0.49937306202E+02  0.10566000000E+00 0. -1.
         22    1    1    0    0    0 -0.48851194282E+01  0.12463021558E+02 -0.26309336992E+02  0.29519019481E+02  0.00000000000E+00 0. -1.
</event>
<event>
 5    1  0.6978980E-004  0.9118800E+02  0.7818608E-02  0.1130116E+00
         25   -1    0    0    0    0  0.00000000000E+00  0.00000000000E+00  0.99999998245E-14  0.12500000000E+03  0.12500000000E+03 0.  0.
        -13    1    3    3    0    0  0.56824343237E+01  0.35660279043E+02  0.76325710693E+01  0.36908168018E+02  0.10566000000E+00 0.  1.
         23    2    1    0    0    0  0.17012177245E+01 -0.24319173335E+02  0.13200319639E+02  0.97276999224E+02  0.93242961161E+02 0.  0.
         13    1    3    3    0    0 -0.39812165993E+01 -0.59979452377E+02  0.55677485700E+01  0.60368831207E+02  0.10566000000E+00 0. -1.
         22    1    1    0    0    0 -0.17012177245E+01  0.24319173335E+02 -0.13200319639E+02  0.27723000776E+02  0.00000000000E+00 0. -1.
</event>
<event>
 5    1  0.6978980E-004  0.9118800E+02  0.7818608E-02  0.1130116E+00
         25   -1    0    0    0    0  0.00000000000E+00  0.00000000000E+00  0.99999998245E-14  0.12500000000E+03  0.12500000000E+03 0.  0.
        -13    1    3    3    0    0 -0.24016354688E+02 -0.26805989528E+01  0.20971949633E+02  0.31996948897E+02  0.10566000000E+00 0.  1.
         23    2    1    0    0    0  0.11732190259E+02  0.20564054826E+02 -0.22104723434E+02  0.92609516255E+02  0.86760469476E+02 0.  0.
         13    1    3    3    0    0  0.35748544947E+02  0.23244653779E+02 -0.43076673067E+02  0.60612567358E+02  0.10566000000E+00 0. -1.
         22    1    1    0    0    0 -0.11732190259E+02 -0.20564054826E+02  0.22104723434E+02  0.32390483745E+02  0.00000000000E+00 0. -1.
</event>
<event>
 5    1  0.6978980E-004  0.9118800E+02  0.7818608E-02  0.1130116E+00
         25   -1    0    0    0    0  0.00000000000E+00  0.00000000000E+00  0.99999998245E-14  0.12500000000E+03  0.12500000000E+03 0.  0.
        -13    1    3    3    0    0 -0.49658241438E+02 -0.21914917010E+02 -0.80074040912E+01  0.54866512688E+02  0.10566000000E+00 0. -1.
         23    2    1    0    0    0 -0.22929852722E+02 -0.32142084444E+01  0.17253265676E+02  0.96124673885E+02  0.91685159493E+02 0.  0.
         13    1    3    3    0    0  0.26728388716E+02  0.18700708565E+02  0.25260669767E+02  0.41258161197E+02  0.10566000000E+00 0.  1.
         22    1    1    0    0    0  0.22929852722E+02  0.32142084444E+01 -0.17253265676E+02  0.28875326115E+02  0.00000000000E+00 0. -1.
</event>
<event>
 5    1  0.6978980E-004  0.9118800E+02  0.7818608E-02  0.1130116E+00
         25   -1    0    0    0    0  0.00000000000E+00  0.00000000000E+00  0.99999998245E-14  0.12500000000E+03  0.12500000000E+03 0.  0.
        -13    1    3    3    0    0  0.22135750748E+02  0.12779532010E+02 -0.28991899997E+02  0.38650347076E+02  0.10566000000E+00 0.  1.
         23    2    1    0    0    0  0.60199127242E+01 -0.26206647436E+01  0.26103033190E+02  0.98083916060E+02  0.94318497736E+02 0.  0.
         13    1    3    3    0    0 -0.16115838023E+02 -0.15400196754E+02  0.55094933188E+02  0.59433568985E+02  0.10566000000E+00 0. -1.
         22    1    1    0    0    0 -0.60199127242E+01  0.26206647436E+01 -0.26103033190E+02  0.26916083940E+02  0.00000000000E+00 0. -1.
</event>
<event>
 5    1  0.6978980E-004  0.9118800E+02  0.7818608E-02  0.1130116E+00
         25   -1    0    0    0    0  0.00000000000E+00  0.00000000000E+00  0.99999998245E-14  0.12500000000E+03  0.12500000000E+03 0.  0.
        -13    1    3    3    0    0  0.43972577029E+02  0.25890945361E+02 -0.35269719622E+02  0.62031386157E+02  0.10566000000E+00 0.  1.
         23    2    1    0    0    0  0.16405791093E+02  0.15175023404E+02 -0.18187644310E+02  0.96186431630E+02  0.91769318988E+02 0.  0.
         13    1    3    3    0    0 -0.27566785936E+02 -0.10715921957E+02  0.17082075313E+02  0.34155045473E+02  0.10566000000E+00 0. -1.
         22    1    1    0    0    0 -0.16405791093E+02 -0.15175023404E+02  0.18187644310E+02  0.28813568370E+02  0.00000000000E+00 0.  1.
</event>
<event>
 5    1  0.6978980E-004  0.9118800E+02  0.7818608E-02  0.1130116E+00
         25   -1    0    0    0    0  0.00000000000E+00  0.00000000000E+00  0.99999998245E-14  0.12500000000E+03  0.12500000000E+03 0.  0.
        -13    1    3    3    0    0  0.24474462487E+02 -0.22055086631E+02  0.18727421479E+02  0.37896617786E+02  0.10566000000E+00 0.  1.
         23    2    1    0    0    0 -0.14099024617E+02  0.21146828038E+02  0.13943609378E+02  0.96010431640E+02  0.91529273514E+02 0.  0.
         13    1    3    3    0    0 -0.38573487104E+02  0.43201914669E+02 -0.47838121017E+01  0.58113813854E+02  0.10566000000E+00 0. -1.
         22    1    1    0    0    0  0.14099024617E+02 -0.21146828038E+02 -0.13943609378E+02  0.28989568360E+02  0.00000000000E+00 0. -1.
</event>
<event>
 5    1  0.6978980E-004  0.9118800E+02  0.7818608E-02  0.1130116E+00
         25   -1    0    0    0    0  0.00000000000E+00  0.00000000000E+00  0.99999998245E-14  0.12500000000E+03  0.12500000000E+03 0.  0.
        -13    1    3    3    0    0  0.33654632529E+02 -0.35722651517E+02  0.25244919942E+02  0.55191115852E+02  0.10566000000E+00 0.  1.
         23    2    1    0    0    0  0.30697822865E+02 -0.31821169678E+01  0.47165930437E+01  0.93779358639E+02  0.88429857287E+02 0.  0.
         13    1    3    3    0    0 -0.29568096636E+01  0.32540534549E+02 -0.20528326898E+02  0.38588242787E+02  0.10566000000E+00 0. -1.
         22    1    1    0    0    0 -0.30697822865E+02  0.31821169678E+01 -0.47165930437E+01  0.31220641361E+02  0.00000000000E+00 0.  1.
</event>
<event>
 5    1  0.6978980E-004  0.9118800E+02  0.7818608E-02  0.1130116E+00
         25   -1    0    0    0    0  0.00000000000E+00  0.00000000000E+00  0.99999998245E-14  0.12500000000E+03  0.12500000000E+03 0.  0.
        -13    1    3    3    0    0 -0.38075121626E+02  0.42680007117E+00 -0.38495350272E+01  0.38271753672E+02  0.10566000000E+00 0. -1.
         23    2    1    0    0    0  0.94964035784E+01 -0.98858387407E+00  0.27919184553E+02  0.95493393196E+02  0.90820417853E+02 0.  0.
         13    1    3    3    0    0  0.47571525205E+02 -0.14153839452E+01  0.31768719580E+02  0.57221639524E+02  0.10566000000E+00 0.  1.
         22    1    1    0    0    0 -0.94964035784E+01  0.98858387407E+00 -0.27919184553E+02  0.29506606804E+02  0.00000000000E+00 0.  1.
</event>
<event>
 5    1  0.6978980E-004  0.9118800E+02  0.7818608E-02  0.1130116E+00
         25   -1    0    0    0    0  0.00000000000E+00  0.00000000000E+00  0.99999998245E-14  0.12500000000E+03  0.12500000000E+03 0.  0.
        -13    1    3    3    0    0 -0.16486310273E+02 -0.27530709900E+01 -0.36092712605E+02  0.39775279930E+02  0.10566000000E+00 0.  1.
         23    2    1    0    0    0 -0.92055280448E+01  0.25021894590E+02  0.11980150682E+02  0.95770546262E+02  0.91201077655E+02 0.  0.
         13    1    3    3    0    0  0.72807822284E+01  0.27774965580E+02  0.48072863287E+02  0.55995266331E+02  0.10566000000E+00 0. -1.
         22    1    1    0    0    0  0.92055280448E+01 -0.25021894590E+02 -0.11980150682E+02  0.29229453738E+02  0.00000000000E+00 0. -1.
</event>
<event>
 5    1  0.6978980E-004  0.9118800E+02  0.7818608E-02  0.1130116E+00
         25   -1    0    0    0    0  0.00000000000E+00  0.00000000000E+00  0.99999998245E-14  0.12500000000E+03  0.12500000000E+03 0.  0.
        -13    1    3    3    0    0 -0.26905731169E+02 -0.17529705024E+02  0.35494641550E+02  0.47865328483E+02  0.10566000000E+00 0.  1.
         23    2    1    0    0    0 -0.25918230418E+02  0.13902751762E+02 -0.39757382536E+00  0.95585730682E+02  0.90947417063E+02 0.  0.
         13    1    3    3    0    0  0.98750075055E+00  0.31432456787E+02 -0.35892215376E+02  0.47720402199E+02  0.10566000000E+00 0. -1.
         22    1    1    0    0    0  0.25918230418E+02 -0.13902751762E+02  0.39757382536E+00  0.29414269318E+02  0.00000000000E+00 0. -1.
</event>
<event>
 5    1  0.6978980E-004  0.9118800E+02  0.7818608E-02  0.1130116E+00
         25   -1    0    0    0    0  0.00000000000E+00  0.00000000000E+00  0.99999998245E-14  0.12500000000E+03  0.12500000000E+03 0.  0.
        -13    1    3    3    0    0  0.26706538528E+02 -0.17816949774E+02 -0.21082274160E+02  0.38407764152E+02  0.10566000000E+00 0.  1.
         23    2    1    0    0    0  0.10534837293E+02  0.10324446925E+02  0.25712432632E+02  0.95357021186E+02  0.90632528910E+02 0.  0.
         13    1    3    3    0    0 -0.16171701235E+02  0.28141396699E+02  0.46794706791E+02  0.56949257034E+02  0.10566000000E+00 0. -1.
         22    1    1    0    0    0 -0.10534837293E+02 -0.10324446925E+02 -0.25712432632E+02  0.29642978814E+02  0.00000000000E+00 0. -1.
</event>
<event>
 5    1  0.6978980E-004  0.9118800E+02  0.7818608E-02  0.1130116E+00
         25   -1    0    0    0    0  0.00000000000E+00  0.00000000000E+00  0.99999998245E-14  0.12500000000E+03  0.12500000000E+03 0.  0.
        -13    1    3    3    0    0  0.18467289588E+02  0.18410445908E+02 -0.21994001691E+01  0.26169329919E+02  0.10566000000E+00 0.  1.
         23    2    1    0    0    0 -0.21208044801E+02 -0.22686946972E+02 -0.22344106408E+02  0.86741173328E+02  0.77847885854E+02 0.  0.
         13    1    3    3    0    0 -0.39675334389E+02 -0.41097392881E+02 -0.20144706238E+02  0.60571843409E+02  0.10566000000E+00 0. -1.
         22    1    1    0    0    0  0.21208044801E+02  0.22686946972E+02  0.22344106408E+02  0.38258826672E+02  0.00000000000E+00 0. -1.
</event>
<event>
 5    1  0.6978980E-004  0.9118800E+02  0.7818608E-02  0.1130116E+00
         25   -1    0    0    0    0  0.00000000000E+00  0.00000000000E+00  0.99999998245E-14  0.12500000000E+03  0.12500000000E+03 0.  0.
        -13    1    3    3    0    0 -0.11306401294E+02 -0.47245970072E+02  0.11876386640E+02  0.50010760062E+02  0.10566000000E+00 0.  1.
         23    2    1    0    0    0 -0.17305927659E+02 -0.28380693622E+01  0.22898137762E+02  0.96157765641E+02  0.91730264418E+02 0.  0.
         13    1    3    3    0    0 -0.59995263647E+01  0.44407900710E+02  0.11021751122E+02  0.46147005579E+02  0.10566000000E+00 0. -1.
         22    1    1    0    0    0  0.17305927659E+02  0.28380693622E+01 -0.22898137762E+02  0.28842234359E+02  0.00000000000E+00 0.  1.
</event>
<event>
 5    1  0.6978980E-004  0.9118800E+02  0.7818608E-02  0.1130116E+00
         25   -1    0    0    0    0  0.00000000000E+00  0.00000000000E+00  0.99999998245E-14  0.12500000000E+03  0.12500000000E+03 0.  0.
        -13    1    3    3    0    0 -0.44740075025E+02 -0.58561164469E+01  0.39966043560E+02  0.60276564392E+02  0.10566000000E+00 0.  1.
         23    2    1    0    0    0 -0.12554950707E+02  0.40020898353E+01  0.24195243211E+02  0.97449077977E+02  0.93473362485E+02 0.  0.
         13    1    3    3    0    0  0.32185124318E+02  0.98582062822E+01 -0.15770800349E+02  0.37172513584E+02  0.10566000000E+00 0. -1.
         22    1    1    0    0    0  0.12554950707E+02 -0.40020898353E+01 -0.24195243211E+02  0.27550922023E+02  0.00000000000E+00 0.  1.
</event>
<event>
 5    1  0.6978980E-004  0.9118800E+02  0.7818608E-02  0.1130116E+00
         25   -1    0    0    0    0  0.00000000000E+00  0.00000000000E+00  0.99999998245E-14  0.12500000000E+03  0.12500000000E+03 0.  0.
        -13    1    3    3    0    0 -0.32522975688E+02 -0.46422872240E+02  0.18636079661E+02  0.59666922526E+02  0.10566000000E+00 0. -1.
         23    2    1    0    0    0 -0.21431075816E+02 -0.16845455317E+02 -0.24251060204E+01  0.97633204158E+02  0.93719267173E+02 0.  0.
         13    1    3    3    0    0  0.11091899872E+02  0.29577416923E+02 -0.21061185682E+02  0.37966281632E+02  0.10566000000E+00 0.  1.
         22    1    1    0    0    0  0.21431075816E+02  0.16845455317E+02  0.24251060204E+01  0.27366795842E+02  0.00000000000E+00 0. -1.
</event>
<event>
 5    1  0.6978980E-004  0.9118800E+02  0.7818608E-02  0.1130116E+00
         25   -1    0    0    0    0  0.00000000000E+00  0.00000000000E+00  0.99999998245E-14  0.12500000000E+03  0.12500000000E+03 0.  0.
        -13    1    3    3    0    0  0.35677614484E+02  0.10289689153E+02 -0.34757887299E+02  0.50861495964E+02  0.10566000000E+00 0. -1.
         23    2    1    0    0    0  0.22281357009E+02 -0.19334560902E+02 -0.47233294240E+01  0.95123689046E+02  0.90310144842E+02 0.  0.
         13    1    3    3    0    0 -0.13396257475E+02 -0.29624250055E+02  0.30034557875E+02  0.44262193082E+02  0.10566000000E+00 0.  1.
         22    1    1    0    0    0 -0.22281357009E+02  0.19334560902E+02  0.47233294240E+01  0.29876310954E+02  0.00000000000E+00 0. -1.
</event>
<event>
 5    1  0.6978980E-004  0.9118800E+02  0.7818608E-02  0.1130116E+00
         25   -1    0    0    0    0  0.00000000000E+00  0.00000000000E+00  0.99999998245E-14  0.12500000000E+03  0.12500000000E+03 0.  0.
        -13    1    3    3    0    0  0.72229734383E+01  0.28215232371E+02  0.17305906069E+02  0.33878846378E+02  0.10566000000E+00 0.  1.
         23    2    1    0    0    0 -0.33922806941E+02  0.15553359333E+01 -0.94751898077E+01  0.89744431326E+02  0.82529436151E+02 0.  0.
         13    1    3    3    0    0 -0.41145780380E+02 -0.26659896437E+02 -0.26781095877E+02  0.55865584947E+02  0.10566000000E+00 0. -1.
         22    1    1    0    0    0  0.33922806941E+02 -0.15553359333E+01  0.94751898077E+01  0.35255568674E+02  0.00000000000E+00 0. -1.
</event>
<event>
 5    1  0.6978980E-004  0.9118800E+02  0.7818608E-02  0.1130116E+00
         25   -1    0    0    0    0  0.00000000000E+00  0.00000000000E+00  0.99999998245E-14  0.12500000000E+03  0.12500000000E+03 0.  0.
        -13    1    3    3    0    0  0.31757947995E+02 -0.22918485219E+01 -0.30550591836E+02  0.44126745360E+02  0.10566000000E+00 0.  1.
         23    2    1    0    0    0 -0.19097008043E+02 -0.12499239149E+02 -0.12002371141E+02  0.99212723903E+02  0.95802823422E+02 0.  0.
         13    1    3    3    0    0 -0.50854956038E+02 -0.10207390627E+02  0.18548220694E+02  0.55085978543E+02  0.10566000000E+00 0. -1.
         22    1    1    0    0    0  0.19097008043E+02  0.12499239149E+02  0.12002371141E+02  0.25787276097E+02  0.00000000000E+00 0. -1.
</event>
<event>
 5    1  0.6978980E-004  0.9118800E+02  0.7818608E-02  0.1130116E+00
         25   -1    0    0    0    0  0.00000000000E+00  0.00000000000E+00  0.99999998245E-14  0.12500000000E+03  0.12500000000E+03 0.  0.
        -13    1    3    3    0    0 -0.34193446276E+01  0.14996571556E+01  0.22253229408E+02  0.22564535723E+02  0.10566000000E+00 0. -1.
         23    2    1    0    0    0  0.23834393573E+02 -0.19777049738E+02 -0.27788828141E+02  0.83389556807E+02  0.72266099948E+02 0.  0.
         13    1    3    3    0    0  0.27253738200E+02 -0.21276706893E+02 -0.50042057549E+02  0.60825021084E+02  0.10566000000E+00 0.  1.
         22    1    1    0    0    0 -0.23834393573E+02  0.19777049738E+02  0.27788828141E+02  0.41610443193E+02  0.00000000000E+00 0.  1.
</event>
<event>
 5    1  0.6978980E-004  0.9118800E+02  0.7818608E-02  0.1130116E+00
         25   -1    0    0    0    0  0.00000000000E+00  0.00000000000E+00  0.99999998245E-14  0.12500000000E+03  0.12500000000E+03 0.  0.
        -13    1    3    3    0    0 -0.32438852199E+01  0.30171240540E+02  0.13780709203E+02  0.33327851074E+02  0.10566000000E+00 0. -1.
         23    2    1    0    0    0 -0.66241322931E+01 -0.29578561058E+02  0.23160255935E+00  0.94687889505E+02  0.89704918350E+02 0.  0.
         13    1    3    3    0    0 -0.33802470732E+01 -0.59749801599E+02 -0.13549106643E+02  0.61360038431E+02  0.10566000000E+00 0.  1.
         22    1    1    0    0    0  0.66241322931E+01  0.29578561058E+02 -0.23160255935E+00  0.30312110495E+02  0.00000000000E+00 0.  1.
</event>
<event>
 5    1  0.6978980E-004  0.9118800E+02  0.7818608E-02  0.1130116E+00
         25   -1    0    0    0    0  0.00000000000E+00  0.00000000000E+00  0.99999998245E-14  0.12500000000E+03  0.12500000000E+03 0.  0.
        -13    1    3    3    0    0  0.33699435070E+02  0.40150087501E+01  0.14900836340E+02  0.37065055065E+02  0.10566000000E+00 0.  1.
         23    2    1    0    0    0 -0.11452407627E+02  0.74685744021E+01 -0.24403615266E+02  0.97027268955E+02  0.92907573635E+02 0.  0.
         13    1    3    3    0    0 -0.45151842696E+02  0.34535656520E+01 -0.39304451606E+02  0.59962213891E+02  0.10566000000E+00 0. -1.
         22    1    1    0    0    0  0.11452407627E+02 -0.74685744021E+01  0.24403615266E+02  0.27972731045E+02  0.00000000000E+00 0. -1.
</event>
<event>
 5    1  0.6978980E-004  0.9118800E+02  0.7818608E-02  0.1130116E+00
         25   -1    0    0    0    0  0.00000000000E+00  0.00000000000E+00  0.99999998245E-14  0.12500000000E+03  0.12500000000E+03 0.  0.
        -13    1    3    3    0    0 -0.18135804388E+02  0.30002339932E+02  0.76336696358E+01  0.35879407441E+02  0.10566000000E+00 0.  1.
         23    2    1    0    0    0  0.30740833559E+02  0.92200267255E+01 -0.92324672019E+01  0.91604698065E+02  0.85300495404E+02 0.  0.
         13    1    3    3    0    0  0.48876637946E+02 -0.20782313207E+02 -0.16866136838E+02  0.55725290623E+02  0.10566000000E+00 0. -1.
         22    1    1    0    0    0 -0.30740833559E+02 -0.92200267255E+01  0.92324672019E+01  0.33395301935E+02  0.00000000000E+00 0.  1.
</event>
<event>
 5    1  0.6978980E-004  0.9118800E+02  0.7818608E-02  0.1130116E+00
         25   -1    0    0    0    0  0.00000000000E+00  0.00000000000E+00  0.99999998245E-14  0.12500000000E+03  0.12500000000E+03 0.  0.
        -13    1    3    3    0    0 -0.10283353897E+02 -0.37219294689E+02  0.12911130804E+01  0.38635494063E+02  0.10566000000E+00 0.  1.
         23    2    1    0    0    0  0.21609144453E+02  0.89089678841E+01 -0.15234843006E+02  0.97099726271E+02  0.93005008293E+02 0.  0.
         13    1    3    3    0    0  0.31892498350E+02  0.46128262573E+02 -0.16525956086E+02  0.58464232207E+02  0.10566000000E+00 0. -1.
         22    1    1    0    0    0 -0.21609144453E+02 -0.89089678841E+01  0.15234843006E+02  0.27900273729E+02  0.00000000000E+00 0. -1.
</event>
<event>
 5    1  0.6978980E-004  0.9118800E+02  0.7818608E-02  0.1130116E+00
         25   -1    0    0    0    0  0.00000000000E+00  0.00000000000E+00  0.99999998245E-14  0.12500000000E+03  0.12500000000E+03 0.  0.
        -13    1    3    3    0    0 -0.17204419128E+02  0.27101350721E+02 -0.50366356798E+02  0.59726512619E+02  0.10566000000E+00 0. -1.
         23    2    1    0    0    0  0.25529198081E+01  0.50548751090E+01 -0.26919991825E+02  0.97490817501E+02  0.93529163233E+02 0.  0.
         13    1    3    3    0    0  0.19757338936E+02 -0.22046475612E+02  0.23446364973E+02  0.37764304882E+02  0.10566000000E+00 0.  1.
         22    1    1    0    0    0 -0.25529198081E+01 -0.50548751090E+01  0.26919991825E+02  0.27509182499E+02  0.00000000000E+00 0. -1.
</event>
<event>
 5    1  0.6978980E-004  0.9118800E+02  0.7818608E-02  0.1130116E+00
         25   -1    0    0    0    0  0.00000000000E+00  0.00000000000E+00  0.99999998245E-14  0.12500000000E+03  0.12500000000E+03 0.  0.
        -13    1    3    3    0    0  0.45715704533E+02 -0.27089841853E+02 -0.25389286018E+02  0.58893226954E+02  0.10566000000E+00 0. -1.
         23    2    1    0    0    0  0.28197092003E+02 -0.71310451612E+01  0.40125931778E+00  0.95912394193E+02  0.91395287342E+02 0.  0.
         13    1    3    3    0    0 -0.17518612529E+02  0.19958796692E+02  0.25790545335E+02  0.37019167239E+02  0.10566000000E+00 0.  1.
         22    1    1    0    0    0 -0.28197092003E+02  0.71310451612E+01 -0.40125931778E+00  0.29087605807E+02  0.00000000000E+00 0. -1.
</event>
<event>
 5    1  0.6978980E-004  0.9118800E+02  0.7818608E-02  0.1130116E+00
         25   -1    0    0    0    0  0.00000000000E+00  0.00000000000E+00  0.99999998245E-14  0.12500000000E+03  0.12500000000E+03 0.  0.
        -13    1    3    3    0    0  0.12423553883E+02 -0.50521053783E+02 -0.15623879934E+02  0.54321619588E+02  0.10566000000E+00 0. -1.
         23    2    1    0    0    0  0.18875045787E+01 -0.43383695796E+02  0.77059426485E+01  0.80896833599E+02  0.67817463826E+02 0.  0.
         13    1    3    3    0    0 -0.10536049305E+02  0.71373579868E+01  0.23329822582E+02  0.26575214011E+02  0.10566000000E+00 0.  1.
         22    1    1    0    0    0 -0.18875045787E+01  0.43383695796E+02 -0.77059426485E+01  0.44103166401E+02  0.00000000000E+00 0. -1.
</event>
<event>
 5    1  0.6978980E-004  0.9118800E+02  0.7818608E-02  0.1130116E+00
         25   -1    0    0    0    0  0.00000000000E+00  0.00000000000E+00  0.99999998245E-14  0.12500000000E+03  0.12500000000E+03 0.  0.
        -13    1    3    3    0    0 -0.32936782227E+02  0.48020445689E+02  0.13689169768E+02  0.59818052130E+02  0.10566000000E+00 0. -1.
         23    2    1    0    0    0 -0.22804481846E+02  0.26676510995E+02 -0.44752949945E+01  0.89620501750E+02  0.82341517095E+02 0.  0.
         13    1    3    3    0    0  0.10132300382E+02 -0.21343934693E+02 -0.18164464762E+02  0.29802449620E+02  0.10566000000E+00 0.  1.
         22    1    1    0    0    0  0.22804481846E+02 -0.26676510995E+02  0.44752949945E+01  0.35379498250E+02  0.00000000000E+00 0. -1.
</event>
<event>
 5    1  0.6978980E-004  0.9118800E+02  0.7818608E-02  0.1130116E+00
         25   -1    0    0    0    0  0.00000000000E+00  0.00000000000E+00  0.99999998245E-14  0.12500000000E+03  0.12500000000E+03 0.  0.
        -13    1    3    3    0    0  0.45962180124E+02  0.11253865433E+02  0.34464792338E+02  0.58540623193E+02  0.10566000000E+00 0.  1.
         23    2    1    0    0    0  0.18085623017E+02 -0.89672555288E+01  0.21940610713E+02  0.95185710975E+02  0.90395949819E+02 0.  0.
         13    1    3    3    0    0 -0.27876557107E+02 -0.20221120962E+02 -0.12524181625E+02  0.36645087781E+02  0.10566000000E+00 0. -1.
         22    1    1    0    0    0 -0.18085623017E+02  0.89672555288E+01 -0.21940610713E+02  0.29814289025E+02  0.00000000000E+00 0.  1.
</event>
<event>
 5    1  0.6978980E-004  0.9118800E+02  0.7818608E-02  0.1130116E+00
         25   -1    0    0    0    0  0.00000000000E+00  0.00000000000E+00  0.99999998245E-14  0.12500000000E+03  0.12500000000E+03 0.  0.
        -13    1    3    3    0    0  0.13767748774E+02 -0.43207424095E+02  0.38152469879E+02  0.59262589592E+02  0.10566000000E+00 0.  1.
         23    2    1    0    0    0 -0.65762931388E+01 -0.24608730361E+02  0.13875578838E+02  0.95993639844E+02  0.91506338365E+02 0.  0.
         13    1    3    3    0    0 -0.20344041913E+02  0.18598693734E+02 -0.24276891041E+02  0.36731050252E+02  0.10566000000E+00 0. -1.
         22    1    1    0    0    0  0.65762931388E+01  0.24608730361E+02 -0.13875578838E+02  0.29006360156E+02  0.00000000000E+00 0.  1.
</event>
<event>
 5    1  0.6978980E-004  0.9118800E+02  0.7818608E-02  0.1130116E+00
         25   -1    0    0    0    0  0.00000000000E+00  0.00000000000E+00  0.99999998245E-14  0.12500000000E+03  0.12500000000E+03 0.  0.
        -13    1    3    3    0    0  0.23133405016E+02  0.13753993229E+02 -0.50292421431E+02  0.57040911412E+02  0.10566000000E+00 0.  1.
         23    2    1    0    0    0 -0.55270917092E+01  0.30965874957E+00 -0.29659047696E+02  0.94828759695E+02  0.89901000683E+02 0.  0.
         13    1    3    3    0    0 -0.28660496725E+02 -0.13444334480E+02  0.20633373735E+02  0.37787848283E+02  0.10566000000E+00 0. -1.
         22    1    1    0    0    0  0.55270917092E+01 -0.30965874957E+00  0.29659047696E+02  0.30171240305E+02  0.00000000000E+00 0.  1.
</event>
<event>
 5    1  0.6978980E-004  0.9118800E+02  0.7818608E-02  0.1130116E+00
         25   -1    0    0    0    0  0.00000000000E+00  0.00000000000E+00  0.99999998245E-14  0.12500000000E+03  0.12500000000E+03 0.  0.
        -13    1    3    3    0    0  0.57126404262E+02  0.18939595507E+02 -0.15738578494E+02  0.62208105251E+02  0.10566000000E+00 0.  1.
         23    2    1    0    0    0  0.26731020079E+02  0.13148705946E+02 -0.63810359396E+01  0.94534387875E+02  0.89490764712E+02 0.  0.
         13    1    3    3    0    0 -0.30395384183E+02 -0.57908895613E+01  0.93575425542E+01  0.32326282624E+02  0.10566000000E+00 0. -1.
         22    1    1    0    0    0 -0.26731020079E+02 -0.13148705946E+02  0.63810359396E+01  0.30465612125E+02  0.00000000000E+00 0.  1.
</event>
<event>
 5    1  0.6978980E-004  0.9118800E+02  0.7818608E-02  0.1130116E+00
         25   -1    0    0    0    0  0.00000000000E+00  0.00000000000E+00  0.99999998245E-14  0.12500000000E+03  0.12500000000E+03 0.  0.
        -13    1    3    3    0    0  0.39595691139E+02  0.32595968412E+02 -0.30802784424E+02  0.59825902465E+02  0.10566000000E+00 0.  1.
         23    2    1    0    0    0  0.22331871558E+02  0.31006188174E+01 -0.17334604922E+02  0.96560329605E+02  0.92277204126E+02 0.  0.
         13    1    3    3    0    0 -0.17263819581E+02 -0.29495349595E+02  0.13468179501E+02  0.36734427140E+02  0.10566000000E+00 0. -1.
         22    1    1    0    0    0 -0.22331871558E+02 -0.31006188174E+01  0.17334604922E+02  0.28439670395E+02  0.00000000000E+00 0.  1.
</event>
<event>
 5    1  0.6978980E-004  0.9118800E+02  0.7818608E-02  0.1130116E+00
         25   -1    0    0    0    0  0.00000000000E+00  0.00000000000E+00  0.99999998245E-14  0.12500000000E+03  0.12500000000E+03 0.  0.
        -13    1    3    3    0    0  0.50882430046E+02  0.14470858312E+01 -0.15890225752E+02  0.53325661583E+02  0.10566000000E+00 0. -1.
         23    2    1    0    0    0  0.12320418435E+02  0.19616419754E+02 -0.17474872364E+02  0.95983318616E+02  0.91492238218E+02 0.  0.
         13    1    3    3    0    0 -0.38562011611E+02  0.18169333923E+02 -0.15846466115E+01  0.42657657034E+02  0.10566000000E+00 0.  1.
         22    1    1    0    0    0 -0.12320418435E+02 -0.19616419754E+02  0.17474872364E+02  0.29016681384E+02  0.00000000000E+00 0.  1.
</event>
<event>
 5    1  0.6978980E-004  0.9118800E+02  0.7818608E-02  0.1130116E+00
         25   -1    0    0    0    0  0.00000000000E+00  0.00000000000E+00  0.99999998245E-14  0.12500000000E+03  0.12500000000E+03 0.  0.
        -13    1    3    3    0    0  0.66217960210E+01 -0.44450413789E+02 -0.22058165476E+02  0.50062573813E+02  0.10566000000E+00 0.  1.
         23    2    1    0    0    0  0.48584584002E+00  0.39202636624E+00 -0.29122350082E+02  0.95870959420E+02  0.91338600027E+02 0.  0.
         13    1    3    3    0    0 -0.61359501810E+01  0.44842440155E+02 -0.70641846059E+01  0.45808385607E+02  0.10566000000E+00 0. -1.
         22    1    1    0    0    0 -0.48584584002E+00 -0.39202636624E+00  0.29122350082E+02  0.29129040580E+02  0.00000000000E+00 0. -1.
</event>
<event>
 5    1  0.6978980E-004  0.9118800E+02  0.7818608E-02  0.1130116E+00
         25   -1    0    0    0    0  0.00000000000E+00  0.00000000000E+00  0.99999998245E-14  0.12500000000E+03  0.12500000000E+03 0.  0.
        -13    1    3    3    0    0  0.28259709087E+02 -0.35872879424E+02  0.86129076902E+01  0.46472228037E+02  0.10566000000E+00 0. -1.
         23    2    1    0    0    0 -0.69290117472E+01 -0.20876051449E+02 -0.20801853238E+02  0.94725624267E+02  0.89757484740E+02 0.  0.
         13    1    3    3    0    0 -0.35188720834E+02  0.14996827975E+02 -0.29414760928E+02  0.48253396230E+02  0.10566000000E+00 0.  1.
         22    1    1    0    0    0  0.69290117472E+01  0.20876051449E+02  0.20801853238E+02  0.30274375733E+02  0.00000000000E+00 0. -1.
</event>
<event>
 5    1  0.6978980E-004  0.9118800E+02  0.7818608E-02  0.1130116E+00
         25   -1    0    0    0    0  0.00000000000E+00  0.00000000000E+00  0.99999998245E-14  0.12500000000E+03  0.12500000000E+03 0.  0.
        -13    1    3    3    0    0 -0.11273561522E+02  0.71110005933E+01 -0.31859100444E+02  0.34535097567E+02  0.10566000000E+00 0.  1.
         23    2    1    0    0    0 -0.75023883194E+01 -0.12633894747E+01  0.28455470395E+02  0.95545021153E+02  0.90891447828E+02 0.  0.
         13    1    3    3    0    0  0.37711732026E+01 -0.83743900680E+01  0.60314570840E+02  0.61009923586E+02  0.10566000000E+00 0. -1.
         22    1    1    0    0    0  0.75023883194E+01  0.12633894747E+01 -0.28455470395E+02  0.29454978847E+02  0.00000000000E+00 0. -1.
</event>
<event>
 5    1  0.6978980E-004  0.9118800E+02  0.7818608E-02  0.1130116E+00
         25   -1    0    0    0    0  0.00000000000E+00  0.00000000000E+00  0.99999998245E-14  0.12500000000E+03  0.12500000000E+03 0.  0.
        -13    1    3    3    0    0 -0.44118808591E+02 -0.19679581844E+02 -0.30032009022E+02  0.56883107712E+02  0.10566000000E+00 0. -1.
         23    2    1    0    0    0 -0.31852982921E+02 -0.30536127010E+01 -0.41062930959E+00  0.92998348669E+02  0.87318882078E+02 0.  0.
         13    1    3    3    0    0  0.12265825671E+02  0.16625969143E+02  0.29621379712E+02  0.36115240957E+02  0.10566000000E+00 0.  1.
         22    1    1    0    0    0  0.31852982921E+02  0.30536127010E+01  0.41062930959E+00  0.32001651331E+02  0.00000000000E+00 0. -1.
</event>
<event>
 5    1  0.6978980E-004  0.9118800E+02  0.7818608E-02  0.1130116E+00
         25   -1    0    0    0    0  0.00000000000E+00  0.00000000000E+00  0.99999998245E-14  0.12500000000E+03  0.12500000000E+03 0.  0.
        -13    1    3    3    0    0  0.17716608928E+02  0.30145433250E+02 -0.11652438998E+02  0.36856693780E+02  0.10566000000E+00 0. -1.
         23    2    1    0    0    0 -0.54375363547E+00 -0.27081706033E+02 -0.78691446473E+00  0.97901407711E+02  0.94076309067E+02 0.  0.
         13    1    3    3    0    0 -0.18260362563E+02 -0.57227139283E+02  0.10865524533E+02  0.61044713931E+02  0.10566000000E+00 0.  1.
         22    1    1    0    0    0  0.54375363547E+00  0.27081706033E+02  0.78691446473E+00  0.27098592289E+02  0.00000000000E+00 0.  1.
</event>
<event>
 5    1  0.6978980E-004  0.9118800E+02  0.7818608E-02  0.1130116E+00
         25   -1    0    0    0    0  0.00000000000E+00  0.00000000000E+00  0.99999998245E-14  0.12500000000E+03  0.12500000000E+03 0.  0.
        -13    1    3    3    0    0 -0.64307159912E+01  0.52943274390E+02  0.15344968422E+00  0.53332720933E+02  0.10566000000E+00 0. -1.
         23    2    1    0    0    0  0.17769222572E+02  0.17395471508E+02 -0.11076120938E+02  0.97778167681E+02  0.93912416219E+02 0.  0.
         13    1    3    3    0    0  0.24199938564E+02 -0.35547802882E+02 -0.11229570622E+02  0.44445446748E+02  0.10566000000E+00 0.  1.
         22    1    1    0    0    0 -0.17769222572E+02 -0.17395471508E+02  0.11076120938E+02  0.27221832319E+02  0.00000000000E+00 0. -1.
</event>
<event>
 5    1  0.6978980E-004  0.9118800E+02  0.7818608E-02  0.1130116E+00
         25   -1    0    0    0    0  0.00000000000E+00  0.00000000000E+00  0.99999998245E-14  0.12500000000E+03  0.12500000000E+03 0.  0.
        -13    1    3    3    0    0 -0.26694748132E+02  0.30114728885E+02 -0.63370214698E+01  0.40739114850E+02  0.10566000000E+00 0.  1.
         23    2    1    0    0    0  0.75275700456E+01 -0.45374150583E+01  0.24897193511E+02  0.98596918912E+02  0.94995945850E+02 0.  0.
         13    1    3    3    0    0  0.34222318178E+02 -0.34652143943E+02  0.31234214981E+02  0.57857804062E+02  0.10566000000E+00 0. -1.
         22    1    1    0    0    0 -0.75275700456E+01  0.45374150583E+01 -0.24897193511E+02  0.26403081088E+02  0.00000000000E+00 0. -1.
</event>
<event>
 5    1  0.6978980E-004  0.9118800E+02  0.7818608E-02  0.1130116E+00
         25   -1    0    0    0    0  0.00000000000E+00  0.00000000000E+00  0.99999998245E-14  0.12500000000E+03  0.12500000000E+03 0.  0.
        -13    1    3    3    0    0  0.11483789886E+02 -0.30431238574E+02  0.87817100173E+01  0.33690759952E+02  0.10566000000E+00 0. -1.
         23    2    1    0    0    0 -0.24161266824E+02  0.14628478418E+02 -0.11336488277E+02  0.94565231037E+02  0.89533835834E+02 0.  0.
         13    1    3    3    0    0 -0.35645056710E+02  0.45059716991E+02 -0.20118198295E+02  0.60874471085E+02  0.10566000000E+00 0.  1.
         22    1    1    0    0    0  0.24161266824E+02 -0.14628478418E+02  0.11336488277E+02  0.30434768963E+02  0.00000000000E+00 0.  1.
</event>
<event>
 5    1  0.6978980E-004  0.9118800E+02  0.7818608E-02  0.1130116E+00
         25   -1    0    0    0    0  0.00000000000E+00  0.00000000000E+00  0.99999998245E-14  0.12500000000E+03  0.12500000000E+03 0.  0.
        -13    1    3    3    0    0 -0.27869435784E+02  0.33376928370E+02  0.18407136920E+02  0.47218202549E+02  0.10566000000E+00 0. -1.
         23    2    1    0    0    0 -0.27581531354E+02 -0.96631950850E+01 -0.35905107109E+01  0.95554966832E+02  0.90905124762E+02 0.  0.
         13    1    3    3    0    0  0.28790442988E+00 -0.43040123456E+02 -0.21997647630E+02  0.48336764283E+02  0.10566000000E+00 0.  1.
         22    1    1    0    0    0  0.27581531354E+02  0.96631950850E+01  0.35905107109E+01  0.29445033168E+02  0.00000000000E+00 0. -1.
</event>
<event>
 5    1  0.6978980E-004  0.9118800E+02  0.7818608E-02  0.1130116E+00
         25   -1    0    0    0    0  0.00000000000E+00  0.00000000000E+00  0.99999998245E-14  0.12500000000E+03  0.12500000000E+03 0.  0.
        -13    1    3    3    0    0  0.23822517589E+02 -0.28912184996E+01 -0.36871059177E+02  0.43992700048E+02  0.10566000000E+00 0. -1.
         23    2    1    0    0    0  0.34963366659E+02  0.71132800051E+00  0.69450671371E+01  0.89346431410E+02  0.81924403279E+02 0.  0.
         13    1    3    3    0    0  0.11140849070E+02  0.36025465001E+01  0.43816126314E+02  0.45353731362E+02  0.10566000000E+00 0.  1.
         22    1    1    0    0    0 -0.34963366659E+02 -0.71132800051E+00 -0.69450671371E+01  0.35653568590E+02  0.00000000000E+00 0.  1.
</event>
<event>
 5    1  0.6978980E-004  0.9118800E+02  0.7818608E-02  0.1130116E+00
         25   -1    0    0    0    0  0.00000000000E+00  0.00000000000E+00  0.99999998245E-14  0.12500000000E+03  0.12500000000E+03 0.  0.
        -13    1    3    3    0    0 -0.27844699998E+02 -0.36743515860E+02  0.41924617331E+02  0.62314508569E+02  0.10566000000E+00 0.  1.
         23    2    1    0    0    0 -0.10138151750E+02 -0.18914785518E+02  0.18534417678E+02  0.96643768396E+02  0.92390162350E+02 0.  0.
         13    1    3    3    0    0  0.17706548248E+02  0.17828730342E+02 -0.23390199653E+02  0.34329259828E+02  0.10566000000E+00 0. -1.
         22    1    1    0    0    0  0.10138151750E+02  0.18914785518E+02 -0.18534417678E+02  0.28356231604E+02  0.00000000000E+00 0.  1.
</event>
<event>
 5    1  0.6978980E-004  0.9118800E+02  0.7818608E-02  0.1130116E+00
         25   -1    0    0    0    0  0.00000000000E+00  0.00000000000E+00  0.99999998245E-14  0.12500000000E+03  0.12500000000E+03 0.  0.
        -13    1    3    3    0    0 -0.48960178917E+02  0.64484520970E+01 -0.24407978922E+02  0.55085771785E+02  0.10566000000E+00 0. -1.
         23    2    1    0    0    0 -0.26766397442E+02 -0.89411818742E+01  0.64074361720E+01  0.96061444341E+02  0.91598914214E+02 0.  0.
         13    1    3    3    0    0  0.22193781475E+02 -0.15389633971E+02  0.30815415094E+02  0.40975672555E+02  0.10566000000E+00 0.  1.
         22    1    1    0    0    0  0.26766397442E+02  0.89411818742E+01 -0.64074361720E+01  0.28938555659E+02  0.00000000000E+00 0. -1.
</event>
<event>
 5    1  0.6978980E-004  0.9118800E+02  0.7818608E-02  0.1130116E+00
         25   -1    0    0    0    0  0.00000000000E+00  0.00000000000E+00  0.99999998245E-14  0.12500000000E+03  0.12500000000E+03 0.  0.
        -13    1    3    3    0    0  0.32269498596E+02  0.38006014254E+02  0.37366047765E+02  0.62305781021E+02  0.10566000000E+00 0. -1.
         23    2    1    0    0    0  0.15968706278E+02  0.19595796199E+02  0.14644916924E+02  0.95785818503E+02  0.91222007354E+02 0.  0.
         13    1    3    3    0    0 -0.16300792318E+02 -0.18410218055E+02 -0.22721130841E+02  0.33480037482E+02  0.10566000000E+00 0.  1.
         22    1    1    0    0    0 -0.15968706278E+02 -0.19595796199E+02 -0.14644916924E+02  0.29214181497E+02  0.00000000000E+00 0. -1.
</event>
<event>
 5    1  0.6978980E-004  0.9118800E+02  0.7818608E-02  0.1130116E+00
         25   -1    0    0    0    0  0.00000000000E+00  0.00000000000E+00  0.99999998245E-14  0.12500000000E+03  0.12500000000E+03 0.  0.
        -13    1    3    3    0    0  0.28019161421E+02 -0.43223709548E+02  0.10186155186E+02  0.52508393570E+02  0.10566000000E+00 0.  1.
         23    2    1    0    0    0  0.27618173112E+02  0.10100279393E+00  0.93457448152E+01  0.95843240342E+02  0.91300657640E+02 0.  0.
         13    1    3    3    0    0 -0.40098830956E+00  0.43324712342E+02 -0.84041037100E+00  0.43334846772E+02  0.10566000000E+00 0. -1.
         22    1    1    0    0    0 -0.27618173112E+02 -0.10100279393E+00 -0.93457448152E+01  0.29156759658E+02  0.00000000000E+00 0. -1.
</event>
<event>
 5    1  0.6978980E-004  0.9118800E+02  0.7818608E-02  0.1130116E+00
         25   -1    0    0    0    0  0.00000000000E+00  0.00000000000E+00  0.99999998245E-14  0.12500000000E+03  0.12500000000E+03 0.  0.
        -13    1    3    3    0    0  0.55429683917E+02  0.19523964738E+02 -0.47538431143E+01  0.58959691711E+02  0.10566000000E+00 0. -1.
         23    2    1    0    0    0  0.22705194640E+02  0.15311247899E+02  0.10957051943E+02  0.95503946651E+02  0.90834941860E+02 0.  0.
         13    1    3    3    0    0 -0.32724489277E+02 -0.42127168393E+01  0.15710895057E+02  0.36544254940E+02  0.10566000000E+00 0.  1.
         22    1    1    0    0    0 -0.22705194640E+02 -0.15311247899E+02 -0.10957051943E+02  0.29496053349E+02  0.00000000000E+00 0. -1.
</event>
<event>
 5    1  0.6978980E-004  0.9118800E+02  0.7818608E-02  0.1130116E+00
         25   -1    0    0    0    0  0.00000000000E+00  0.00000000000E+00  0.99999998245E-14  0.12500000000E+03  0.12500000000E+03 0.  0.
        -13    1    3    3    0    0 -0.35379165120E+02  0.19985090932E+02 -0.22597141673E+02  0.46494420740E+02  0.10566000000E+00 0.  1.
         23    2    1    0    0    0 -0.80947625741E+01 -0.19059983904E+02 -0.22895592347E+02  0.94129037649E+02  0.88922772181E+02 0.  0.
         13    1    3    3    0    0  0.27284402546E+02 -0.39045074836E+02 -0.29845067390E+00  0.47634616909E+02  0.10566000000E+00 0. -1.
         22    1    1    0    0    0  0.80947625741E+01  0.19059983904E+02  0.22895592347E+02  0.30870962351E+02  0.00000000000E+00 0.  1.
</event>
<event>
 5    1  0.6978980E-004  0.9118800E+02  0.7818608E-02  0.1130116E+00
         25   -1    0    0    0    0  0.00000000000E+00  0.00000000000E+00  0.99999998245E-14  0.12500000000E+03  0.12500000000E+03 0.  0.
        -13    1    3    3    0    0  0.10247034555E+02  0.45884517757E+02 -0.38494515558E+02  0.60763719266E+02  0.10566000000E+00 0.  1.
         23    2    1    0    0    0  0.71696629206E+01  0.20219134604E+02 -0.30287350402E+02  0.87884759668E+02  0.79662977078E+02 0.  0.
         13    1    3    3    0    0 -0.30773716344E+01 -0.25665383153E+02  0.82071651559E+01  0.27121040402E+02  0.10566000000E+00 0. -1.
         22    1    1    0    0    0 -0.71696629206E+01 -0.20219134604E+02  0.30287350402E+02  0.37115240332E+02  0.00000000000E+00 0.  1.
</event>
<event>
 5    1  0.6978980E-004  0.9118800E+02  0.7818608E-02  0.1130116E+00
         25   -1    0    0    0    0  0.00000000000E+00  0.00000000000E+00  0.99999998245E-14  0.12500000000E+03  0.12500000000E+03 0.  0.
        -13    1    3    3    0    0 -0.49472077580E+01  0.19267853572E+02  0.36041597722E+02  0.41167134661E+02  0.10566000000E+00 0. -1.
         23    2    1    0    0    0 -0.33792464074E+01  0.19882429697E+02 -0.19625292730E+02  0.96859594323E+02  0.92681705750E+02 0.  0.
         13    1    3    3    0    0  0.15679613506E+01  0.61457612501E+00 -0.55666890451E+02  0.55692459662E+02  0.10566000000E+00 0.  1.
         22    1    1    0    0    0  0.33792464074E+01 -0.19882429697E+02  0.19625292730E+02  0.28140405677E+02  0.00000000000E+00 0.  1.
</event>
<event>
 5    1  0.6978980E-004  0.9118800E+02  0.7818608E-02  0.1130116E+00
         25   -1    0    0    0    0  0.00000000000E+00  0.00000000000E+00  0.99999998245E-14  0.12500000000E+03  0.12500000000E+03 0.  0.
        -13    1    3    3    0    0 -0.38279038098E+02  0.99747961900E+01 -0.12570256596E+02  0.41506672134E+02  0.10566000000E+00 0.  1.
         23    2    1    0    0    0 -0.10828220788E+01 -0.28668201139E+02 -0.15086482975E+01  0.96271716377E+02  0.91885412849E+02 0.  0.
         13    1    3    3    0    0  0.37196216019E+02 -0.38642997329E+02  0.11061608298E+02  0.54765044243E+02  0.10566000000E+00 0. -1.
         22    1    1    0    0    0  0.10828220788E+01  0.28668201139E+02  0.15086482975E+01  0.28728283623E+02  0.00000000000E+00 0. -1.
</event>
<event>
 5    1  0.6978980E-004  0.9118800E+02  0.7818608E-02  0.1130116E+00
         25   -1    0    0    0    0  0.00000000000E+00  0.00000000000E+00  0.99999998245E-14  0.12500000000E+03  0.12500000000E+03 0.  0.
        -13    1    3    3    0    0 -0.30399637715E+02 -0.14961786232E+02  0.22545987960E+02  0.40697982230E+02  0.10566000000E+00 0. -1.
         23    2    1    0    0    0  0.19594711942E+02 -0.23108187879E+02  0.50735487612E+01  0.94280592777E+02  0.89135560772E+02 0.  0.
         13    1    3    3    0    0  0.49994349657E+02 -0.81464016465E+01 -0.17472439199E+02  0.53582610547E+02  0.10566000000E+00 0.  1.
         22    1    1    0    0    0 -0.19594711942E+02  0.23108187879E+02 -0.50735487612E+01  0.30719407223E+02  0.00000000000E+00 0.  1.
</event>
<event>
 5    1  0.6978980E-004  0.9118800E+02  0.7818608E-02  0.1130116E+00
         25   -1    0    0    0    0  0.00000000000E+00  0.00000000000E+00  0.99999998245E-14  0.12500000000E+03  0.12500000000E+03 0.  0.
        -13    1    3    3    0    0 -0.62357066194E+01  0.36124469110E+02  0.18524423330E+02  0.41073430941E+02  0.10566000000E+00 0. -1.
         23    2    1    0    0    0 -0.28741422660E+02 -0.79909790126E+01 -0.28882196684E+01  0.95028898336E+02  0.90178847763E+02 0.  0.
         13    1    3    3    0    0 -0.22505716041E+02 -0.44115448123E+02 -0.21412642998E+02  0.53955467395E+02  0.10566000000E+00 0.  1.
         22    1    1    0    0    0  0.28741422660E+02  0.79909790126E+01  0.28882196684E+01  0.29971101664E+02  0.00000000000E+00 0.  1.
</event>
<event>
 5    1  0.6978980E-004  0.9118800E+02  0.7818608E-02  0.1130116E+00
         25   -1    0    0    0    0  0.00000000000E+00  0.00000000000E+00  0.99999998245E-14  0.12500000000E+03  0.12500000000E+03 0.  0.
        -13    1    3    3    0    0 -0.22181682621E+02  0.29834981673E+02  0.32299385751E+02  0.49248499056E+02  0.10566000000E+00 0.  1.
         23    2    1    0    0    0  0.11865211738E+02  0.52254781666E+00  0.28246987193E+02  0.94357731950E+02  0.89243671974E+02 0.  0.
         13    1    3    3    0    0  0.34046894359E+02 -0.29312433857E+02 -0.40523985588E+01  0.45109232893E+02  0.10566000000E+00 0. -1.
         22    1    1    0    0    0 -0.11865211738E+02 -0.52254781666E+00 -0.28246987193E+02  0.30642268050E+02  0.00000000000E+00 0. -1.
</event>
<event>
 5    1  0.6978980E-004  0.9118800E+02  0.7818608E-02  0.1130116E+00
         25   -1    0    0    0    0  0.00000000000E+00  0.00000000000E+00  0.99999998245E-14  0.12500000000E+03  0.12500000000E+03 0.  0.
        -13    1    3    3    0    0 -0.46178080371E+02  0.89601260258E+00  0.37842038356E+02  0.59709705880E+02  0.10566000000E+00 0.  1.
         23    2    1    0    0    0 -0.17167007268E+02 -0.11291204690E+02  0.21846138668E+02  0.95009147785E+02  0.90151466689E+02 0.  0.
         13    1    3    3    0    0  0.29011073102E+02 -0.12187217293E+02 -0.15995899689E+02  0.35299441904E+02  0.10566000000E+00 0. -1.
         22    1    1    0    0    0  0.17167007268E+02  0.11291204690E+02 -0.21846138668E+02  0.29990852215E+02  0.00000000000E+00 0.  1.
</event>
<event>
 5    1  0.6978980E-004  0.9118800E+02  0.7818608E-02  0.1130116E+00
         25   -1    0    0    0    0  0.00000000000E+00  0.00000000000E+00  0.99999998245E-14  0.12500000000E+03  0.12500000000E+03 0.  0.
        -13    1    3    3    0    0  0.31775647525E+01 -0.23729317667E+02  0.35524585706E+02  0.42839056810E+02  0.10566000000E+00 0. -1.
         23    2    1    0    0    0  0.21170289467E+02 -0.23270123838E+02 -0.10159568053E+02  0.91941012681E+02  0.85791917861E+02 0.  0.
         13    1    3    3    0    0  0.17992724715E+02  0.45919382969E+00 -0.45684153759E+02  0.49101955871E+02  0.10566000000E+00 0.  1.
         22    1    1    0    0    0 -0.21170289467E+02  0.23270123838E+02  0.10159568053E+02  0.33058987319E+02  0.00000000000E+00 0.  1.
</event>
<event>
 5    1  0.6978980E-004  0.9118800E+02  0.7818608E-02  0.1130116E+00
         25   -1    0    0    0    0  0.00000000000E+00  0.00000000000E+00  0.99999998245E-14  0.12500000000E+03  0.12500000000E+03 0.  0.
        -13    1    3    3    0    0  0.22232442181E+02 -0.10613033539E+02 -0.41877598032E+02  0.48586647828E+02  0.10566000000E+00 0.  1.
         23    2    1    0    0    0 -0.14375186955E+02  0.12112800690E+02 -0.22069689735E+02  0.96009706011E+02  0.91528282530E+02 0.  0.
         13    1    3    3    0    0 -0.36607629136E+02  0.22725834228E+02  0.19807908297E+02  0.47423058183E+02  0.10566000000E+00 0. -1.
         22    1    1    0    0    0  0.14375186955E+02 -0.12112800690E+02  0.22069689735E+02  0.28990293989E+02  0.00000000000E+00 0. -1.
</event>
<event>
 5    1  0.6978980E-004  0.9118800E+02  0.7818608E-02  0.1130116E+00
         25   -1    0    0    0    0  0.00000000000E+00  0.00000000000E+00  0.99999998245E-14  0.12500000000E+03  0.12500000000E+03 0.  0.
        -13    1    3    3    0    0 -0.61470217866E+00  0.57867193910E+02 -0.12120536213E+02  0.59126208672E+02  0.10566000000E+00 0.  1.
         23    2    1    0    0    0 -0.53989688328E+01  0.16564956581E+02 -0.16587463356E+02  0.10094401132E+03  0.98035722208E+02 0.  0.
         13    1    3    3    0    0 -0.47842666541E+01 -0.41302237329E+02 -0.44669271437E+01  0.41817802643E+02  0.10566000000E+00 0. -1.
         22    1    1    0    0    0  0.53989688328E+01 -0.16564956581E+02  0.16587463356E+02  0.24055988685E+02  0.00000000000E+00 0.  1.
</event>
<event>
 5    1  0.6978980E-004  0.9118800E+02  0.7818608E-02  0.1130116E+00
         25   -1    0    0    0    0  0.00000000000E+00  0.00000000000E+00  0.99999998245E-14  0.12500000000E+03  0.12500000000E+03 0.  0.
        -13    1    3    3    0    0  0.31271845652E+02 -0.42139934393E+02 -0.26268546713E+02  0.58683473922E+02  0.10566000000E+00 0. -1.
         23    2    1    0    0    0  0.11332110031E+02 -0.26077082210E+02  0.15914304588E+01  0.96522577622E+02  0.92226050580E+02 0.  0.
         13    1    3    3    0    0 -0.19939735621E+02  0.16062852182E+02  0.27859977171E+02  0.37839103701E+02  0.10566000000E+00 0.  1.
         22    1    1    0    0    0 -0.11332110031E+02  0.26077082210E+02 -0.15914304588E+01  0.28477422378E+02  0.00000000000E+00 0. -1.
</event>
<event>
 5    1  0.6978980E-004  0.9118800E+02  0.7818608E-02  0.1130116E+00
         25   -1    0    0    0    0  0.00000000000E+00  0.00000000000E+00  0.99999998245E-14  0.12500000000E+03  0.12500000000E+03 0.  0.
        -13    1    3    3    0    0  0.36858255203E+02 -0.23732508853E+02  0.85157166874E+01  0.44657491508E+02  0.10566000000E+00 0.  1.
         23    2    1    0    0    0  0.22567583040E+02 -0.79329432589E+01  0.37433823224E+02  0.80575699058E+02  0.67222948198E+02 0.  0.
         13    1    3    3    0    0 -0.14290672163E+02  0.15799565594E+02  0.28918106537E+02  0.35918207549E+02  0.10566000000E+00 0. -1.
         22    1    1    0    0    0 -0.22567583040E+02  0.79329432589E+01 -0.37433823224E+02  0.44424300942E+02  0.00000000000E+00 0. -1.
</event>
<event>
 5    1  0.6978980E-004  0.9118800E+02  0.7818608E-02  0.1130116E+00
         25   -1    0    0    0    0  0.00000000000E+00  0.00000000000E+00  0.99999998245E-14  0.12500000000E+03  0.12500000000E+03 0.  0.
        -13    1    3    3    0    0 -0.55588264420E+01  0.51969521339E+02 -0.42816632096E+01  0.52441162301E+02  0.10566000000E+00 0. -1.
         23    2    1    0    0    0  0.21619738140E+02  0.20285386255E+02  0.42567371876E+01  0.95049544507E+02  0.90207461591E+02 0.  0.
         13    1    3    3    0    0  0.27178564582E+02 -0.31684135084E+02  0.85384003971E+01  0.42608382205E+02  0.10566000000E+00 0.  1.
         22    1    1    0    0    0 -0.21619738140E+02 -0.20285386255E+02 -0.42567371876E+01  0.29950455493E+02  0.00000000000E+00 0.  1.
</event>
<event>
 5    1  0.6978980E-004  0.9118800E+02  0.7818608E-02  0.1130116E+00
         25   -1    0    0    0    0  0.00000000000E+00  0.00000000000E+00  0.99999998245E-14  0.12500000000E+03  0.12500000000E+03 0.  0.
        -13    1    3    3    0    0  0.36355283864E+02  0.34038108830E+02  0.12100613069E+02  0.51251687954E+02  0.10566000000E+00 0.  1.
         23    2    1    0    0    0  0.27861973081E+01  0.19124810274E+02  0.27753221124E+02  0.91180441366E+02  0.84676504069E+02 0.  0.
         13    1    3    3    0    0 -0.33569086556E+02 -0.14913298556E+02  0.15652608055E+02  0.39928753411E+02  0.10566000000E+00 0. -1.
         22    1    1    0    0    0 -0.27861973081E+01 -0.19124810274E+02 -0.27753221124E+02  0.33819558634E+02  0.00000000000E+00 0.  1.
</event>
<event>
 5    1  0.6978980E-004  0.9118800E+02  0.7818608E-02  0.1130116E+00
         25   -1    0    0    0    0  0.00000000000E+00  0.00000000000E+00  0.99999998245E-14  0.12500000000E+03  0.12500000000E+03 0.  0.
        -13    1    3    3    0    0 -0.51240937054E+02  0.27260315354E+02  0.10545208468E+02  0.58991279093E+02  0.10566000000E+00 0. -1.
         23    2    1    0    0    0 -0.28704893806E+02 -0.75371040761E+00  0.87161589381E+01  0.94991493965E+02  0.90126985367E+02 0.  0.
         13    1    3    3    0    0  0.22536043248E+02 -0.28014025761E+02 -0.18290495294E+01  0.36000214872E+02  0.10566000000E+00 0.  1.
         22    1    1    0    0    0  0.28704893806E+02  0.75371040761E+00 -0.87161589381E+01  0.30008506035E+02  0.00000000000E+00 0. -1.
</event>
<event>
 5    1  0.6978980E-004  0.9118800E+02  0.7818608E-02  0.1130116E+00
         25   -1    0    0    0    0  0.00000000000E+00  0.00000000000E+00  0.99999998245E-14  0.12500000000E+03  0.12500000000E+03 0.  0.
        -13    1    3    3    0    0  0.10652977124E+02 -0.33251383181E+02  0.47565455558E+02  0.59005289013E+02  0.10566000000E+00 0. -1.
         23    2    1    0    0    0 -0.54445629419E+01 -0.28406161835E+02  0.29319939409E+02  0.83814903876E+02  0.72998123051E+02 0.  0.
         13    1    3    3    0    0 -0.16097540066E+02  0.48452213460E+01 -0.18245516149E+02  0.24809614863E+02  0.10566000000E+00 0.  1.
         22    1    1    0    0    0  0.54445629419E+01  0.28406161835E+02 -0.29319939409E+02  0.41185096124E+02  0.00000000000E+00 0. -1.
</event>
<event>
 5    1  0.6978980E-004  0.9118800E+02  0.7818608E-02  0.1130116E+00
         25   -1    0    0    0    0  0.00000000000E+00  0.00000000000E+00  0.99999998245E-14  0.12500000000E+03  0.12500000000E+03 0.  0.
        -13    1    3    3    0    0 -0.14689118364E+02  0.32501282788E+02 -0.37069507569E+02  0.51441842275E+02  0.10566000000E+00 0. -1.
         23    2    1    0    0    0 -0.23667346694E+02  0.17616384318E+02  0.32194200965E+01  0.95320967641E+02  0.90582790365E+02 0.  0.
         13    1    3    3    0    0 -0.89782283306E+01 -0.14884898470E+02  0.40288927666E+02  0.43879125366E+02  0.10566000000E+00 0.  1.
         22    1    1    0    0    0  0.23667346694E+02 -0.17616384318E+02 -0.32194200965E+01  0.29679032359E+02  0.00000000000E+00 0. -1.
</event>
<event>
 5    1  0.6978980E-004  0.9118800E+02  0.7818608E-02  0.1130116E+00
         25   -1    0    0    0    0  0.00000000000E+00  0.00000000000E+00  0.99999998245E-14  0.12500000000E+03  0.12500000000E+03 0.  0.
        -13    1    3    3    0    0 -0.85625056181E+01  0.79720393298E+01  0.58270650478E+02  0.59433574557E+02  0.10566000000E+00 0.  1.
         23    2    1    0    0    0 -0.15218746118E+02  0.60755037157E+01  0.16602858649E+02  0.10167240059E+03  0.98960093715E+02 0.  0.
         13    1    3    3    0    0 -0.66562404999E+01 -0.18965356141E+01 -0.41667791829E+02  0.42238826035E+02  0.10566000000E+00 0. -1.
         22    1    1    0    0    0  0.15218746118E+02 -0.60755037157E+01 -0.16602858649E+02  0.23327599408E+02  0.00000000000E+00 0.  1.
</event>
<event>
 5    1  0.6978980E-004  0.9118800E+02  0.7818608E-02  0.1130116E+00
         25   -1    0    0    0    0  0.00000000000E+00  0.00000000000E+00  0.99999998245E-14  0.12500000000E+03  0.12500000000E+03 0.  0.
        -13    1    3    3    0    0 -0.90045114626E+00  0.50800011809E+01 -0.37268434289E+02  0.37623989457E+02  0.10566000000E+00 0. -1.
         23    2    1    0    0    0  0.55101833446E+01  0.15063461660E+02  0.21835157433E+02  0.97906751804E+02  0.94083409542E+02 0.  0.
         13    1    3    3    0    0  0.64106344909E+01  0.99834604792E+01  0.59103591722E+02  0.60282762347E+02  0.10566000000E+00 0.  1.
         22    1    1    0    0    0 -0.55101833446E+01 -0.15063461660E+02 -0.21835157433E+02  0.27093248196E+02  0.00000000000E+00 0.  1.
</event>
<event>
 5    1  0.6978980E-004  0.9118800E+02  0.7818608E-02  0.1130116E+00
         25   -1    0    0    0    0  0.00000000000E+00  0.00000000000E+00  0.99999998245E-14  0.12500000000E+03  0.12500000000E+03 0.  0.
        -13    1    3    3    0    0  0.33244974261E+02 -0.10310129920E+01 -0.52252919216E+02  0.61940859148E+02  0.10566000000E+00 0.  1.
         23    2    1    0    0    0  0.95600210948E+01  0.35684346202E+01 -0.22842648900E+02  0.99981719929E+02  0.96800981308E+02 0.  0.
         13    1    3    3    0    0 -0.23684953166E+02  0.45994476122E+01  0.29410270316E+02  0.38040860780E+02  0.10566000000E+00 0. -1.
         22    1    1    0    0    0 -0.95600210948E+01 -0.35684346202E+01  0.22842648900E+02  0.25018280071E+02  0.00000000000E+00 0.  1.
</event>
<event>
 5    1  0.6978980E-004  0.9118800E+02  0.7818608E-02  0.1130116E+00
         25   -1    0    0    0    0  0.00000000000E+00  0.00000000000E+00  0.99999998245E-14  0.12500000000E+03  0.12500000000E+03 0.  0.
        -13    1    3    3    0    0 -0.56904914380E+02 -0.40054688160E+01  0.15328810429E+02  0.59069422329E+02  0.10566000000E+00 0. -1.
         23    2    1    0    0    0 -0.28302852954E+02 -0.12595573028E+02 -0.26164969811E+01  0.93910677046E+02  0.88615287968E+02 0.  0.
         13    1    3    3    0    0  0.28602061426E+02 -0.85901042120E+01 -0.17945307411E+02  0.34841254717E+02  0.10566000000E+00 0.  1.
         22    1    1    0    0    0  0.28302852954E+02  0.12595573028E+02  0.26164969811E+01  0.31089322954E+02  0.00000000000E+00 0. -1.
</event>
<event>
 5    1  0.6978980E-004  0.9118800E+02  0.7818608E-02  0.1130116E+00
         25   -1    0    0    0    0  0.00000000000E+00  0.00000000000E+00  0.99999998245E-14  0.12500000000E+03  0.12500000000E+03 0.  0.
        -13    1    3    3    0    0 -0.32150146861E+02  0.47433625679E+01 -0.40963741463E+02  0.52289298239E+02  0.10566000000E+00 0. -1.
         23    2    1    0    0    0  0.36495391018E+01 -0.12545177414E+02 -0.27994020482E+02  0.94107188623E+02  0.88892053389E+02 0.  0.
         13    1    3    3    0    0  0.35799685963E+02 -0.17288539982E+02  0.12969720981E+02  0.41817890383E+02  0.10566000000E+00 0.  1.
         22    1    1    0    0    0 -0.36495391018E+01  0.12545177414E+02  0.27994020482E+02  0.30892811377E+02  0.00000000000E+00 0. -1.
</event>
<event>
 5    1  0.6978980E-004  0.9118800E+02  0.7818608E-02  0.1130116E+00
         25   -1    0    0    0    0  0.00000000000E+00  0.00000000000E+00  0.99999998245E-14  0.12500000000E+03  0.12500000000E+03 0.  0.
        -13    1    3    3    0    0  0.40259465974E+02  0.21531125135E+02  0.16806331231E+02  0.48650569201E+02  0.10566000000E+00 0.  1.
         23    2    1    0    0    0  0.32384204148E+02 -0.14726903535E+02  0.16569833369E+02  0.85754901658E+02  0.76247789571E+02 0.  0.
         13    1    3    3    0    0 -0.78752618264E+01 -0.36258028669E+02 -0.23649786140E+00  0.37104332457E+02  0.10566000000E+00 0. -1.
         22    1    1    0    0    0 -0.32384204148E+02  0.14726903535E+02 -0.16569833369E+02  0.39245098342E+02  0.00000000000E+00 0.  1.
</event>
<event>
 5    1  0.6978980E-004  0.9118800E+02  0.7818608E-02  0.1130116E+00
         25   -1    0    0    0    0  0.00000000000E+00  0.00000000000E+00  0.99999998245E-14  0.12500000000E+03  0.12500000000E+03 0.  0.
        -13    1    3    3    0    0 -0.38564357611E+02  0.57111852045E+00 -0.16838796002E+02  0.42084344704E+02  0.10566000000E+00 0.  1.
         23    2    1    0    0    0  0.12312543536E+02 -0.12178964992E+02 -0.24401890326E+02  0.95077129682E+02  0.90245678126E+02 0.  0.
         13    1    3    3    0    0  0.50876901147E+02 -0.12750083513E+02 -0.75630943241E+01  0.52992784978E+02  0.10566000000E+00 0. -1.
         22    1    1    0    0    0 -0.12312543536E+02  0.12178964992E+02  0.24401890326E+02  0.29922870318E+02  0.00000000000E+00 0.  1.
</event>
<event>
 5    1  0.6978980E-004  0.9118800E+02  0.7818608E-02  0.1130116E+00
         25   -1    0    0    0    0  0.00000000000E+00  0.00000000000E+00  0.99999998245E-14  0.12500000000E+03  0.12500000000E+03 0.  0.
        -13    1    3    3    0    0 -0.14148967680E+02 -0.22486066048E+02  0.45597423522E+02  0.52772650574E+02  0.10566000000E+00 0.  1.
         23    2    1    0    0    0 -0.81784011868E+01 -0.24030471925E+02 -0.82452113711E+00  0.99602565838E+02  0.96310131656E+02 0.  0.
         13    1    3    3    0    0  0.59705664934E+01 -0.15444058769E+01 -0.46421944659E+02  0.46829915265E+02  0.10566000000E+00 0. -1.
         22    1    1    0    0    0  0.81784011868E+01  0.24030471925E+02  0.82452113711E+00  0.25397434162E+02  0.00000000000E+00 0.  1.
</event>
<event>
 5    1  0.6978980E-004  0.9118800E+02  0.7818608E-02  0.1130116E+00
         25   -1    0    0    0    0  0.00000000000E+00  0.00000000000E+00  0.99999998245E-14  0.12500000000E+03  0.12500000000E+03 0.  0.
        -13    1    3    3    0    0 -0.14282400815E+02 -0.31941486617E+02 -0.11474201354E+02  0.36822737555E+02  0.10566000000E+00 0.  1.
         23    2    1    0    0    0 -0.22229383009E+02  0.20037822053E+02  0.97446053091E+01  0.93525929494E+02  0.88070894020E+02 0.  0.
         13    1    3    3    0    0 -0.79469821943E+01  0.51979308670E+02  0.21218806663E+02  0.56703191939E+02  0.10566000000E+00 0. -1.
         22    1    1    0    0    0  0.22229383009E+02 -0.20037822053E+02 -0.97446053091E+01  0.31474070506E+02  0.00000000000E+00 0. -1.
</event>
<event>
 5    1  0.6978980E-004  0.9118800E+02  0.7818608E-02  0.1130116E+00
         25   -1    0    0    0    0  0.00000000000E+00  0.00000000000E+00  0.99999998245E-14  0.12500000000E+03  0.12500000000E+03 0.  0.
        -13    1    3    3    0    0  0.38328861292E+02  0.12109695691E+02  0.32866830588E+02  0.51922885654E+02  0.10566000000E+00 0. -1.
         23    2    1    0    0    0  0.19567985130E+02  0.20764094469E+02 -0.59119413981E+01  0.95862314569E+02  0.91326768487E+02 0.  0.
         13    1    3    3    0    0 -0.18760876163E+02  0.86543987785E+01 -0.38778771986E+02  0.43939428915E+02  0.10566000000E+00 0.  1.
         22    1    1    0    0    0 -0.19567985130E+02 -0.20764094469E+02  0.59119413981E+01  0.29137685431E+02  0.00000000000E+00 0.  1.
</event>
<event>
 5    1  0.6978980E-004  0.9118800E+02  0.7818608E-02  0.1130116E+00
         25   -1    0    0    0    0  0.00000000000E+00  0.00000000000E+00  0.99999998245E-14  0.12500000000E+03  0.12500000000E+03 0.  0.
        -13    1    3    3    0    0 -0.37744887982E+02  0.36237799716E+02  0.20061686550E+02  0.56038710980E+02  0.10566000000E+00 0.  1.
         23    2    1    0    0    0 -0.75835480898E+01  0.10206873950E+02  0.25747575383E+02  0.96283661174E+02  0.91901660995E+02 0.  0.
         13    1    3    3    0    0  0.30161339892E+02 -0.26030925766E+02  0.56858888327E+01  0.40244950195E+02  0.10566000000E+00 0. -1.
         22    1    1    0    0    0  0.75835480898E+01 -0.10206873950E+02 -0.25747575383E+02  0.28716338826E+02  0.00000000000E+00 0.  1.
</event>
<event>
 5    1  0.6978980E-004  0.9118800E+02  0.7818608E-02  0.1130116E+00
         25   -1    0    0    0    0  0.00000000000E+00  0.00000000000E+00  0.99999998245E-14  0.12500000000E+03  0.12500000000E+03 0.  0.
        -13    1    3    3    0    0 -0.20491654634E+02 -0.36304120348E+02 -0.33037110089E+02  0.53191718067E+02  0.10566000000E+00 0.  1.
         23    2    1    0    0    0 -0.24826622069E+02  0.19047397933E+01 -0.16969673062E+02  0.94867641963E+02  0.89955047055E+02 0.  0.
         13    1    3    3    0    0 -0.43349674346E+01  0.38208860141E+02  0.16067437026E+02  0.41675923896E+02  0.10566000000E+00 0. -1.
         22    1    1    0    0    0  0.24826622069E+02 -0.19047397933E+01  0.16969673062E+02  0.30132358037E+02  0.00000000000E+00 0.  1.
</event>
<event>
 5    1  0.6978980E-004  0.9118800E+02  0.7818608E-02  0.1130116E+00
         25   -1    0    0    0    0  0.00000000000E+00  0.00000000000E+00  0.99999998245E-14  0.12500000000E+03  0.12500000000E+03 0.  0.
        -13    1    3    3    0    0  0.32010730108E+02  0.39341010285E+02 -0.52735044386E+01  0.50992381249E+02  0.10566000000E+00 0.  1.
         23    2    1    0    0    0 -0.27783597508E+01  0.36901561002E+02 -0.11132440759E+02  0.86355780192E+02  0.77226582522E+02 0.  0.
         13    1    3    3    0    0 -0.34789089859E+02 -0.24394492833E+01 -0.58589363203E+01  0.35363398944E+02  0.10566000000E+00 0. -1.
         22    1    1    0    0    0  0.27783597508E+01 -0.36901561002E+02  0.11132440759E+02  0.38644219808E+02  0.00000000000E+00 0.  1.
</event>
<event>
 5    1  0.6978980E-004  0.9118800E+02  0.7818608E-02  0.1130116E+00
         25   -1    0    0    0    0  0.00000000000E+00  0.00000000000E+00  0.99999998245E-14  0.12500000000E+03  0.12500000000E+03 0.  0.
        -13    1    3    3    0    0  0.56005090996E+02  0.18289891976E+02  0.54712759403E+01  0.59169556280E+02  0.10566000000E+00 0. -1.
         23    2    1    0    0    0  0.22818124041E+02  0.13036053883E+02 -0.10904448007E+02  0.96548067343E+02  0.92260591997E+02 0.  0.
         13    1    3    3    0    0 -0.33186966955E+02 -0.52538380929E+01 -0.16375723948E+02  0.37378511062E+02  0.10566000000E+00 0.  1.
         22    1    1    0    0    0 -0.22818124041E+02 -0.13036053883E+02  0.10904448007E+02  0.28451932657E+02  0.00000000000E+00 0. -1.
</event>
<event>
 5    1  0.6978980E-004  0.9118800E+02  0.7818608E-02  0.1130116E+00
         25   -1    0    0    0    0  0.00000000000E+00  0.00000000000E+00  0.99999998245E-14  0.12500000000E+03  0.12500000000E+03 0.  0.
        -13    1    3    3    0    0 -0.23345906918E+02 -0.10720163838E+02 -0.27699026425E+02  0.37778307420E+02  0.10566000000E+00 0. -1.
         23    2    1    0    0    0  0.28638412931E+02  0.28484440312E+01 -0.67861572647E+01  0.95431025398E+02  0.90734537798E+02 0.  0.
         13    1    3    3    0    0  0.51984319849E+02  0.13568607869E+02  0.20912869161E+02  0.57652717978E+02  0.10566000000E+00 0.  1.
         22    1    1    0    0    0 -0.28638412931E+02 -0.28484440312E+01  0.67861572647E+01  0.29568974602E+02  0.00000000000E+00 0.  1.
</event>
<event>
 5    1  0.6978980E-004  0.9118800E+02  0.7818608E-02  0.1130116E+00
         25   -1    0    0    0    0  0.00000000000E+00  0.00000000000E+00  0.99999998245E-14  0.12500000000E+03  0.12500000000E+03 0.  0.
        -13    1    3    3    0    0 -0.32639716733E+02  0.13698597311E+02 -0.33673908866E+01  0.35557744053E+02  0.10566000000E+00 0. -1.
         23    2    1    0    0    0  0.25158236271E+02 -0.71805835842E+01  0.70867656567E+01  0.97894283253E+02  0.94066842263E+02 0.  0.
         13    1    3    3    0    0  0.57797953005E+02 -0.20879180895E+02  0.10454156543E+02  0.62336539200E+02  0.10566000000E+00 0.  1.
         22    1    1    0    0    0 -0.25158236271E+02  0.71805835842E+01 -0.70867656567E+01  0.27105716747E+02  0.00000000000E+00 0.  1.
</event>
<event>
 5    1  0.6978980E-004  0.9118800E+02  0.7818608E-02  0.1130116E+00
         25   -1    0    0    0    0  0.00000000000E+00  0.00000000000E+00  0.99999998245E-14  0.12500000000E+03  0.12500000000E+03 0.  0.
        -13    1    3    3    0    0  0.15401337188E+02 -0.48007363678E+02  0.14635275989E+02  0.52498672572E+02  0.10566000000E+00 0. -1.
         23    2    1    0    0    0  0.54401377287E+00 -0.25006117645E+02 -0.17316443967E+02  0.94578607818E+02  0.89552509482E+02 0.  0.
         13    1    3    3    0    0 -0.14857323415E+02  0.23001246033E+02 -0.31951719956E+02  0.42079935246E+02  0.10566000000E+00 0.  1.
         22    1    1    0    0    0 -0.54401377287E+00  0.25006117645E+02  0.17316443967E+02  0.30421392182E+02  0.00000000000E+00 0. -1.
</event>
<event>
 5    1  0.6978980E-004  0.9118800E+02  0.7818608E-02  0.1130116E+00
         25   -1    0    0    0    0  0.00000000000E+00  0.00000000000E+00  0.99999998245E-14  0.12500000000E+03  0.12500000000E+03 0.  0.
        -13    1    3    3    0    0  0.31557973977E+02 -0.29611739224E+02 -0.31640546230E+02  0.53608732042E+02  0.10566000000E+00 0.  1.
         23    2    1    0    0    0 -0.63726818401E+01 -0.24956136949E+02 -0.13708467677E+02  0.95822235670E+02  0.91271895551E+02 0.  0.
         13    1    3    3    0    0 -0.37930655817E+02  0.46556022755E+01  0.17932078553E+02  0.42213503628E+02  0.10566000000E+00 0. -1.
         22    1    1    0    0    0  0.63726818401E+01  0.24956136949E+02  0.13708467677E+02  0.29177764330E+02  0.00000000000E+00 0. -1.
</event>
<event>
 5    1  0.6978980E-004  0.9118800E+02  0.7818608E-02  0.1130116E+00
         25   -1    0    0    0    0  0.00000000000E+00  0.00000000000E+00  0.99999998245E-14  0.12500000000E+03  0.12500000000E+03 0.  0.
        -13    1    3    3    0    0  0.68021326854E+01 -0.15073033904E+02 -0.40362011041E+02  0.43618441736E+02  0.10566000000E+00 0. -1.
         23    2    1    0    0    0  0.28281022717E+02  0.91560832349E+01 -0.11472901644E+00  0.95273525791E+02  0.90517299164E+02 0.  0.
         13    1    3    3    0    0  0.21478890032E+02  0.24229117139E+02  0.40247282025E+02  0.51655084055E+02  0.10566000000E+00 0.  1.
         22    1    1    0    0    0 -0.28281022717E+02 -0.91560832349E+01  0.11472901644E+00  0.29726474209E+02  0.00000000000E+00 0.  1.
</event>
<event>
 5    1  0.6978980E-004  0.9118800E+02  0.7818608E-02  0.1130116E+00
         25   -1    0    0    0    0  0.00000000000E+00  0.00000000000E+00  0.99999998245E-14  0.12500000000E+03  0.12500000000E+03 0.  0.
        -13    1    3    3    0    0 -0.45018096712E+02 -0.10806488602E+01 -0.36356524566E+02  0.57875771062E+02  0.10566000000E+00 0.  1.
         23    2    1    0    0    0 -0.30884106241E+02  0.73138216886E+01 -0.55697455556E+01  0.92776684349E+02  0.87000983255E+02 0.  0.
         13    1    3    3    0    0  0.14133990471E+02  0.83944705488E+01  0.30786779010E+02  0.34900913287E+02  0.10566000000E+00 0. -1.
         22    1    1    0    0    0  0.30884106241E+02 -0.73138216886E+01  0.55697455556E+01  0.32223315651E+02  0.00000000000E+00 0.  1.
</event>
<event>
 5    1  0.6978980E-004  0.9118800E+02  0.7818608E-02  0.1130116E+00
         25   -1    0    0    0    0  0.00000000000E+00  0.00000000000E+00  0.99999998245E-14  0.12500000000E+03  0.12500000000E+03 0.  0.
        -13    1    3    3    0    0  0.56261005052E+01 -0.20338505712E+02  0.53335354660E+02  0.57358338908E+02  0.10566000000E+00 0.  1.
         23    2    1    0    0    0 -0.13588820193E+01  0.77939664382E+01  0.28154212121E+02  0.95755305895E+02  0.91180186848E+02 0.  0.
         13    1    3    3    0    0 -0.69849825246E+01  0.28132472150E+02 -0.25181142539E+02  0.38396966987E+02  0.10566000000E+00 0. -1.
         22    1    1    0    0    0  0.13588820193E+01 -0.77939664382E+01 -0.28154212121E+02  0.29244694105E+02  0.00000000000E+00 0.  1.
</event>
<event>
 5    1  0.6978980E-004  0.9118800E+02  0.7818608E-02  0.1130116E+00
         25   -1    0    0    0    0  0.00000000000E+00  0.00000000000E+00  0.99999998245E-14  0.12500000000E+03  0.12500000000E+03 0.  0.
        -13    1    3    3    0    0  0.50261395275E+02  0.47074350366E+01 -0.16722958782E+01  0.50509162903E+02  0.10566000000E+00 0. -1.
         23    2    1    0    0    0  0.10517578070E+02  0.25709663507E+02 -0.84413804844E+01  0.95967894486E+02  0.91471162787E+02 0.  0.
         13    1    3    3    0    0 -0.39743817205E+02  0.21002228470E+02 -0.67690846062E+01  0.45458731583E+02  0.10566000000E+00 0.  1.
         22    1    1    0    0    0 -0.10517578070E+02 -0.25709663507E+02  0.84413804844E+01  0.29032105514E+02  0.00000000000E+00 0.  1.
</event>
<event>
 5    1  0.6978980E-004  0.9118800E+02  0.7818608E-02  0.1130116E+00
         25   -1    0    0    0    0  0.00000000000E+00  0.00000000000E+00  0.99999998245E-14  0.12500000000E+03  0.12500000000E+03 0.  0.
        -13    1    3    3    0    0 -0.31346488252E+01  0.28438354855E+02  0.47428835953E+02  0.55390176873E+02  0.10566000000E+00 0. -1.
         23    2    1    0    0    0 -0.18309974966E+02 -0.11265357367E+00  0.20896659053E+02  0.97216223553E+02  0.93161450656E+02 0.  0.
         13    1    3    3    0    0 -0.15175326141E+02 -0.28551008428E+02 -0.26532176901E+02  0.41826046680E+02  0.10566000000E+00 0.  1.
         22    1    1    0    0    0  0.18309974966E+02  0.11265357367E+00 -0.20896659053E+02  0.27783776447E+02  0.00000000000E+00 0. -1.
</event>
<event>
 5    1  0.6978980E-004  0.9118800E+02  0.7818608E-02  0.1130116E+00
         25   -1    0    0    0    0  0.00000000000E+00  0.00000000000E+00  0.99999998245E-14  0.12500000000E+03  0.12500000000E+03 0.  0.
        -13    1    3    3    0    0  0.38781791267E+02  0.13585361333E+02 -0.22172863664E+02  0.46693001868E+02  0.10566000000E+00 0.  1.
         23    2    1    0    0    0  0.10916894352E+02  0.24071445491E+02  0.15226882893E+02  0.94496376724E+02  0.89437655275E+02 0.  0.
         13    1    3    3    0    0 -0.27864896914E+02  0.10486084158E+02  0.37399746557E+02  0.47803374856E+02  0.10566000000E+00 0. -1.
         22    1    1    0    0    0 -0.10916894352E+02 -0.24071445491E+02 -0.15226882893E+02  0.30503623276E+02  0.00000000000E+00 0.  1.
</event>
<event>
 5    1  0.6978980E-004  0.9118800E+02  0.7818608E-02  0.1130116E+00
         25   -1    0    0    0    0  0.00000000000E+00  0.00000000000E+00  0.99999998245E-14  0.12500000000E+03  0.12500000000E+03 0.  0.
        -13    1    3    3    0    0 -0.16903131865E+00  0.42299341395E+02  0.35605044971E+02  0.55290082704E+02  0.10566000000E+00 0.  1.
         23    2    1    0    0    0 -0.14300515143E+02  0.55456056072E+01  0.24311219670E+02  0.96254672088E+02  0.91862223041E+02 0.  0.
         13    1    3    3    0    0 -0.14131483825E+02 -0.36753735788E+02 -0.11293825301E+02  0.40964589384E+02  0.10566000000E+00 0. -1.
         22    1    1    0    0    0  0.14300515143E+02 -0.55456056072E+01 -0.24311219670E+02  0.28745327912E+02  0.00000000000E+00 0.  1.
</event>
<event>
 5    1  0.6978980E-004  0.9118800E+02  0.7818608E-02  0.1130116E+00
         25   -1    0    0    0    0  0.00000000000E+00  0.00000000000E+00  0.99999998245E-14  0.12500000000E+03  0.12500000000E+03 0.  0.
        -13    1    3    3    0    0 -0.22141260259E+02  0.23544698623E+02 -0.40127650374E+02  0.51525020404E+02  0.10566000000E+00 0. -1.
         23    2    1    0    0    0 -0.11688322936E+02  0.27249329316E+02  0.21871801096E+01  0.95269096919E+02  0.90511182898E+02 0.  0.
         13    1    3    3    0    0  0.10452937323E+02  0.37046306930E+01  0.42314830483E+02  0.43744076515E+02  0.10566000000E+00 0.  1.
         22    1    1    0    0    0  0.11688322936E+02 -0.27249329316E+02 -0.21871801096E+01  0.29730903081E+02  0.00000000000E+00 0. -1.
</event>
<event>
 5    1  0.6978980E-004  0.9118800E+02  0.7818608E-02  0.1130116E+00
         25   -1    0    0    0    0  0.00000000000E+00  0.00000000000E+00  0.99999998245E-14  0.12500000000E+03  0.12500000000E+03 0.  0.
        -13    1    3    3    0    0  0.19089878370E+01 -0.77364147973E+01 -0.58895543997E+02  0.59432252315E+02  0.10566000000E+00 0.  1.
         23    2    1    0    0    0  0.11361395724E+02 -0.12068602547E+02 -0.24084955599E+02  0.95762736680E+02  0.91190373232E+02 0.  0.
         13    1    3    3    0    0  0.94524078870E+01 -0.43321877493E+01  0.34810588398E+02  0.36330484365E+02  0.10566000000E+00 0. -1.
         22    1    1    0    0    0 -0.11361395724E+02  0.12068602547E+02  0.24084955599E+02  0.29237263320E+02  0.00000000000E+00 0.  1.
</event>
<event>
 5    1  0.6978980E-004  0.9118800E+02  0.7818608E-02  0.1130116E+00
         25   -1    0    0    0    0  0.00000000000E+00  0.00000000000E+00  0.99999998245E-14  0.12500000000E+03  0.12500000000E+03 0.  0.
        -13    1    3    3    0    0  0.18771863063E+02 -0.11368910153E+02  0.34182538531E+02  0.40621325253E+02  0.10566000000E+00 0.  1.
         23    2    1    0    0    0 -0.27907679133E+02 -0.45046729324E+01  0.44682769363E+01  0.96380144452E+02  0.92032799115E+02 0.  0.
         13    1    3    3    0    0 -0.46679542196E+02  0.68642372203E+01 -0.29714261594E+02  0.55758819198E+02  0.10566000000E+00 0. -1.
         22    1    1    0    0    0  0.27907679133E+02  0.45046729324E+01 -0.44682769363E+01  0.28619855548E+02  0.00000000000E+00 0. -1.
</event>
<event>
 5    1  0.6978980E-004  0.9118800E+02  0.7818608E-02  0.1130116E+00
         25   -1    0    0    0    0  0.00000000000E+00  0.00000000000E+00  0.99999998245E-14  0.12500000000E+03  0.12500000000E+03 0.  0.
        -13    1    3    3    0    0  0.47644049700E+02  0.64697704716E+01  0.20839923415E+01  0.48126578830E+02  0.10566000000E+00 0.  1.
         23    2    1    0    0    0  0.83062592235E+01  0.86871919392E+01 -0.25895639628E+02  0.96451000055E+02  0.92128985742E+02 0.  0.
         13    1    3    3    0    0 -0.39337790477E+02  0.22174214676E+01 -0.27979631970E+02  0.48324421225E+02  0.10566000000E+00 0. -1.
         22    1    1    0    0    0 -0.83062592235E+01 -0.86871919392E+01  0.25895639628E+02  0.28548999945E+02  0.00000000000E+00 0.  1.
</event>
<event>
 5    1  0.6978980E-004  0.9118800E+02  0.7818608E-02  0.1130116E+00
         25   -1    0    0    0    0  0.00000000000E+00  0.00000000000E+00  0.99999998245E-14  0.12500000000E+03  0.12500000000E+03 0.  0.
        -13    1    3    3    0    0  0.57300828583E+02  0.86830949666E+01  0.75281827270E+01  0.58441986566E+02  0.10566000000E+00 0.  1.
         23    2    1    0    0    0  0.28416437160E+02  0.21566085937E+01 -0.12174394363E+02  0.94010312367E+02  0.88755721459E+02 0.  0.
         13    1    3    3    0    0 -0.28884391423E+02 -0.65264863729E+01 -0.19702577090E+02  0.35568325801E+02  0.10566000000E+00 0. -1.
         22    1    1    0    0    0 -0.28416437160E+02 -0.21566085937E+01  0.12174394363E+02  0.30989687633E+02  0.00000000000E+00 0.  1.
</event>
<event>
 5    1  0.6978980E-004  0.9118800E+02  0.7818608E-02  0.1130116E+00
         25   -1    0    0    0    0  0.00000000000E+00  0.00000000000E+00  0.99999998245E-14  0.12500000000E+03  0.12500000000E+03 0.  0.
        -13    1    3    3    0    0 -0.18835649386E+02 -0.27978724694E+02 -0.32982866491E-01  0.33728370479E+02  0.10566000000E+00 0. -1.
         23    2    1    0    0    0  0.21693354040E+02  0.18951609234E+02  0.42397640795E+01  0.95884012957E+02  0.91356462493E+02 0.  0.
         13    1    3    3    0    0  0.40529003426E+02  0.46930333927E+02  0.42727469460E+01  0.62155642477E+02  0.10566000000E+00 0.  1.
         22    1    1    0    0    0 -0.21693354040E+02 -0.18951609234E+02 -0.42397640795E+01  0.29115987043E+02  0.00000000000E+00 0.  1.
</event>
<event>
 5    1  0.6978980E-004  0.9118800E+02  0.7818608E-02  0.1130116E+00
         25   -1    0    0    0    0  0.00000000000E+00  0.00000000000E+00  0.99999998245E-14  0.12500000000E+03  0.12500000000E+03 0.  0.
        -13    1    3    3    0    0  0.28583692406E+02  0.37930145733E+02 -0.45077134893E+01  0.47708008466E+02  0.10566000000E+00 0.  1.
         23    2    1    0    0    0  0.28892911534E+02 -0.45976050310E+01  0.12067022446E+02  0.93352704071E+02  0.87824689113E+02 0.  0.
         13    1    3    3    0    0  0.30921912739E+00 -0.42527750764E+02  0.16574735935E+02  0.45644695605E+02  0.10566000000E+00 0. -1.
         22    1    1    0    0    0 -0.28892911534E+02  0.45976050310E+01 -0.12067022446E+02  0.31647295929E+02  0.00000000000E+00 0.  1.
</event>
<event>
 5    1  0.6978980E-004  0.9118800E+02  0.7818608E-02  0.1130116E+00
         25   -1    0    0    0    0  0.00000000000E+00  0.00000000000E+00  0.99999998245E-14  0.12500000000E+03  0.12500000000E+03 0.  0.
        -13    1    3    3    0    0  0.92782608414E+01 -0.37226890930E+02 -0.34487476040E+02  0.51588028652E+02  0.10566000000E+00 0. -1.
         23    2    1    0    0    0  0.13761753321E+02 -0.24708984509E+02  0.75899099871E+01  0.95716446535E+02  0.91126898519E+02 0.  0.
         13    1    3    3    0    0  0.44834924796E+01  0.12517906421E+02  0.42077386027E+02  0.44128417883E+02  0.10566000000E+00 0.  1.
         22    1    1    0    0    0 -0.13761753321E+02  0.24708984509E+02 -0.75899099871E+01  0.29283553465E+02  0.00000000000E+00 0. -1.
</event>
<event>
 5    1  0.6978980E-004  0.9118800E+02  0.7818608E-02  0.1130116E+00
         25   -1    0    0    0    0  0.00000000000E+00  0.00000000000E+00  0.99999998245E-14  0.12500000000E+03  0.12500000000E+03 0.  0.
        -13    1    3    3    0    0 -0.17220059642E+01  0.41686904301E+02 -0.56774200029E+01  0.42107096275E+02  0.10566000000E+00 0. -1.
         23    2    1    0    0    0  0.18879815267E+02 -0.44544733940E+00  0.21556993117E+02  0.96340799033E+02  0.91979344193E+02 0.  0.
         13    1    3    3    0    0  0.20601821231E+02 -0.42132351641E+02  0.27234413120E+02  0.54233702758E+02  0.10566000000E+00 0.  1.
         22    1    1    0    0    0 -0.18879815267E+02  0.44544733940E+00 -0.21556993117E+02  0.28659200967E+02  0.00000000000E+00 0.  1.
</event>
<event>
 5    1  0.6978980E-004  0.9118800E+02  0.7818608E-02  0.1130116E+00
         25   -1    0    0    0    0  0.00000000000E+00  0.00000000000E+00  0.99999998245E-14  0.12500000000E+03  0.12500000000E+03 0.  0.
        -13    1    3    3    0    0 -0.56520868741E+02 -0.15767787220E+02  0.12734106098E+02  0.60044985962E+02  0.10566000000E+00 0.  1.
         23    2    1    0    0    0 -0.28189635369E+02  0.49003223677E+01  0.50669070086E+01  0.95942432170E+02  0.91436360615E+02 0.  0.
         13    1    3    3    0    0  0.28331233372E+02  0.20668109588E+02 -0.76671990899E+01  0.35897446208E+02  0.10566000000E+00 0. -1.
         22    1    1    0    0    0  0.28189635369E+02 -0.49003223677E+01 -0.50669070086E+01  0.29057567830E+02  0.00000000000E+00 0.  1.
</event>
<event>
 5    1  0.6978980E-004  0.9118800E+02  0.7818608E-02  0.1130116E+00
         25   -1    0    0    0    0  0.00000000000E+00  0.00000000000E+00  0.99999998245E-14  0.12500000000E+03  0.12500000000E+03 0.  0.
        -13    1    3    3    0    0 -0.69140915176E+01 -0.11554138614E+01 -0.30026327667E+02  0.30833928713E+02  0.10566000000E+00 0.  1.
         23    2    1    0    0    0 -0.52157457778E+01 -0.89646781078E+01  0.30963710935E+02  0.92345431369E+02  0.86379151665E+02 0.  0.
         13    1    3    3    0    0  0.16983457398E+01 -0.78092642465E+01  0.60990038602E+02  0.61511502656E+02  0.10566000000E+00 0. -1.
         22    1    1    0    0    0  0.52157457778E+01  0.89646781078E+01 -0.30963710935E+02  0.32654568631E+02  0.00000000000E+00 0. -1.
</event>
<event>
 5    1  0.6978980E-004  0.9118800E+02  0.7818608E-02  0.1130116E+00
         25   -1    0    0    0    0  0.00000000000E+00  0.00000000000E+00  0.99999998245E-14  0.12500000000E+03  0.12500000000E+03 0.  0.
        -13    1    3    3    0    0 -0.21113396084E+02 -0.10247762688E+02 -0.38068443685E+02  0.44721468032E+02  0.10566000000E+00 0.  1.
         23    2    1    0    0    0  0.33066981694E+01  0.26358690709E+02 -0.12188111639E+02  0.95772189716E+02  0.91203330142E+02 0.  0.
         13    1    3    3    0    0  0.24420094253E+02  0.36606453397E+02  0.25880332046E+02  0.51050721684E+02  0.10566000000E+00 0. -1.
         22    1    1    0    0    0 -0.33066981694E+01 -0.26358690709E+02  0.12188111639E+02  0.29227810284E+02  0.00000000000E+00 0. -1.
</event>
<event>
 5    1  0.6978980E-004  0.9118800E+02  0.7818608E-02  0.1130116E+00
         25   -1    0    0    0    0  0.00000000000E+00  0.00000000000E+00  0.99999998245E-14  0.12500000000E+03  0.12500000000E+03 0.  0.
        -13    1    3    3    0    0 -0.85949426565E+01  0.24467464929E+02  0.48609963046E+02  0.55095095523E+02  0.10566000000E+00 0. -1.
         23    2    1    0    0    0  0.17619194280E+02  0.10919701890E+02  0.19942142923E+02  0.96236047545E+02  0.91836876506E+02 0.  0.
         13    1    3    3    0    0  0.26214136937E+02 -0.13547763039E+02 -0.28667820123E+02  0.41140952023E+02  0.10566000000E+00 0.  1.
         22    1    1    0    0    0 -0.17619194280E+02 -0.10919701890E+02 -0.19942142923E+02  0.28763952455E+02  0.00000000000E+00 0.  1.
</event>
<event>
 5    1  0.6978980E-004  0.9118800E+02  0.7818608E-02  0.1130116E+00
         25   -1    0    0    0    0  0.00000000000E+00  0.00000000000E+00  0.99999998245E-14  0.12500000000E+03  0.12500000000E+03 0.  0.
        -13    1    3    3    0    0 -0.35189604762E+02 -0.24970514326E+02 -0.81879736373E+01  0.43919118221E+02  0.10566000000E+00 0.  1.
         23    2    1    0    0    0  0.14276155834E+02 -0.26851713055E+02  0.22382424249E+01  0.94506839315E+02  0.89452276822E+02 0.  0.
         13    1    3    3    0    0  0.49465760596E+02 -0.18811987290E+01  0.10426216062E+02  0.50587721093E+02  0.10566000000E+00 0. -1.
         22    1    1    0    0    0 -0.14276155834E+02  0.26851713055E+02 -0.22382424249E+01  0.30493160685E+02  0.00000000000E+00 0. -1.
</event>
<event>
 5    1  0.6978980E-004  0.9118800E+02  0.7818608E-02  0.1130116E+00
         25   -1    0    0    0    0  0.00000000000E+00  0.00000000000E+00  0.99999998245E-14  0.12500000000E+03  0.12500000000E+03 0.  0.
        -13    1    3    3    0    0  0.24369118164E+02 -0.19071417320E+02 -0.23555109946E+02  0.38889937609E+02  0.10566000000E+00 0. -1.
         23    2    1    0    0    0 -0.23915963074E+02 -0.17102505017E+02  0.52270117276E+01  0.95137136454E+02  0.90328755739E+02 0.  0.
         13    1    3    3    0    0 -0.48285081238E+02  0.19689123031E+01  0.28782121673E+02  0.56247198844E+02  0.10566000000E+00 0.  1.
         22    1    1    0    0    0  0.23915963074E+02  0.17102505017E+02 -0.52270117276E+01  0.29862863546E+02  0.00000000000E+00 0.  1.
</event>
<event>
 5    1  0.6978980E-004  0.9118800E+02  0.7818608E-02  0.1130116E+00
         25   -1    0    0    0    0  0.00000000000E+00  0.00000000000E+00  0.99999998245E-14  0.12500000000E+03  0.12500000000E+03 0.  0.
        -13    1    3    3    0    0 -0.21951801292E+01 -0.41722861698E+02 -0.23499320105E+02  0.47935844767E+02  0.10566000000E+00 0.  1.
         23    2    1    0    0    0 -0.10114636308E+02 -0.74097366436E+01  0.18441148831E+02  0.10270008890E+03  0.10024979913E+03 0.  0.
         13    1    3    3    0    0 -0.79194561785E+01  0.34313125055E+02  0.41940468935E+02  0.54764244136E+02  0.10566000000E+00 0. -1.
         22    1    1    0    0    0  0.10114636308E+02  0.74097366436E+01 -0.18441148831E+02  0.22299911098E+02  0.00000000000E+00 0. -1.
</event>
<event>
 5    1  0.6978980E-004  0.9118800E+02  0.7818608E-02  0.1130116E+00
         25   -1    0    0    0    0  0.00000000000E+00  0.00000000000E+00  0.99999998245E-14  0.12500000000E+03  0.12500000000E+03 0.  0.
        -13    1    3    3    0    0  0.35086245789E+02 -0.45201700144E+01 -0.17163346205E+02  0.39320073722E+02  0.10566000000E+00 0.  1.
         23    2    1    0    0    0 -0.24285405359E+02  0.40018326275E-01 -0.29812284402E+01  0.10053226128E+03  0.97509308893E+02 0.  0.
         13    1    3    3    0    0 -0.59371651147E+02  0.45601883406E+01  0.14182117765E+02  0.61212187561E+02  0.10566000000E+00 0. -1.
         22    1    1    0    0    0  0.24285405359E+02 -0.40018326275E-01  0.29812284402E+01  0.24467738717E+02  0.00000000000E+00 0. -1.
</event>
<event>
 5    1  0.6978980E-004  0.9118800E+02  0.7818608E-02  0.1130116E+00
         25   -1    0    0    0    0  0.00000000000E+00  0.00000000000E+00  0.99999998245E-14  0.12500000000E+03  0.12500000000E+03 0.  0.
        -13    1    3    3    0    0 -0.25686284206E+02 -0.20606361124E+02  0.39292172735E+02  0.51266883242E+02  0.10566000000E+00 0.  1.
         23    2    1    0    0    0 -0.61304731519E+01 -0.28555100884E+02  0.86937170265E-01  0.95794109402E+02  0.91233367528E+02 0.  0.
         13    1    3    3    0    0  0.19555811055E+02 -0.79487397601E+01 -0.39205235565E+02  0.44527226160E+02  0.10566000000E+00 0. -1.
         22    1    1    0    0    0  0.61304731519E+01  0.28555100884E+02 -0.86937170265E-01  0.29205890598E+02  0.00000000000E+00 0.  1.
</event>
<event>
 5    1  0.6978980E-004  0.9118800E+02  0.7818608E-02  0.1130116E+00
         25   -1    0    0    0    0  0.00000000000E+00  0.00000000000E+00  0.99999998245E-14  0.12500000000E+03  0.12500000000E+03 0.  0.
        -13    1    3    3    0    0  0.12130098015E+02 -0.13881183184E+02 -0.33711252610E+02  0.38422470522E+02  0.10566000000E+00 0. -1.
         23    2    1    0    0    0 -0.19871858139E+02  0.18259358739E+02  0.43903209699E+01  0.97658276468E+02  0.93752701919E+02 0.  0.
         13    1    3    3    0    0 -0.32001956154E+02  0.32140541924E+02  0.38101573580E+02  0.59235805946E+02  0.10566000000E+00 0.  1.
         22    1    1    0    0    0  0.19871858139E+02 -0.18259358739E+02 -0.43903209699E+01  0.27341723532E+02  0.00000000000E+00 0.  1.
</event>
<event>
 5    1  0.6978980E-004  0.9118800E+02  0.7818608E-02  0.1130116E+00
         25   -1    0    0    0    0  0.00000000000E+00  0.00000000000E+00  0.99999998245E-14  0.12500000000E+03  0.12500000000E+03 0.  0.
        -13    1    3    3    0    0 -0.11679192565E+02 -0.33648952271E+02 -0.11203559332E+02  0.37338806002E+02  0.10566000000E+00 0. -1.
         23    2    1    0    0    0 -0.19901069719E+02  0.19464446253E+02  0.10426443545E+02  0.95274119544E+02  0.90518119103E+02 0.  0.
         13    1    3    3    0    0 -0.82218771547E+01  0.53113398524E+02  0.21630002877E+02  0.57935313542E+02  0.10566000000E+00 0.  1.
         22    1    1    0    0    0  0.19901069719E+02 -0.19464446253E+02 -0.10426443545E+02  0.29725880456E+02  0.00000000000E+00 0.  1.
</event>
<event>
 5    1  0.6978980E-004  0.9118800E+02  0.7818608E-02  0.1130116E+00
         25   -1    0    0    0    0  0.00000000000E+00  0.00000000000E+00  0.99999998245E-14  0.12500000000E+03  0.12500000000E+03 0.  0.
        -13    1    3    3    0    0 -0.16456228710E+02 -0.49560780597E+01  0.39898689377E+02  0.43442913705E+02  0.10566000000E+00 0. -1.
         23    2    1    0    0    0  0.19078702328E+02 -0.21277436775E+02  0.47350909312E+01  0.96031960986E+02  0.91558671061E+02 0.  0.
         13    1    3    3    0    0  0.35534931038E+02 -0.16321358715E+02 -0.35163598446E+02  0.52589047281E+02  0.10566000000E+00 0.  1.
         22    1    1    0    0    0 -0.19078702328E+02  0.21277436775E+02 -0.47350909312E+01  0.28968039014E+02  0.00000000000E+00 0.  1.
</event>
<event>
 5    1  0.6978980E-004  0.9118800E+02  0.7818608E-02  0.1130116E+00
         25   -1    0    0    0    0  0.00000000000E+00  0.00000000000E+00  0.99999998245E-14  0.12500000000E+03  0.12500000000E+03 0.  0.
        -13    1    3    3    0    0  0.26929342800E+01  0.84579441260E+01  0.40395171964E+02  0.41359035239E+02  0.10566000000E+00 0.  1.
         23    2    1    0    0    0  0.99404643912E+01  0.27821057645E+02 -0.83427802632E+01  0.94301041332E+02  0.89164232363E+02 0.  0.
         13    1    3    3    0    0  0.72475301112E+01  0.19363113519E+02 -0.48737952227E+02  0.52942006093E+02  0.10566000000E+00 0. -1.
         22    1    1    0    0    0 -0.99404643912E+01 -0.27821057645E+02  0.83427802632E+01  0.30698958668E+02  0.00000000000E+00 0. -1.
</event>
<event>
 5    1  0.6978980E-004  0.9118800E+02  0.7818608E-02  0.1130116E+00
         25   -1    0    0    0    0  0.00000000000E+00  0.00000000000E+00  0.99999998245E-14  0.12500000000E+03  0.12500000000E+03 0.  0.
        -13    1    3    3    0    0 -0.30893203798E+02 -0.27846886846E+02  0.27643649775E+02  0.49940181065E+02  0.10566000000E+00 0.  1.
         23    2    1    0    0    0 -0.28911399877E+00  0.91371137371E+01  0.25408775060E+02  0.97996735671E+02  0.94202886993E+02 0.  0.
         13    1    3    3    0    0  0.30604089799E+02  0.36984000583E+02 -0.22348747144E+01  0.48056554606E+02  0.10566000000E+00 0. -1.
         22    1    1    0    0    0  0.28911399877E+00 -0.91371137371E+01 -0.25408775060E+02  0.27003264329E+02  0.00000000000E+00 0. -1.
</event>
<event>
 5    1  0.6978980E-004  0.9118800E+02  0.7818608E-02  0.1130116E+00
         25   -1    0    0    0    0  0.00000000000E+00  0.00000000000E+00  0.99999998245E-14  0.12500000000E+03  0.12500000000E+03 0.  0.
        -13    1    3    3    0    0  0.17278759478E+02  0.36596961701E+02 -0.10364074711E+02  0.41777007354E+02  0.10566000000E+00 0. -1.
         23    2    1    0    0    0  0.16432910609E+02 -0.71216725716E+01  0.22329988753E+02  0.96375060367E+02  0.92025893594E+02 0.  0.
         13    1    3    3    0    0 -0.84584886923E+00 -0.43718634273E+02  0.32694063464E+02  0.54598053013E+02  0.10566000000E+00 0.  1.
         22    1    1    0    0    0 -0.16432910609E+02  0.71216725716E+01 -0.22329988753E+02  0.28624939633E+02  0.00000000000E+00 0.  1.
</event>
<event>
 5    1  0.6978980E-004  0.9118800E+02  0.7818608E-02  0.1130116E+00
         25   -1    0    0    0    0  0.00000000000E+00  0.00000000000E+00  0.99999998245E-14  0.12500000000E+03  0.12500000000E+03 0.  0.
        -13    1    3    3    0    0 -0.70964445989E+01 -0.10862130780E+02 -0.38618715367E+02  0.40740173682E+02  0.10566000000E+00 0.  1.
         23    2    1    0    0    0  0.15716794256E+02  0.22500129999E+02  0.12686968235E+01  0.97524864636E+02  0.93574655537E+02 0.  0.
         13    1    3    3    0    0  0.22813238855E+02  0.33362260779E+02  0.39887412191E+02  0.56784690953E+02  0.10566000000E+00 0. -1.
         22    1    1    0    0    0 -0.15716794256E+02 -0.22500129999E+02 -0.12686968235E+01  0.27475135364E+02  0.00000000000E+00 0. -1.
</event>
<event>
 5    1  0.6978980E-004  0.9118800E+02  0.7818608E-02  0.1130116E+00
         25   -1    0    0    0    0  0.00000000000E+00  0.00000000000E+00  0.99999998245E-14  0.12500000000E+03  0.12500000000E+03 0.  0.
        -13    1    3    3    0    0 -0.18212035537E+02  0.18429500969E+02  0.21165752673E+02  0.33456314719E+02  0.10566000000E+00 0. -1.
         23    2    1    0    0    0  0.10559526804E+02 -0.74499820412E+01 -0.26895530693E+02  0.95160840997E+02  0.90361552938E+02 0.  0.
         13    1    3    3    0    0  0.28771562341E+02 -0.25879483010E+02 -0.48061283366E+02  0.61704526278E+02  0.10566000000E+00 0.  1.
         22    1    1    0    0    0 -0.10559526804E+02  0.74499820412E+01  0.26895530693E+02  0.29839159003E+02  0.00000000000E+00 0.  1.
</event>
<event>
 5    1  0.6978980E-004  0.9118800E+02  0.7818608E-02  0.1130116E+00
         25   -1    0    0    0    0  0.00000000000E+00  0.00000000000E+00  0.99999998245E-14  0.12500000000E+03  0.12500000000E+03 0.  0.
        -13    1    3    3    0    0 -0.32768513672E+02 -0.13813659756E+02 -0.81907113291E+01  0.36492349887E+02  0.10566000000E+00 0. -1.
         23    2    1    0    0    0  0.17601554403E+02 -0.20864045015E+02  0.16577259497E+02  0.93063678606E+02  0.87412354112E+02 0.  0.
         13    1    3    3    0    0  0.50370068075E+02 -0.70503852587E+01  0.24767970826E+02  0.56571328719E+02  0.10566000000E+00 0.  1.
         22    1    1    0    0    0 -0.17601554403E+02  0.20864045015E+02 -0.16577259497E+02  0.31936321394E+02  0.00000000000E+00 0.  1.
</event>
<event>
 5    1  0.6978980E-004  0.9118800E+02  0.7818608E-02  0.1130116E+00
         25   -1    0    0    0    0  0.00000000000E+00  0.00000000000E+00  0.99999998245E-14  0.12500000000E+03  0.12500000000E+03 0.  0.
        -13    1    3    3    0    0 -0.58507376936E+02  0.40103191151E+00  0.10494796546E+02  0.59442626970E+02  0.10566000000E+00 0. -1.
         23    2    1    0    0    0 -0.25652908777E+02 -0.13328993781E+02  0.72327647252E+01  0.95199887760E+02  0.90415551428E+02 0.  0.
         13    1    3    3    0    0  0.32854468159E+02 -0.13730025692E+02 -0.32620318213E+01  0.35757260789E+02  0.10566000000E+00 0.  1.
         22    1    1    0    0    0  0.25652908777E+02  0.13328993781E+02 -0.72327647252E+01  0.29800112240E+02  0.00000000000E+00 0. -1.
</event>
<event>
 5    1  0.6978980E-004  0.9118800E+02  0.7818608E-02  0.1130116E+00
         25   -1    0    0    0    0  0.00000000000E+00  0.00000000000E+00  0.99999998245E-14  0.12500000000E+03  0.12500000000E+03 0.  0.
        -13    1    3    3    0    0 -0.36668700571E+01  0.41198802272E+01 -0.35290901893E+02  0.35719438259E+02  0.10566000000E+00 0. -1.
         23    2    1    0    0    0  0.14649862021E+02 -0.22963103720E+02  0.13615500444E+02  0.94548326121E+02  0.89510231428E+02 0.  0.
         13    1    3    3    0    0  0.18316732078E+02 -0.27082983947E+02  0.48906402337E+02  0.58828887862E+02  0.10566000000E+00 0.  1.
         22    1    1    0    0    0 -0.14649862021E+02  0.22963103720E+02 -0.13615500444E+02  0.30451673879E+02  0.00000000000E+00 0.  1.
</event>
<event>
 5    1  0.6978980E-004  0.9118800E+02  0.7818608E-02  0.1130116E+00
         25   -1    0    0    0    0  0.00000000000E+00  0.00000000000E+00  0.99999998245E-14  0.12500000000E+03  0.12500000000E+03 0.  0.
        -13    1    3    3    0    0 -0.12490957746E+02 -0.25784589354E+02  0.23142032770E+02  0.36829796610E+02  0.10566000000E+00 0.  1.
         23    2    1    0    0    0  0.22596939761E+02  0.17155393334E+02  0.79073327121E+00  0.96617708583E+02  0.92354897789E+02 0.  0.
         13    1    3    3    0    0  0.35087897506E+02  0.42939982688E+02 -0.22351299499E+02  0.59787911972E+02  0.10566000000E+00 0. -1.
         22    1    1    0    0    0 -0.22596939761E+02 -0.17155393334E+02 -0.79073327121E+00  0.28382291417E+02  0.00000000000E+00 0. -1.
</event>
<event>
 5    1  0.6978980E-004  0.9118800E+02  0.7818608E-02  0.1130116E+00
         25   -1    0    0    0    0  0.00000000000E+00  0.00000000000E+00  0.99999998245E-14  0.12500000000E+03  0.12500000000E+03 0.  0.
        -13    1    3    3    0    0  0.44600923927E+02 -0.32341772241E+02 -0.19341779976E+02  0.58389624622E+02  0.10566000000E+00 0. -1.
         23    2    1    0    0    0  0.14717460755E+02 -0.25301318181E+02  0.18120918081E+01  0.95673492716E+02  0.91067959124E+02 0.  0.
         13    1    3    3    0    0 -0.29883463172E+02  0.70404540600E+01  0.21153871784E+02  0.37283868094E+02  0.10566000000E+00 0.  1.
         22    1    1    0    0    0 -0.14717460755E+02  0.25301318181E+02 -0.18120918081E+01  0.29326507284E+02  0.00000000000E+00 0. -1.
</event>
<event>
 5    1  0.6978980E-004  0.9118800E+02  0.7818608E-02  0.1130116E+00
         25   -1    0    0    0    0  0.00000000000E+00  0.00000000000E+00  0.99999998245E-14  0.12500000000E+03  0.12500000000E+03 0.  0.
        -13    1    3    3    0    0 -0.13553074064E+02 -0.25859902232E+02  0.52022716294E+02  0.59655632883E+02  0.10566000000E+00 0. -1.
         23    2    1    0    0    0  0.88261587569E+00 -0.19102445642E+01  0.29127167779E+02  0.95796918863E+02  0.91237216725E+02 0.  0.
         13    1    3    3    0    0  0.14435689940E+02  0.23949657668E+02 -0.22895548514E+02  0.36141285980E+02  0.10566000000E+00 0.  1.
         22    1    1    0    0    0 -0.88261587569E+00  0.19102445642E+01 -0.29127167779E+02  0.29203081137E+02  0.00000000000E+00 0. -1.
</event>
<event>
 5    1  0.6978980E-004  0.9118800E+02  0.7818608E-02  0.1130116E+00
         25   -1    0    0    0    0  0.00000000000E+00  0.00000000000E+00  0.99999998245E-14  0.12500000000E+03  0.12500000000E+03 0.  0.
        -13    1    3    3    0    0  0.31825510746E+02  0.17730855411E+02 -0.10686759017E+02  0.37966621527E+02  0.10566000000E+00 0. -1.
         23    2    1    0    0    0 -0.20905170032E+02 -0.65870224907E+01 -0.18189253606E+02  0.96517304445E+02  0.92218903221E+02 0.  0.
         13    1    3    3    0    0 -0.52730680778E+02 -0.24317877902E+02 -0.75024945890E+01  0.58550682917E+02  0.10566000000E+00 0.  1.
         22    1    1    0    0    0  0.20905170032E+02  0.65870224907E+01  0.18189253606E+02  0.28482695555E+02  0.00000000000E+00 0.  1.
</event>
<event>
 5    1  0.6978980E-004  0.9118800E+02  0.7818608E-02  0.1130116E+00
         25   -1    0    0    0    0  0.00000000000E+00  0.00000000000E+00  0.99999998245E-14  0.12500000000E+03  0.12500000000E+03 0.  0.
        -13    1    3    3    0    0 -0.11408390657E+02 -0.39310671408E+02 -0.13080972929E+02  0.42972122135E+02  0.10566000000E+00 0.  1.
         23    2    1    0    0    0  0.25252411303E+02  0.11486896136E+01 -0.10488117050E+02  0.97632055910E+02  0.93717735661E+02 0.  0.
         13    1    3    3    0    0  0.36660801960E+02  0.40459361022E+02  0.25928558786E+01  0.54659933775E+02  0.10566000000E+00 0. -1.
         22    1    1    0    0    0 -0.25252411303E+02 -0.11486896136E+01  0.10488117050E+02  0.27367944090E+02  0.00000000000E+00 0. -1.
</event>
<event>
 5    1  0.6978980E-004  0.9118800E+02  0.7818608E-02  0.1130116E+00
         25   -1    0    0    0    0  0.00000000000E+00  0.00000000000E+00  0.99999998245E-14  0.12500000000E+03  0.12500000000E+03 0.  0.
        -13    1    3    3    0    0 -0.35319942340E+02  0.16015488073E+01  0.15359760707E+02  0.38548627713E+02  0.10566000000E+00 0.  1.
         23    2    1    0    0    0  0.67679707907E+01 -0.30367585924E+02 -0.98696360854E+00  0.93871720243E+02  0.88560318770E+02 0.  0.
         13    1    3    3    0    0  0.42087913131E+02 -0.31969134732E+02 -0.16346724315E+02  0.55323092530E+02  0.10566000000E+00 0. -1.
         22    1    1    0    0    0 -0.67679707907E+01  0.30367585924E+02  0.98696360854E+00  0.31128279757E+02  0.00000000000E+00 0. -1.
</event>
<event>
 5    1  0.6978980E-004  0.9118800E+02  0.7818608E-02  0.1130116E+00
         25   -1    0    0    0    0  0.00000000000E+00  0.00000000000E+00  0.99999998245E-14  0.12500000000E+03  0.12500000000E+03 0.  0.
        -13    1    3    3    0    0 -0.31922041965E+02  0.16114746184E+02  0.95632251627E+01  0.37015783760E+02  0.10566000000E+00 0. -1.
         23    2    1    0    0    0  0.14243233362E+02  0.98793838602E+01 -0.24686229777E+02  0.94835751912E+02  0.89910722264E+02 0.  0.
         13    1    3    3    0    0  0.46165275328E+02 -0.62353623239E+01 -0.34249454940E+02  0.57819968152E+02  0.10566000000E+00 0.  1.
         22    1    1    0    0    0 -0.14243233362E+02 -0.98793838602E+01  0.24686229777E+02  0.30164248088E+02  0.00000000000E+00 0.  1.
</event>
<event>
 5    1  0.6978980E-004  0.9118800E+02  0.7818608E-02  0.1130116E+00
         25   -1    0    0    0    0  0.00000000000E+00  0.00000000000E+00  0.99999998245E-14  0.12500000000E+03  0.12500000000E+03 0.  0.
        -13    1    3    3    0    0  0.23609526166E+02  0.30062506728E+02  0.24263211216E+01  0.38302248430E+02  0.10566000000E+00 0. -1.
         23    2    1    0    0    0  0.11597598506E+02 -0.20291703322E+02 -0.19538673223E+02  0.94536624184E+02  0.89493888316E+02 0.  0.
         13    1    3    3    0    0 -0.12011927661E+02 -0.50354210050E+02 -0.21964994345E+02  0.56234375754E+02  0.10566000000E+00 0.  1.
         22    1    1    0    0    0 -0.11597598506E+02  0.20291703322E+02  0.19538673223E+02  0.30463375816E+02  0.00000000000E+00 0.  1.
</event>
<event>
 5    1  0.6978980E-004  0.9118800E+02  0.7818608E-02  0.1130116E+00
         25   -1    0    0    0    0  0.00000000000E+00  0.00000000000E+00  0.99999998245E-14  0.12500000000E+03  0.12500000000E+03 0.  0.
        -13    1    3    3    0    0  0.14153463514E+02 -0.38449466754E+02  0.29917007230E+02  0.50731849057E+02  0.10566000000E+00 0.  1.
         23    2    1    0    0    0  0.25391606793E+02  0.17038291914E+01  0.17046995041E+02  0.94369349185E+02  0.89259942282E+02 0.  0.
         13    1    3    3    0    0  0.11238143279E+02  0.40153295945E+02 -0.12870012189E+02  0.43637500128E+02  0.10566000000E+00 0. -1.
         22    1    1    0    0    0 -0.25391606793E+02 -0.17038291914E+01 -0.17046995041E+02  0.30630650815E+02  0.00000000000E+00 0. -1.
</event>
<event>
 5    1  0.6978980E-004  0.9118800E+02  0.7818608E-02  0.1130116E+00
         25   -1    0    0    0    0  0.00000000000E+00  0.00000000000E+00  0.99999998245E-14  0.12500000000E+03  0.12500000000E+03 0.  0.
        -13    1    3    3    0    0  0.96515312296E+01  0.23399370559E+02 -0.34712977744E+02  0.42961431372E+02  0.10566000000E+00 0.  1.
         23    2    1    0    0    0  0.28911322128E+02 -0.29471594235E+00  0.75658043110E+01  0.95113668684E+02  0.90296274403E+02 0.  0.
         13    1    3    3    0    0  0.19259790898E+02 -0.23694086502E+02  0.42278782055E+02  0.52152237312E+02  0.10566000000E+00 0. -1.
         22    1    1    0    0    0 -0.28911322128E+02  0.29471594235E+00 -0.75658043110E+01  0.29886331316E+02  0.00000000000E+00 0. -1.
</event>
<event>
 5    1  0.6978980E-004  0.9118800E+02  0.7818608E-02  0.1130116E+00
         25   -1    0    0    0    0  0.00000000000E+00  0.00000000000E+00  0.99999998245E-14  0.12500000000E+03  0.12500000000E+03 0.  0.
        -13    1    3    3    0    0  0.14627861434E+02 -0.40328682457E+02 -0.37678074120E+02  0.57096632057E+02  0.10566000000E+00 0.  1.
         23    2    1    0    0    0  0.72860836061E+00 -0.59343419605E+01 -0.29258477221E+02  0.95136882716E+02  0.90328404607E+02 0.  0.
         13    1    3    3    0    0 -0.13899253074E+02  0.34394340496E+02  0.84195968990E+01  0.38040250658E+02  0.10566000000E+00 0. -1.
         22    1    1    0    0    0 -0.72860836061E+00  0.59343419605E+01  0.29258477221E+02  0.29863117284E+02  0.00000000000E+00 0.  1.
</event>
<event>
 5    1  0.6978980E-004  0.9118800E+02  0.7818608E-02  0.1130116E+00
         25   -1    0    0    0    0  0.00000000000E+00  0.00000000000E+00  0.99999998245E-14  0.12500000000E+03  0.12500000000E+03 0.  0.
        -13    1    3    3    0    0 -0.12590111821E+02 -0.45443957968E+02 -0.82201581458E+00  0.47163026891E+02  0.10566000000E+00 0. -1.
         23    2    1    0    0    0 -0.19239895852E+02 -0.15794783577E+01 -0.21494910613E+02  0.96108833071E+02  0.91663560195E+02 0.  0.
         13    1    3    3    0    0 -0.66497840314E+01  0.43864479611E+02 -0.20672894798E+02  0.48945806180E+02  0.10566000000E+00 0.  1.
         22    1    1    0    0    0  0.19239895852E+02  0.15794783577E+01  0.21494910613E+02  0.28891166929E+02  0.00000000000E+00 0. -1.
</event>
<event>
 5    1  0.6978980E-004  0.9118800E+02  0.7818608E-02  0.1130116E+00
         25   -1    0    0    0    0  0.00000000000E+00  0.00000000000E+00  0.99999998245E-14  0.12500000000E+03  0.12500000000E+03 0.  0.
        -13    1    3    3    0    0 -0.30816266654E+02  0.40963231570E+02  0.19095765032E+02  0.54701810183E+02  0.10566000000E+00 0. -1.
         23    2    1    0    0    0 -0.15532671456E+02  0.29583818364E+01  0.24314965047E+02  0.95995975609E+02  0.91509529024E+02 0.  0.
         13    1    3    3    0    0  0.15283595198E+02 -0.38004849733E+02  0.52192000144E+01  0.41294165426E+02  0.10566000000E+00 0.  1.
         22    1    1    0    0    0  0.15532671456E+02 -0.29583818364E+01 -0.24314965047E+02  0.29004024391E+02  0.00000000000E+00 0. -1.
</event>
<event>
 5    1  0.6978980E-004  0.9118800E+02  0.7818608E-02  0.1130116E+00
         25   -1    0    0    0    0  0.00000000000E+00  0.00000000000E+00  0.99999998245E-14  0.12500000000E+03  0.12500000000E+03 0.  0.
        -13    1    3    3    0    0  0.25553908099E+02 -0.37919614018E+01 -0.78063836636E+01  0.26987626430E+02  0.10566000000E+00 0.  1.
         23    2    1    0    0    0 -0.35124684348E+02 -0.35632710792E+01 -0.11740365348E+02  0.87794133126E+02  0.79520646888E+02 0.  0.
         13    1    3    3    0    0 -0.60678592447E+02  0.22869032254E+00 -0.39339816844E+01  0.60806506696E+02  0.10566000000E+00 0. -1.
         22    1    1    0    0    0  0.35124684348E+02  0.35632710792E+01  0.11740365348E+02  0.37205866874E+02  0.00000000000E+00 0. -1.
</event>
<event>
 5    1  0.6978980E-004  0.9118800E+02  0.7818608E-02  0.1130116E+00
         25   -1    0    0    0    0  0.00000000000E+00  0.00000000000E+00  0.99999998245E-14  0.12500000000E+03  0.12500000000E+03 0.  0.
        -13    1    3    3    0    0 -0.14159138143E+02  0.63250860578E+01  0.33959801320E+02  0.37333191349E+02  0.10566000000E+00 0. -1.
         23    2    1    0    0    0 -0.14481783600E+02  0.11501960456E+02 -0.23538704597E+02  0.95065274936E+02  0.90229256530E+02 0.  0.
         13    1    3    3    0    0 -0.32264545763E+00  0.51768743978E+01 -0.57498505917E+02  0.57732083587E+02  0.10566000000E+00 0.  1.
         22    1    1    0    0    0  0.14481783600E+02 -0.11501960456E+02  0.23538704597E+02  0.29934725064E+02  0.00000000000E+00 0.  1.
</event>
<event>
 5    1  0.6978980E-004  0.9118800E+02  0.7818608E-02  0.1130116E+00
         25   -1    0    0    0    0  0.00000000000E+00  0.00000000000E+00  0.99999998245E-14  0.12500000000E+03  0.12500000000E+03 0.  0.
        -13    1    3    3    0    0 -0.25401525181E+02  0.22745932745E+02  0.43027013208E+02  0.54899453255E+02  0.10566000000E+00 0. -1.
         23    2    1    0    0    0 -0.65841835630E+01  0.27028047882E+02  0.61666819163E+01  0.96506232061E+02  0.92203893710E+02 0.  0.
         13    1    3    3    0    0  0.18817341618E+02  0.42821151366E+01 -0.36860331292E+02  0.41606778806E+02  0.10566000000E+00 0.  1.
         22    1    1    0    0    0  0.65841835630E+01 -0.27028047882E+02 -0.61666819163E+01  0.28493767939E+02  0.00000000000E+00 0. -1.
</event>
<event>
 5    1  0.6978980E-004  0.9118800E+02  0.7818608E-02  0.1130116E+00
         25   -1    0    0    0    0  0.00000000000E+00  0.00000000000E+00  0.99999998245E-14  0.12500000000E+03  0.12500000000E+03 0.  0.
        -13    1    3    3    0    0  0.34938276184E+02  0.76989253398E+01 -0.40630662540E+02  0.54137034427E+02  0.10566000000E+00 0. -1.
         23    2    1    0    0    0  0.29626023443E+02 -0.16058186857E+02 -0.24398548702E+02  0.83396444756E+02  0.72278013178E+02 0.  0.
         13    1    3    3    0    0 -0.53122527414E+01 -0.23757112197E+02  0.16232113838E+02  0.29259410329E+02  0.10566000000E+00 0.  1.
         22    1    1    0    0    0 -0.29626023443E+02  0.16058186857E+02  0.24398548702E+02  0.41603555244E+02  0.00000000000E+00 0. -1.
</event>
<event>
 5    1  0.6978980E-004  0.9118800E+02  0.7818608E-02  0.1130116E+00
         25   -1    0    0    0    0  0.00000000000E+00  0.00000000000E+00  0.99999998245E-14  0.12500000000E+03  0.12500000000E+03 0.  0.
        -13    1    3    3    0    0 -0.16456974888E+02 -0.25751560870E+02  0.49310590742E+02  0.58013105701E+02  0.10566000000E+00 0.  1.
         23    2    1    0    0    0 -0.18257648309E+02  0.99853214442E+00  0.23453324884E+02  0.95261183004E+02  0.90500252767E+02 0.  0.
         13    1    3    3    0    0 -0.18006734205E+01  0.26750093015E+02 -0.25857265858E+02  0.37248077302E+02  0.10566000000E+00 0. -1.
         22    1    1    0    0    0  0.18257648309E+02 -0.99853214442E+00 -0.23453324884E+02  0.29738816996E+02  0.00000000000E+00 0.  1.
</event>
<event>
 5    1  0.6978980E-004  0.9118800E+02  0.7818608E-02  0.1130116E+00
         25   -1    0    0    0    0  0.00000000000E+00  0.00000000000E+00  0.99999998245E-14  0.12500000000E+03  0.12500000000E+03 0.  0.
        -13    1    3    3    0    0  0.10052545449E+02  0.15276066392E+01 -0.50717679718E+02  0.51726989591E+02  0.10566000000E+00 0.  1.
         23    2    1    0    0    0  0.79392124198E+01  0.24310951617E+02 -0.11886650552E+02  0.96798121982E+02  0.92598760767E+02 0.  0.
         13    1    3    3    0    0 -0.21133330294E+01  0.22783344978E+02  0.38831029166E+02  0.45071132391E+02  0.10566000000E+00 0. -1.
         22    1    1    0    0    0 -0.79392124198E+01 -0.24310951617E+02  0.11886650552E+02  0.28201878018E+02  0.00000000000E+00 0.  1.
</event>
<event>
 5    1  0.6978980E-004  0.9118800E+02  0.7818608E-02  0.1130116E+00
         25   -1    0    0    0    0  0.00000000000E+00  0.00000000000E+00  0.99999998245E-14  0.12500000000E+03  0.12500000000E+03 0.  0.
        -13    1    3    3    0    0  0.71110915185E+01  0.12377297197E+02  0.49273579831E+02  0.51299726528E+02  0.10566000000E+00 0.  1.
         23    2    1    0    0    0  0.19841566035E+02  0.20106901971E+02  0.73200179777E+01  0.95818534774E+02  0.91266826905E+02 0.  0.
         13    1    3    3    0    0  0.12730474516E+02  0.77296047737E+01 -0.41953561853E+02  0.44518808245E+02  0.10566000000E+00 0. -1.
         22    1    1    0    0    0 -0.19841566035E+02 -0.20106901971E+02 -0.73200179777E+01  0.29181465226E+02  0.00000000000E+00 0.  1.
</event>
<event>
 5    1  0.6978980E-004  0.9118800E+02  0.7818608E-02  0.1130116E+00
         25   -1    0    0    0    0  0.00000000000E+00  0.00000000000E+00  0.99999998245E-14  0.12500000000E+03  0.12500000000E+03 0.  0.
        -13    1    3    3    0    0 -0.19089816759E+02  0.41677079047E+02  0.79885571011E+01  0.46532012963E+02  0.10566000000E+00 0.  1.
         23    2    1    0    0    0 -0.24312631293E+02 -0.71515214259E+01  0.14068658255E+02  0.96014219965E+02  0.91534447021E+02 0.  0.
         13    1    3    3    0    0 -0.52228145342E+01 -0.48828600473E+02  0.60801011540E+01  0.49482207003E+02  0.10566000000E+00 0. -1.
         22    1    1    0    0    0  0.24312631293E+02  0.71515214259E+01 -0.14068658255E+02  0.28985780035E+02  0.00000000000E+00 0. -1.
</event>
<event>
 5    1  0.6978980E-004  0.9118800E+02  0.7818608E-02  0.1130116E+00
         25   -1    0    0    0    0  0.00000000000E+00  0.00000000000E+00  0.99999998245E-14  0.12500000000E+03  0.12500000000E+03 0.  0.
        -13    1    3    3    0    0  0.68834318150E+01  0.38348425201E+02 -0.14310165782E+02  0.41506329128E+02  0.10566000000E+00 0.  1.
         23    2    1    0    0    0  0.24350901560E+02 -0.30890225674E+01  0.15966827583E+02  0.95717786111E+02  0.91128736015E+02 0.  0.
         13    1    3    3    0    0  0.17467469745E+02 -0.41437447769E+02  0.30276993365E+02  0.54211456982E+02  0.10566000000E+00 0. -1.
         22    1    1    0    0    0 -0.24350901560E+02  0.30890225674E+01 -0.15966827583E+02  0.29282213889E+02  0.00000000000E+00 0.  1.
</event>
<event>
 5    1  0.6978980E-004  0.9118800E+02  0.7818608E-02  0.1130116E+00
         25   -1    0    0    0    0  0.00000000000E+00  0.00000000000E+00  0.99999998245E-14  0.12500000000E+03  0.12500000000E+03 0.  0.
        -13    1    3    3    0    0 -0.87241893137E+01  0.16517876122E+02  0.43797900643E+02  0.47615322907E+02  0.10566000000E+00 0.  1.
         23    2    1    0    0    0 -0.77908704791E+01  0.28027340297E+02 -0.29429146020E+01  0.95761494339E+02  0.91188670265E+02 0.  0.
         13    1    3    3    0    0  0.93331883465E+00  0.11509464175E+02 -0.46740815245E+02  0.48146171431E+02  0.10566000000E+00 0. -1.
         22    1    1    0    0    0  0.77908704791E+01 -0.28027340297E+02  0.29429146020E+01  0.29238505661E+02  0.00000000000E+00 0. -1.
</event>
<event>
 5    1  0.6978980E-004  0.9118800E+02  0.7818608E-02  0.1130116E+00
         25   -1    0    0    0    0  0.00000000000E+00  0.00000000000E+00  0.99999998245E-14  0.12500000000E+03  0.12500000000E+03 0.  0.
        -13    1    3    3    0    0 -0.13218584285E+02 -0.34122958388E+02 -0.60585723455E+01  0.37092111325E+02  0.10566000000E+00 0.  1.
         23    2    1    0    0    0  0.27062635125E+02  0.86297952177E+01 -0.66146453055E+01  0.95834727535E+02  0.91289001987E+02 0.  0.
         13    1    3    3    0    0  0.40281219410E+02  0.42752753606E+02 -0.55607296004E+00  0.58742616210E+02  0.10566000000E+00 0. -1.
         22    1    1    0    0    0 -0.27062635125E+02 -0.86297952177E+01  0.66146453055E+01  0.29165272465E+02  0.00000000000E+00 0. -1.
</event>
<event>
 5    1  0.6978980E-004  0.9118800E+02  0.7818608E-02  0.1130116E+00
         25   -1    0    0    0    0  0.00000000000E+00  0.00000000000E+00  0.99999998245E-14  0.12500000000E+03  0.12500000000E+03 0.  0.
        -13    1    3    3    0    0  0.29842652022E+02  0.35472348973E+02 -0.42022540832E+01  0.46546122554E+02  0.10566000000E+00 0. -1.
         23    2    1    0    0    0  0.21712078126E+02 -0.81739118376E+01  0.17477295883E+02  0.95953777480E+02  0.91451869145E+02 0.  0.
         13    1    3    3    0    0 -0.81305738960E+01 -0.43646260810E+02  0.21679549966E+02  0.49407654927E+02  0.10566000000E+00 0.  1.
         22    1    1    0    0    0 -0.21712078126E+02  0.81739118376E+01 -0.17477295883E+02  0.29046222520E+02  0.00000000000E+00 0.  1.
</event>
<event>
 5    1  0.6978980E-004  0.9118800E+02  0.7818608E-02  0.1130116E+00
         25   -1    0    0    0    0  0.00000000000E+00  0.00000000000E+00  0.99999998245E-14  0.12500000000E+03  0.12500000000E+03 0.  0.
        -13    1    3    3    0    0 -0.46063108312E+02  0.26261162795E+02 -0.23348974525E+02  0.57936554904E+02  0.10566000000E+00 0. -1.
         23    2    1    0    0    0 -0.15240249194E+02  0.27806022057E+02 -0.85748945000E+01  0.92152338381E+02  0.86099271747E+02 0.  0.
         13    1    3    3    0    0  0.30822859118E+02  0.15448592624E+01  0.14774080025E+02  0.34215783477E+02  0.10566000000E+00 0.  1.
         22    1    1    0    0    0  0.15240249194E+02 -0.27806022057E+02  0.85748945000E+01  0.32847661619E+02  0.00000000000E+00 0. -1.
</event>
<event>
 5    1  0.6978980E-004  0.9118800E+02  0.7818608E-02  0.1130116E+00
         25   -1    0    0    0    0  0.00000000000E+00  0.00000000000E+00  0.99999998245E-14  0.12500000000E+03  0.12500000000E+03 0.  0.
        -13    1    3    3    0    0 -0.25335769400E+02 -0.38597413076E+02 -0.93097990993E+01  0.47099310298E+02  0.10566000000E+00 0.  1.
         23    2    1    0    0    0  0.18717038773E+02 -0.22094939755E+02 -0.10611577785E+02  0.94159774867E+02  0.88965969430E+02 0.  0.
         13    1    3    3    0    0  0.44052808173E+02  0.16502473321E+02 -0.13017786853E+01  0.47060464569E+02  0.10566000000E+00 0. -1.
         22    1    1    0    0    0 -0.18717038773E+02  0.22094939755E+02  0.10611577785E+02  0.30840225133E+02  0.00000000000E+00 0.  1.
</event>
<event>
 5    1  0.6978980E-004  0.9118800E+02  0.7818608E-02  0.1130116E+00
         25   -1    0    0    0    0  0.00000000000E+00  0.00000000000E+00  0.99999998245E-14  0.12500000000E+03  0.12500000000E+03 0.  0.
        -13    1    3    3    0    0  0.53034349846E+02  0.62503135205E+01 -0.27558742315E+02  0.60093295173E+02  0.10566000000E+00 0. -1.
         23    2    1    0    0    0  0.21070168238E+02 -0.57938886487E+01 -0.20631927054E+02  0.94946754764E+02  0.90064913762E+02 0.  0.
         13    1    3    3    0    0 -0.31964181608E+02 -0.12044202169E+02  0.69268152605E+01  0.34853459591E+02  0.10566000000E+00 0.  1.
         22    1    1    0    0    0 -0.21070168238E+02  0.57938886487E+01  0.20631927054E+02  0.30053245236E+02  0.00000000000E+00 0. -1.
</event>
<event>
 5    1  0.6978980E-004  0.9118800E+02  0.7818608E-02  0.1130116E+00
         25   -1    0    0    0    0  0.00000000000E+00  0.00000000000E+00  0.99999998245E-14  0.12500000000E+03  0.12500000000E+03 0.  0.
        -13    1    3    3    0    0 -0.37071017383E+02 -0.43434970340E+01  0.14105839182E+02  0.39901280172E+02  0.10566000000E+00 0.  1.
         23    2    1    0    0    0  0.55328543159E-01  0.28337322187E+02 -0.10033547891E+02  0.94938746312E+02  0.90053798243E+02 0.  0.
         13    1    3    3    0    0  0.37126345926E+02  0.32680819221E+02 -0.24139387073E+02  0.55037466140E+02  0.10566000000E+00 0. -1.
         22    1    1    0    0    0 -0.55328543159E-01 -0.28337322187E+02  0.10033547891E+02  0.30061253688E+02  0.00000000000E+00 0. -1.
</event>
<event>
 5    1  0.6978980E-004  0.9118800E+02  0.7818608E-02  0.1130116E+00
         25   -1    0    0    0    0  0.00000000000E+00  0.00000000000E+00  0.99999998245E-14  0.12500000000E+03  0.12500000000E+03 0.  0.
        -13    1    3    3    0    0  0.33534355610E+02 -0.24799981982E+02 -0.15648674827E+02  0.44547551002E+02  0.10566000000E+00 0. -1.
         23    2    1    0    0    0 -0.22910188855E+01  0.90304485266E+01 -0.28120947423E+02  0.95375931203E+02  0.90658605773E+02 0.  0.
         13    1    3    3    0    0 -0.35825374495E+02  0.33830430508E+02 -0.12472272596E+02  0.50828380201E+02  0.10566000000E+00 0.  1.
         22    1    1    0    0    0  0.22910188855E+01 -0.90304485266E+01  0.28120947423E+02  0.29624068797E+02  0.00000000000E+00 0.  1.
</event>
<event>
 5    1  0.6978980E-004  0.9118800E+02  0.7818608E-02  0.1130116E+00
         25   -1    0    0    0    0  0.00000000000E+00  0.00000000000E+00  0.99999998245E-14  0.12500000000E+03  0.12500000000E+03 0.  0.
        -13    1    3    3    0    0 -0.20126284928E+02 -0.22959492886E+02 -0.18578248144E+02  0.35740287166E+02  0.10566000000E+00 0. -1.
         23    2    1    0    0    0  0.25331863564E+02  0.13720863017E+02 -0.42980945683E+01  0.95872023577E+02  0.91340056351E+02 0.  0.
         13    1    3    3    0    0  0.45458148492E+02  0.36680355904E+02  0.14280153576E+02  0.60131736411E+02  0.10566000000E+00 0.  1.
         22    1    1    0    0    0 -0.25331863564E+02 -0.13720863017E+02  0.42980945683E+01  0.29127976423E+02  0.00000000000E+00 0.  1.
</event>
<event>
 5    1  0.6978980E-004  0.9118800E+02  0.7818608E-02  0.1130116E+00
         25   -1    0    0    0    0  0.00000000000E+00  0.00000000000E+00  0.99999998245E-14  0.12500000000E+03  0.12500000000E+03 0.  0.
        -13    1    3    3    0    0 -0.21578160282E+02 -0.23324049815E+02  0.22642820787E+02  0.39017134674E+02  0.10566000000E+00 0.  1.
         23    2    1    0    0    0  0.18192842799E+02 -0.17152676174E+02 -0.16406062954E+02  0.95094269267E+02  0.90269415179E+02 0.  0.
         13    1    3    3    0    0  0.39771003081E+02  0.61713736412E+01 -0.39048883741E+02  0.56077134593E+02  0.10566000000E+00 0. -1.
         22    1    1    0    0    0 -0.18192842799E+02  0.17152676174E+02  0.16406062954E+02  0.29905730733E+02  0.00000000000E+00 0. -1.
</event>
<event>
 5    1  0.6978980E-004  0.9118800E+02  0.7818608E-02  0.1130116E+00
         25   -1    0    0    0    0  0.00000000000E+00  0.00000000000E+00  0.99999998245E-14  0.12500000000E+03  0.12500000000E+03 0.  0.
        -13    1    3    3    0    0  0.23933405786E+01 -0.43162041542E+02  0.40433617887E+02  0.59191034192E+02  0.10566000000E+00 0.  1.
         23    2    1    0    0    0 -0.13111023634E+02 -0.22549914780E+02  0.18953570965E+02  0.92756621615E+02  0.86972153037E+02 0.  0.
         13    1    3    3    0    0 -0.15504364213E+02  0.20612126762E+02 -0.21480046922E+02  0.33565587424E+02  0.10566000000E+00 0. -1.
         22    1    1    0    0    0  0.13111023634E+02  0.22549914780E+02 -0.18953570965E+02  0.32243378385E+02  0.00000000000E+00 0.  1.
</event>
<event>
 5    1  0.6978980E-004  0.9118800E+02  0.7818608E-02  0.1130116E+00
         25   -1    0    0    0    0  0.00000000000E+00  0.00000000000E+00  0.99999998245E-14  0.12500000000E+03  0.12500000000E+03 0.  0.
        -13    1    3    3    0    0 -0.45097687249E+02 -0.16501039768E+02 -0.12508490731E+01  0.48038125443E+02  0.10566000000E+00 0. -1.
         23    2    1    0    0    0 -0.15456892174E+02  0.22260334654E+02 -0.65451312957E+01  0.97120316389E+02  0.93032677578E+02 0.  0.
         13    1    3    3    0    0  0.29640795075E+02  0.38761374422E+02 -0.52942822225E+01  0.49082190946E+02  0.10566000000E+00 0.  1.
         22    1    1    0    0    0  0.15456892174E+02 -0.22260334654E+02  0.65451312957E+01  0.27879683611E+02  0.00000000000E+00 0. -1.
</event>
<event>
 5    1  0.6978980E-004  0.9118800E+02  0.7818608E-02  0.1130116E+00
         25   -1    0    0    0    0  0.00000000000E+00  0.00000000000E+00  0.99999998245E-14  0.12500000000E+03  0.12500000000E+03 0.  0.
        -13    1    3    3    0    0 -0.34757870734E+02 -0.37510246916E+02  0.18025913405E+02  0.54222439265E+02  0.10566000000E+00 0. -1.
         23    2    1    0    0    0 -0.23552217089E+02 -0.20412594039E+01 -0.84661737996E+01  0.99889249940E+02  0.96681500221E+02 0.  0.
         13    1    3    3    0    0  0.11205653645E+02  0.35468987513E+02 -0.26492087204E+02  0.45666810675E+02  0.10566000000E+00 0.  1.
         22    1    1    0    0    0  0.23552217089E+02  0.20412594039E+01  0.84661737996E+01  0.25110750060E+02  0.00000000000E+00 0.  1.
</event>
<event>
 5    1  0.6978980E-004  0.9118800E+02  0.7818608E-02  0.1130116E+00
         25   -1    0    0    0    0  0.00000000000E+00  0.00000000000E+00  0.99999998245E-14  0.12500000000E+03  0.12500000000E+03 0.  0.
        -13    1    3    3    0    0  0.23042638488E+02 -0.45975951891E+02 -0.18124725269E+02  0.54527682611E+02  0.10566000000E+00 0.  1.
         23    2    1    0    0    0  0.14211316134E+02 -0.75678576422E+01 -0.25712986892E+02  0.94662042414E+02  0.89668894292E+02 0.  0.
         13    1    3    3    0    0 -0.88313223538E+01  0.38408094249E+02 -0.75882616233E+01  0.40134359803E+02  0.10566000000E+00 0. -1.
         22    1    1    0    0    0 -0.14211316134E+02  0.75678576422E+01  0.25712986892E+02  0.30337957586E+02  0.00000000000E+00 0.  1.
</event>
<event>
 5    1  0.6978980E-004  0.9118800E+02  0.7818608E-02  0.1130116E+00
         25   -1    0    0    0    0  0.00000000000E+00  0.00000000000E+00  0.99999998245E-14  0.12500000000E+03  0.12500000000E+03 0.  0.
        -13    1    3    3    0    0  0.36776765997E+02 -0.27504255581E+01  0.46444489483E+02  0.59305961972E+02  0.10566000000E+00 0.  1.
         23    2    1    0    0    0  0.18304158989E+02 -0.15044727632E+02  0.18805273161E+02  0.94750630346E+02  0.89792302490E+02 0.  0.
         13    1    3    3    0    0 -0.18472607009E+02 -0.12294302074E+02 -0.27639216323E+02  0.35444668374E+02  0.10566000000E+00 0. -1.
         22    1    1    0    0    0 -0.18304158989E+02  0.15044727632E+02 -0.18805273161E+02  0.30249369654E+02  0.00000000000E+00 0.  1.
</event>
<event>
 5    1  0.6978980E-004  0.9118800E+02  0.7818608E-02  0.1130116E+00
         25   -1    0    0    0    0  0.00000000000E+00  0.00000000000E+00  0.99999998245E-14  0.12500000000E+03  0.12500000000E+03 0.  0.
        -13    1    3    3    0    0 -0.43315111007E+02  0.55904065679E+01 -0.24270427623E+02  0.49965150938E+02  0.10566000000E+00 0.  1.
         23    2    1    0    0    0 -0.16356236635E+02  0.22078314364E+02  0.92258621534E+01  0.96015608088E+02  0.91536342629E+02 0.  0.
         13    1    3    3    0    0  0.26958874372E+02  0.16487907796E+02  0.33496289776E+02  0.46050457150E+02  0.10566000000E+00 0. -1.
         22    1    1    0    0    0  0.16356236635E+02 -0.22078314364E+02 -0.92258621534E+01  0.28984391912E+02  0.00000000000E+00 0. -1.
</event>
<event>
 5    1  0.6978980E-004  0.9118800E+02  0.7818608E-02  0.1130116E+00
         25   -1    0    0    0    0  0.00000000000E+00  0.00000000000E+00  0.99999998245E-14  0.12500000000E+03  0.12500000000E+03 0.  0.
        -13    1    3    3    0    0  0.19645482147E+02  0.12153942865E+02 -0.54761462528E+02  0.59434772972E+02  0.10566000000E+00 0.  1.
         23    2    1    0    0    0  0.16168095155E+02 -0.61766380197E+01 -0.24048634989E+02  0.95370707012E+02  0.90651402378E+02 0.  0.
         13    1    3    3    0    0 -0.34773869921E+01 -0.18330580884E+02  0.30712827540E+02  0.35935934040E+02  0.10566000000E+00 0. -1.
         22    1    1    0    0    0 -0.16168095155E+02  0.61766380197E+01  0.24048634989E+02  0.29629292988E+02  0.00000000000E+00 0.  1.
</event>
<event>
 5    1  0.6978980E-004  0.9118800E+02  0.7818608E-02  0.1130116E+00
         25   -1    0    0    0    0  0.00000000000E+00  0.00000000000E+00  0.99999998245E-14  0.12500000000E+03  0.12500000000E+03 0.  0.
        -13    1    3    3    0    0  0.16257623920E+02 -0.18927163110E+02 -0.47964421127E+02  0.54066114129E+02  0.10566000000E+00 0.  1.
         23    2    1    0    0    0  0.12280003522E+02 -0.25870333425E+02 -0.73862340443E+01  0.95425871249E+02  0.90727436932E+02 0.  0.
         13    1    3    3    0    0 -0.39776203986E+01 -0.69431703154E+01  0.40578187083E+02  0.41359757120E+02  0.10566000000E+00 0. -1.
         22    1    1    0    0    0 -0.12280003522E+02  0.25870333425E+02  0.73862340443E+01  0.29574128751E+02  0.00000000000E+00 0.  1.
</event>
<event>
 5    1  0.6978980E-004  0.9118800E+02  0.7818608E-02  0.1130116E+00
         25   -1    0    0    0    0  0.00000000000E+00  0.00000000000E+00  0.99999998245E-14  0.12500000000E+03  0.12500000000E+03 0.  0.
        -13    1    3    3    0    0 -0.27544773792E+02 -0.18560612813E+02 -0.27190554394E+02  0.42924914951E+02  0.10566000000E+00 0.  1.
         23    2    1    0    0    0  0.19294740299E+02  0.35703264530E+01 -0.22805210146E+02  0.94914923235E+02  0.90020724329E+02 0.  0.
         13    1    3    3    0    0  0.46839514091E+02  0.22130939266E+02  0.43853442482E+01  0.51990008284E+02  0.10566000000E+00 0. -1.
         22    1    1    0    0    0 -0.19294740299E+02 -0.35703264530E+01  0.22805210146E+02  0.30085076765E+02  0.00000000000E+00 0. -1.
</event>
<event>
 5    1  0.6978980E-004  0.9118800E+02  0.7818608E-02  0.1130116E+00
         25   -1    0    0    0    0  0.00000000000E+00  0.00000000000E+00  0.99999998245E-14  0.12500000000E+03  0.12500000000E+03 0.  0.
        -13    1    3    3    0    0  0.60485438365E+02  0.38350270882E+00  0.52714945849E+01  0.60716020520E+02  0.10566000000E+00 0.  1.
         23    2    1    0    0    0  0.28399195815E+02  0.10565498934E+02  0.43203395070E+01  0.94392657350E+02  0.89292577169E+02 0.  0.
         13    1    3    3    0    0 -0.32086242551E+02  0.10181996225E+02 -0.95115507791E+00  0.33676636830E+02  0.10566000000E+00 0. -1.
         22    1    1    0    0    0 -0.28399195815E+02 -0.10565498934E+02 -0.43203395070E+01  0.30607342650E+02  0.00000000000E+00 0.  1.
</event>
<event>
 5    1  0.6978980E-004  0.9118800E+02  0.7818608E-02  0.1130116E+00
         25   -1    0    0    0    0  0.00000000000E+00  0.00000000000E+00  0.99999998245E-14  0.12500000000E+03  0.12500000000E+03 0.  0.
        -13    1    3    3    0    0 -0.42544242615E+02  0.36565055881E+01 -0.24256653985E+01  0.42770055289E+02  0.10566000000E+00 0. -1.
         23    2    1    0    0    0  0.20565216024E+00  0.18928509899E+02 -0.25138807983E+02  0.93531119394E+02  0.88078259795E+02 0.  0.
         13    1    3    3    0    0  0.42749894775E+02  0.15272004311E+02 -0.22713142584E+02  0.50761064105E+02  0.10566000000E+00 0.  1.
         22    1    1    0    0    0 -0.20565216024E+00 -0.18928509899E+02  0.25138807983E+02  0.31468880606E+02  0.00000000000E+00 0.  1.
</event>
<event>
 5    1  0.6978980E-004  0.9118800E+02  0.7818608E-02  0.1130116E+00
         25   -1    0    0    0    0  0.00000000000E+00  0.00000000000E+00  0.99999998245E-14  0.12500000000E+03  0.12500000000E+03 0.  0.
        -13    1    3    3    0    0  0.50958167759E+01 -0.30356807423E+02 -0.47661003194E+02  0.56736985248E+02  0.10566000000E+00 0.  1.
         23    2    1    0    0    0 -0.62680676523E+00 -0.30379049050E+02 -0.12860602451E+02  0.92004930622E+02  0.85884996684E+02 0.  0.
         13    1    3    3    0    0 -0.57226235411E+01 -0.22241626457E-01  0.34800400744E+02  0.35267945373E+02  0.10566000000E+00 0. -1.
         22    1    1    0    0    0  0.62680676523E+00  0.30379049050E+02  0.12860602451E+02  0.32995069378E+02  0.00000000000E+00 0.  1.
</event>
<event>
 5    1  0.6978980E-004  0.9118800E+02  0.7818608E-02  0.1130116E+00
         25   -1    0    0    0    0  0.00000000000E+00  0.00000000000E+00  0.99999998245E-14  0.12500000000E+03  0.12500000000E+03 0.  0.
        -13    1    3    3    0    0  0.11695448375E+02 -0.13474413956E+02 -0.42525890706E+02  0.46117305738E+02  0.10566000000E+00 0.  1.
         23    2    1    0    0    0 -0.25973837116E+02  0.95132303509E+00 -0.14466903688E+02  0.95253798018E+02  0.90490051965E+02 0.  0.
         13    1    3    3    0    0 -0.37669285491E+02  0.14425736991E+02  0.28058987018E+02  0.49136492280E+02  0.10566000000E+00 0. -1.
         22    1    1    0    0    0  0.25973837116E+02 -0.95132303509E+00  0.14466903688E+02  0.29746201982E+02  0.00000000000E+00 0. -1.
</event>
<event>
 5    1  0.6978980E-004  0.9118800E+02  0.7818608E-02  0.1130116E+00
         25   -1    0    0    0    0  0.00000000000E+00  0.00000000000E+00  0.99999998245E-14  0.12500000000E+03  0.12500000000E+03 0.  0.
        -13    1    3    3    0    0  0.11956574456E+02 -0.82249693173E+01  0.43670430181E+02  0.46018772574E+02  0.10566000000E+00 0.  1.
         23    2    1    0    0    0 -0.12543252442E+02  0.22612306404E+02  0.12326247426E+02  0.96354128424E+02  0.91997457063E+02 0.  0.
         13    1    3    3    0    0 -0.24499826898E+02  0.30837275721E+02 -0.31344182755E+02  0.50335355850E+02  0.10566000000E+00 0. -1.
         22    1    1    0    0    0  0.12543252442E+02 -0.22612306404E+02 -0.12326247426E+02  0.28645871576E+02  0.00000000000E+00 0. -1.
</event>
<event>
 5    1  0.6978980E-004  0.9118800E+02  0.7818608E-02  0.1130116E+00
         25   -1    0    0    0    0  0.00000000000E+00  0.00000000000E+00  0.99999998245E-14  0.12500000000E+03  0.12500000000E+03 0.  0.
        -13    1    3    3    0    0 -0.25343297060E+02  0.10789913283E+02 -0.20069474988E+02  0.34080785274E+02  0.10566000000E+00 0.  1.
         23    2    1    0    0    0  0.22210511450E+02  0.26913396802E+01  0.18599753004E+02  0.95905310794E+02  0.91385598967E+02 0.  0.
         13    1    3    3    0    0  0.47553808510E+02 -0.80985736032E+01  0.38669227993E+02  0.61824525520E+02  0.10566000000E+00 0. -1.
         22    1    1    0    0    0 -0.22210511450E+02 -0.26913396802E+01 -0.18599753004E+02  0.29094689206E+02  0.00000000000E+00 0. -1.
</event>
<event>
 5    1  0.6978980E-004  0.9118800E+02  0.7818608E-02  0.1130116E+00
         25   -1    0    0    0    0  0.00000000000E+00  0.00000000000E+00  0.99999998245E-14  0.12500000000E+03  0.12500000000E+03 0.  0.
        -13    1    3    3    0    0 -0.52609258051E+01 -0.44752160543E+02  0.12861164051E+01  0.45078802923E+02  0.10566000000E+00 0.  1.
         23    2    1    0    0    0  0.28486071254E+02 -0.73651292800E+01 -0.16620330293E+01  0.95530291169E+02  0.90871187911E+02 0.  0.
         13    1    3    3    0    0  0.33746997059E+02  0.37387031263E+02 -0.29481494344E+01  0.50451488246E+02  0.10566000000E+00 0. -1.
         22    1    1    0    0    0 -0.28486071254E+02  0.73651292800E+01  0.16620330293E+01  0.29469708831E+02  0.00000000000E+00 0. -1.
</event>
<event>
 5    1  0.6978980E-004  0.9118800E+02  0.7818608E-02  0.1130116E+00
         25   -1    0    0    0    0  0.00000000000E+00  0.00000000000E+00  0.99999998245E-14  0.12500000000E+03  0.12500000000E+03 0.  0.
        -13    1    3    3    0    0  0.11593981205E+02 -0.40474680989E+02 -0.41776742606E+02  0.59312120078E+02  0.10566000000E+00 0.  1.
         23    2    1    0    0    0  0.12723863081E+01 -0.73589275830E+01 -0.26948555770E+02  0.97035782861E+02  0.92919027736E+02 0.  0.
         13    1    3    3    0    0 -0.10321594897E+02  0.33115753406E+02  0.14828186836E+02  0.37723662783E+02  0.10566000000E+00 0. -1.
         22    1    1    0    0    0 -0.12723863081E+01  0.73589275830E+01  0.26948555770E+02  0.27964217139E+02  0.00000000000E+00 0.  1.
</event>
<event>
 5    1  0.6978980E-004  0.9118800E+02  0.7818608E-02  0.1130116E+00
         25   -1    0    0    0    0  0.00000000000E+00  0.00000000000E+00  0.99999998245E-14  0.12500000000E+03  0.12500000000E+03 0.  0.
        -13    1    3    3    0    0 -0.69890469787E+01 -0.54174460422E+02 -0.27798762040E+02  0.61290303268E+02  0.10566000000E+00 0. -1.
         23    2    1    0    0    0  0.51682841042E+01 -0.24730099786E+02 -0.96334725897E+01  0.97961272401E+02  0.94155818197E+02 0.  0.
         13    1    3    3    0    0  0.12157331083E+02  0.29444360636E+02  0.18165289450E+02  0.36670969133E+02  0.10566000000E+00 0.  1.
         22    1    1    0    0    0 -0.51682841042E+01  0.24730099786E+02  0.96334725897E+01  0.27038727599E+02  0.00000000000E+00 0. -1.
</event>
<event>
 5    1  0.6978980E-004  0.9118800E+02  0.7818608E-02  0.1130116E+00
         25   -1    0    0    0    0  0.00000000000E+00  0.00000000000E+00  0.99999998245E-14  0.12500000000E+03  0.12500000000E+03 0.  0.
        -13    1    3    3    0    0  0.76937145308E+01  0.24649924434E+02  0.16642106310E+02  0.30721049532E+02  0.10566000000E+00 0.  1.
         23    2    1    0    0    0 -0.16171773045E+02 -0.19776817532E+02  0.32568473782E+02  0.83607316594E+02  0.72641786517E+02 0.  0.
         13    1    3    3    0    0 -0.23865487576E+02 -0.44426741965E+02  0.15926367471E+02  0.52886267062E+02  0.10566000000E+00 0. -1.
         22    1    1    0    0    0  0.16171773045E+02  0.19776817532E+02 -0.32568473782E+02  0.41392683406E+02  0.00000000000E+00 0. -1.
</event>
<event>
 5    1  0.6978980E-004  0.9118800E+02  0.7818608E-02  0.1130116E+00
         25   -1    0    0    0    0  0.00000000000E+00  0.00000000000E+00  0.99999998245E-14  0.12500000000E+03  0.12500000000E+03 0.  0.
        -13    1    3    3    0    0 -0.24417872713E+02  0.23013462629E+02 -0.19369701894E+02  0.38743366988E+02  0.10566000000E+00 0. -1.
         23    2    1    0    0    0  0.15838065680E+02 -0.15752677744E+02 -0.20556120676E+02  0.94643035761E+02  0.89642394770E+02 0.  0.
         13    1    3    3    0    0  0.40255938393E+02 -0.38766140373E+02 -0.11864187820E+01  0.55899668773E+02  0.10566000000E+00 0.  1.
         22    1    1    0    0    0 -0.15838065680E+02  0.15752677744E+02  0.20556120676E+02  0.30356964239E+02  0.00000000000E+00 0.  1.
</event>
<event>
 5    1  0.6978980E-004  0.9118800E+02  0.7818608E-02  0.1130116E+00
         25   -1    0    0    0    0  0.00000000000E+00  0.00000000000E+00  0.99999998245E-14  0.12500000000E+03  0.12500000000E+03 0.  0.
        -13    1    3    3    0    0 -0.28322616781E+02  0.25101938386E+02 -0.22009927495E+02  0.43780429468E+02  0.10566000000E+00 0. -1.
         23    2    1    0    0    0 -0.20297635236E+02 -0.22126549471E+02 -0.53460029737E+01  0.94501509292E+02  0.89444828375E+02 0.  0.
         13    1    3    3    0    0  0.80249815446E+01 -0.47228487857E+02  0.16663924521E+02  0.50721079824E+02  0.10566000000E+00 0.  1.
         22    1    1    0    0    0  0.20297635236E+02  0.22126549471E+02  0.53460029737E+01  0.30498490708E+02  0.00000000000E+00 0. -1.
</event>
<event>
 5    1  0.6978980E-004  0.9118800E+02  0.7818608E-02  0.1130116E+00
         25   -1    0    0    0    0  0.00000000000E+00  0.00000000000E+00  0.99999998245E-14  0.12500000000E+03  0.12500000000E+03 0.  0.
        -13    1    3    3    0    0  0.18533470880E+02 -0.11221403470E+02  0.33685793205E+02  0.40051882185E+02  0.10566000000E+00 0.  1.
         23    2    1    0    0    0  0.18686351309E+02 -0.28553757079E+01 -0.21788829730E+02  0.96154099136E+02  0.91725267968E+02 0.  0.
         13    1    3    3    0    0  0.15288042897E+00  0.83660277621E+01 -0.55474622935E+02  0.56102216951E+02  0.10566000000E+00 0. -1.
         22    1    1    0    0    0 -0.18686351309E+02  0.28553757079E+01  0.21788829730E+02  0.28845900864E+02  0.00000000000E+00 0. -1.
</event>
<event>
 5    1  0.6978980E-004  0.9118800E+02  0.7818608E-02  0.1130116E+00
         25   -1    0    0    0    0  0.00000000000E+00  0.00000000000E+00  0.99999998245E-14  0.12500000000E+03  0.12500000000E+03 0.  0.
        -13    1    3    3    0    0 -0.88488423207E+00  0.26515226544E+02 -0.21706596474E+02  0.34278677823E+02  0.10566000000E+00 0.  1.
         23    2    1    0    0    0  0.37493553871E+01 -0.30518065493E+02 -0.53633833620E+01  0.93788209466E+02  0.88442367486E+02 0.  0.
         13    1    3    3    0    0  0.46342396191E+01 -0.57033292037E+02  0.16343213112E+02  0.59509531643E+02  0.10566000000E+00 0. -1.
         22    1    1    0    0    0 -0.37493553871E+01  0.30518065493E+02  0.53633833620E+01  0.31211790534E+02  0.00000000000E+00 0. -1.
</event>
<event>
 5    1  0.6978980E-004  0.9118800E+02  0.7818608E-02  0.1130116E+00
         25   -1    0    0    0    0  0.00000000000E+00  0.00000000000E+00  0.99999998245E-14  0.12500000000E+03  0.12500000000E+03 0.  0.
        -13    1    3    3    0    0 -0.11021626737E+01 -0.62003104855E+02 -0.64792224770E+01  0.62350551418E+02  0.10566000000E+00 0.  1.
         23    2    1    0    0    0 -0.17900771514E+01 -0.13395520150E+02  0.57983598749E+00  0.11147296980E+03  0.11064918639E+03 0.  0.
         13    1    3    3    0    0 -0.68791447764E+00  0.48607584705E+02  0.70590584644E+01  0.49122418381E+02  0.10566000000E+00 0. -1.
         22    1    1    0    0    0  0.17900771514E+01  0.13395520150E+02 -0.57983598749E+00  0.13527030201E+02  0.00000000000E+00 0.  1.
</event>
<event>
 5    1  0.6978980E-004  0.9118800E+02  0.7818608E-02  0.1130116E+00
         25   -1    0    0    0    0  0.00000000000E+00  0.00000000000E+00  0.99999998245E-14  0.12500000000E+03  0.12500000000E+03 0.  0.
        -13    1    3    3    0    0  0.50663792877E+02 -0.11540127451E+02 -0.82225892263E+01  0.52608141840E+02  0.10566000000E+00 0.  1.
         23    2    1    0    0    0  0.55152810046E+01 -0.24321743821E+02 -0.42761574242E+01  0.99696817011E+02  0.96432381764E+02 0.  0.
         13    1    3    3    0    0 -0.45148511872E+02 -0.12781616370E+02  0.39464318021E+01  0.47088675171E+02  0.10566000000E+00 0. -1.
         22    1    1    0    0    0 -0.55152810046E+01  0.24321743821E+02  0.42761574242E+01  0.25303182989E+02  0.00000000000E+00 0. -1.
</event>
<event>
 5    1  0.6978980E-004  0.9118800E+02  0.7818608E-02  0.1130116E+00
         25   -1    0    0    0    0  0.00000000000E+00  0.00000000000E+00  0.99999998245E-14  0.12500000000E+03  0.12500000000E+03 0.  0.
        -13    1    3    3    0    0  0.49509956427E+01  0.14768384105E+01  0.59020626352E+02  0.59246425281E+02  0.10566000000E+00 0. -1.
         23    2    1    0    0    0 -0.10809209430E+02  0.62879432979E+01  0.25711309818E+02  0.96408940349E+02  0.92071901725E+02 0.  0.
         13    1    3    3    0    0 -0.15760205073E+02  0.48111048874E+01 -0.33309316534E+02  0.37162515068E+02  0.10566000000E+00 0.  1.
         22    1    1    0    0    0  0.10809209430E+02 -0.62879432979E+01 -0.25711309818E+02  0.28591059651E+02  0.00000000000E+00 0. -1.
</event>
<event>
 5    1  0.6978980E-004  0.9118800E+02  0.7818608E-02  0.1130116E+00
         25   -1    0    0    0    0  0.00000000000E+00  0.00000000000E+00  0.99999998245E-14  0.12500000000E+03  0.12500000000E+03 0.  0.
        -13    1    3    3    0    0  0.17800873764E+02 -0.52993034593E+02  0.19522362559E+01  0.55937064747E+02  0.10566000000E+00 0.  1.
         23    2    1    0    0    0  0.22090951120E+02 -0.15758770673E+02 -0.11179381354E+02  0.95651617728E+02  0.91037928535E+02 0.  0.
         13    1    3    3    0    0  0.42900773557E+01  0.37234263919E+02 -0.13131617610E+02  0.39714552980E+02  0.10566000000E+00 0. -1.
         22    1    1    0    0    0 -0.22090951120E+02  0.15758770673E+02  0.11179381354E+02  0.29348382272E+02  0.00000000000E+00 0.  1.
</event>
<event>
 5    1  0.6978980E-004  0.9118800E+02  0.7818608E-02  0.1130116E+00
         25   -1    0    0    0    0  0.00000000000E+00  0.00000000000E+00  0.99999998245E-14  0.12500000000E+03  0.12500000000E+03 0.  0.
        -13    1    3    3    0    0  0.56562909725E+02  0.16008301485E+02  0.12938659454E+02  0.60191764765E+02  0.10566000000E+00 0. -1.
         23    2    1    0    0    0  0.24787180482E+02  0.13176958900E+02 -0.45326434919E+01  0.96564433906E+02  0.92282763702E+02 0.  0.
         13    1    3    3    0    0 -0.31775729243E+02 -0.28313425850E+01 -0.17471302946E+02  0.36372669141E+02  0.10566000000E+00 0.  1.
         22    1    1    0    0    0 -0.24787180482E+02 -0.13176958900E+02  0.45326434919E+01  0.28435566094E+02  0.00000000000E+00 0. -1.
</event>
<event>
 5    1  0.6978980E-004  0.9118800E+02  0.7818608E-02  0.1130116E+00
         25   -1    0    0    0    0  0.00000000000E+00  0.00000000000E+00  0.99999998245E-14  0.12500000000E+03  0.12500000000E+03 0.  0.
        -13    1    3    3    0    0 -0.56298262994E+01 -0.64070042631E+01 -0.38429493162E+02  0.39364727314E+02  0.10566000000E+00 0. -1.
         23    2    1    0    0    0  0.24151576632E+02 -0.16643253459E+02  0.71925017789E+01  0.94800188389E+02  0.89861265833E+02 0.  0.
         13    1    3    3    0    0  0.29781402932E+02 -0.10236249195E+02  0.45621994941E+02  0.55435461075E+02  0.10566000000E+00 0.  1.
         22    1    1    0    0    0 -0.24151576632E+02  0.16643253459E+02 -0.71925017789E+01  0.30199811611E+02  0.00000000000E+00 0.  1.
</event>
<event>
 5    1  0.6978980E-004  0.9118800E+02  0.7818608E-02  0.1130116E+00
         25   -1    0    0    0    0  0.00000000000E+00  0.00000000000E+00  0.99999998245E-14  0.12500000000E+03  0.12500000000E+03 0.  0.
        -13    1    3    3    0    0  0.68590409482E+01 -0.49487586183E+02  0.34879364131E+02  0.60931509378E+02  0.10566000000E+00 0.  1.
         23    2    1    0    0    0 -0.69268068304E+01 -0.20447816783E+02  0.13517418571E+02  0.99528163221E+02  0.96213516750E+02 0.  0.
         13    1    3    3    0    0 -0.13785847779E+02  0.29039769400E+02 -0.21361945559E+02  0.38596653843E+02  0.10566000000E+00 0. -1.
         22    1    1    0    0    0  0.69268068304E+01  0.20447816783E+02 -0.13517418571E+02  0.25471836779E+02  0.00000000000E+00 0.  1.
</event>
<event>
 5    1  0.6978980E-004  0.9118800E+02  0.7818608E-02  0.1130116E+00
         25   -1    0    0    0    0  0.00000000000E+00  0.00000000000E+00  0.99999998245E-14  0.12500000000E+03  0.12500000000E+03 0.  0.
        -13    1    3    3    0    0 -0.16609815241E+02 -0.24051644102E+02 -0.33501558416E+02  0.44460467009E+02  0.10566000000E+00 0.  1.
         23    2    1    0    0    0 -0.20513620944E+02  0.15253506646E+02  0.42351349299E+01  0.99088333186E+02  0.95640385279E+02 0.  0.
         13    1    3    3    0    0 -0.39038057026E+01  0.39305150748E+02  0.37736693346E+02  0.54627866176E+02  0.10566000000E+00 0. -1.
         22    1    1    0    0    0  0.20513620944E+02 -0.15253506646E+02 -0.42351349299E+01  0.25911666814E+02  0.00000000000E+00 0. -1.
</event>
<event>
 5    1  0.6978980E-004  0.9118800E+02  0.7818608E-02  0.1130116E+00
         25   -1    0    0    0    0  0.00000000000E+00  0.00000000000E+00  0.99999998245E-14  0.12500000000E+03  0.12500000000E+03 0.  0.
        -13    1    3    3    0    0 -0.18743120580E+02  0.51685682305E+02 -0.71873107906E+00  0.54984016430E+02  0.10566000000E+00 0.  1.
         23    2    1    0    0    0 -0.16435558612E+02  0.17851264612E+02  0.18971401199E+02  0.94198875043E+02  0.89020889463E+02 0.  0.
         13    1    3    3    0    0  0.23075619681E+01 -0.33834417693E+02  0.19690132279E+02  0.39214858613E+02  0.10566000000E+00 0. -1.
         22    1    1    0    0    0  0.16435558612E+02 -0.17851264612E+02 -0.18971401199E+02  0.30801124957E+02  0.00000000000E+00 0.  1.
</event>
<event>
 5    1  0.6978980E-004  0.9118800E+02  0.7818608E-02  0.1130116E+00
         25   -1    0    0    0    0  0.00000000000E+00  0.00000000000E+00  0.99999998245E-14  0.12500000000E+03  0.12500000000E+03 0.  0.
        -13    1    3    3    0    0  0.13160433147E+02  0.27100104154E+02  0.28117063305E+02  0.41209138049E+02  0.10566000000E+00 0. -1.
         23    2    1    0    0    0 -0.28095789397E+02  0.65967075219E+01 -0.17059134787E+01  0.96089792931E+02  0.91637591810E+02 0.  0.
         13    1    3    3    0    0 -0.41256222544E+02 -0.20503396632E+02 -0.29822976784E+02  0.54880654882E+02  0.10566000000E+00 0.  1.
         22    1    1    0    0    0  0.28095789397E+02 -0.65967075219E+01  0.17059134787E+01  0.28910207069E+02  0.00000000000E+00 0.  1.
</event>
<event>
 5    1  0.6978980E-004  0.9118800E+02  0.7818608E-02  0.1130116E+00
         25   -1    0    0    0    0  0.00000000000E+00  0.00000000000E+00  0.99999998245E-14  0.12500000000E+03  0.12500000000E+03 0.  0.
        -13    1    3    3    0    0 -0.17358620127E+02  0.44610537108E+02 -0.23633156549E+02  0.53385006943E+02  0.10566000000E+00 0. -1.
         23    2    1    0    0    0  0.29023951018E+01  0.26687968393E+02  0.98275205973E+01  0.96412385280E+02  0.92076578564E+02 0.  0.
         13    1    3    3    0    0  0.20261015229E+02 -0.17922568715E+02  0.33460677146E+02  0.43027378337E+02  0.10566000000E+00 0.  1.
         22    1    1    0    0    0 -0.29023951018E+01 -0.26687968393E+02 -0.98275205973E+01  0.28587614720E+02  0.00000000000E+00 0. -1.
</event>
<event>
 5    1  0.6978980E-004  0.9118800E+02  0.7818608E-02  0.1130116E+00
         25   -1    0    0    0    0  0.00000000000E+00  0.00000000000E+00  0.99999998245E-14  0.12500000000E+03  0.12500000000E+03 0.  0.
        -13    1    3    3    0    0  0.10392170818E+01  0.41280614188E+02 -0.38494161330E+02  0.56453349771E+02  0.10566000000E+00 0. -1.
         23    2    1    0    0    0  0.94117524833E+01  0.24358529164E+02 -0.41890481082E+02  0.75636740048E+02  0.57307809346E+02 0.  0.
         13    1    3    3    0    0  0.83725354015E+01 -0.16922085024E+02 -0.33963197521E+01  0.19183390277E+02  0.10566000000E+00 0.  1.
         22    1    1    0    0    0 -0.94117524833E+01 -0.24358529164E+02  0.41890481082E+02  0.49363259952E+02  0.00000000000E+00 0. -1.
</event>
<event>
 5    1  0.6978980E-004  0.9118800E+02  0.7818608E-02  0.1130116E+00
         25   -1    0    0    0    0  0.00000000000E+00  0.00000000000E+00  0.99999998245E-14  0.12500000000E+03  0.12500000000E+03 0.  0.
        -13    1    3    3    0    0  0.42962441216E+02  0.20991294408E+02 -0.36361278497E+02  0.60071287102E+02  0.10566000000E+00 0. -1.
         23    2    1    0    0    0  0.11017355016E+02  0.18121995765E+02 -0.18911231906E+02  0.96584800999E+02  0.92310347469E+02 0.  0.
         13    1    3    3    0    0 -0.31945086200E+02 -0.28692986431E+01  0.17450046590E+02  0.36513513897E+02  0.10566000000E+00 0.  1.
         22    1    1    0    0    0 -0.11017355016E+02 -0.18121995765E+02  0.18911231906E+02  0.28415199001E+02  0.00000000000E+00 0. -1.
</event>
<event>
 5    1  0.6978980E-004  0.9118800E+02  0.7818608E-02  0.1130116E+00
         25   -1    0    0    0    0  0.00000000000E+00  0.00000000000E+00  0.99999998245E-14  0.12500000000E+03  0.12500000000E+03 0.  0.
        -13    1    3    3    0    0  0.35878973849E+01  0.36339475536E+02  0.20963345512E+02  0.42105860744E+02  0.10566000000E+00 0.  1.
         23    2    1    0    0    0  0.30213126805E+02  0.12782663240E+01 -0.66005726739E+01  0.94047866701E+02  0.88808595728E+02 0.  0.
         13    1    3    3    0    0  0.26625229420E+02 -0.35061209212E+02 -0.27563918186E+02  0.51942005957E+02  0.10566000000E+00 0. -1.
         22    1    1    0    0    0 -0.30213126805E+02 -0.12782663240E+01  0.66005726739E+01  0.30952133299E+02  0.00000000000E+00 0. -1.
</event>
<event>
 5    1  0.6978980E-004  0.9118800E+02  0.7818608E-02  0.1130116E+00
         25   -1    0    0    0    0  0.00000000000E+00  0.00000000000E+00  0.99999998245E-14  0.12500000000E+03  0.12500000000E+03 0.  0.
        -13    1    3    3    0    0  0.46205856502E+02 -0.88991016595E+01 -0.94379796426E+01  0.47992309896E+02  0.10566000000E+00 0. -1.
         23    2    1    0    0    0  0.17131479022E+02  0.13108857604E+02  0.20552016800E+02  0.95205451578E+02  0.90423243109E+02 0.  0.
         13    1    3    3    0    0 -0.29074377480E+02  0.22007959263E+02  0.29989996442E+02  0.47213141681E+02  0.10566000000E+00 0.  1.
         22    1    1    0    0    0 -0.17131479022E+02 -0.13108857604E+02 -0.20552016800E+02  0.29794548422E+02  0.00000000000E+00 0.  1.
</event>
<event>
 5    1  0.6978980E-004  0.9118800E+02  0.7818608E-02  0.1130116E+00
         25   -1    0    0    0    0  0.00000000000E+00  0.00000000000E+00  0.99999998245E-14  0.12500000000E+03  0.12500000000E+03 0.  0.
        -13    1    3    3    0    0  0.12882300450E+01  0.34085570940E+02 -0.26664408136E+02  0.43295352039E+02  0.10566000000E+00 0. -1.
         23    2    1    0    0    0 -0.19770613087E+02  0.13345571920E+02  0.16776265759E+02  0.95837960900E+02  0.91293429254E+02 0.  0.
         13    1    3    3    0    0 -0.21058843132E+02 -0.20739999020E+02  0.43440673895E+02  0.52542608860E+02  0.10566000000E+00 0.  1.
         22    1    1    0    0    0  0.19770613087E+02 -0.13345571920E+02 -0.16776265759E+02  0.29162039100E+02  0.00000000000E+00 0.  1.
</event>
<event>
 5    1  0.6978980E-004  0.9118800E+02  0.7818608E-02  0.1130116E+00
         25   -1    0    0    0    0  0.00000000000E+00  0.00000000000E+00  0.99999998245E-14  0.12500000000E+03  0.12500000000E+03 0.  0.
        -13    1    3    3    0    0  0.28688388522E+02  0.18684791465E+02 -0.85872369850E+01  0.35297264358E+02  0.10566000000E+00 0.  1.
         23    2    1    0    0    0 -0.39661799030E+01 -0.21941279170E+02  0.20262405881E+02  0.94871684303E+02  0.89960664047E+02 0.  0.
         13    1    3    3    0    0 -0.32654568425E+02 -0.40626070635E+02  0.28849642866E+02  0.59574419945E+02  0.10566000000E+00 0. -1.
         22    1    1    0    0    0  0.39661799030E+01  0.21941279170E+02 -0.20262405881E+02  0.30128315697E+02  0.00000000000E+00 0. -1.
</event>
<event>
 5    1  0.6978980E-004  0.9118800E+02  0.7818608E-02  0.1130116E+00
         25   -1    0    0    0    0  0.00000000000E+00  0.00000000000E+00  0.99999998245E-14  0.12500000000E+03  0.12500000000E+03 0.  0.
        -13    1    3    3    0    0 -0.56997393541E+02  0.93088865708E+01  0.63247926281E+01  0.58097955261E+02  0.10566000000E+00 0.  1.
         23    2    1    0    0    0 -0.26491489318E+02 -0.11857742149E+02  0.66248677889E+01  0.95229310919E+02  0.90456219961E+02 0.  0.
         13    1    3    3    0    0  0.30505904223E+02 -0.21166628720E+02  0.30007516086E+00  0.37131355658E+02  0.10566000000E+00 0. -1.
         22    1    1    0    0    0  0.26491489318E+02  0.11857742149E+02 -0.66248677889E+01  0.29770689081E+02  0.00000000000E+00 0.  1.
</event>
<event>
 5    1  0.6978980E-004  0.9118800E+02  0.7818608E-02  0.1130116E+00
         25   -1    0    0    0    0  0.00000000000E+00  0.00000000000E+00  0.99999998245E-14  0.12500000000E+03  0.12500000000E+03 0.  0.
        -13    1    3    3    0    0  0.11963474511E+02 -0.31670092127E+02 -0.34211035324E+01  0.34026968292E+02  0.10566000000E+00 0. -1.
         23    2    1    0    0    0  0.21305429799E+02  0.23048790332E+02  0.11605819191E+02  0.91535644130E+02  0.85199243146E+02 0.  0.
         13    1    3    3    0    0  0.93419552873E+01  0.54718882459E+02  0.15026922724E+02  0.57508675839E+02  0.10566000000E+00 0.  1.
         22    1    1    0    0    0 -0.21305429799E+02 -0.23048790332E+02 -0.11605819191E+02  0.33464355870E+02  0.00000000000E+00 0.  1.
</event>
<event>
 5    1  0.6978980E-004  0.9118800E+02  0.7818608E-02  0.1130116E+00
         25   -1    0    0    0    0  0.00000000000E+00  0.00000000000E+00  0.99999998245E-14  0.12500000000E+03  0.12500000000E+03 0.  0.
        -13    1    3    3    0    0  0.75500429387E+01  0.14907500828E+02  0.31506552420E+02  0.35663857597E+02  0.10566000000E+00 0.  1.
         23    2    1    0    0    0 -0.17043238348E+02  0.30790266598E+01 -0.22756323723E+02  0.96402751042E+02  0.92063498524E+02 0.  0.
         13    1    3    3    0    0 -0.24593281287E+02 -0.11828474168E+02 -0.54262876143E+02  0.60738893445E+02  0.10566000000E+00 0. -1.
         22    1    1    0    0    0  0.17043238348E+02 -0.30790266598E+01  0.22756323723E+02  0.28597248958E+02  0.00000000000E+00 0. -1.
</event>
<event>
 5    1  0.6978980E-004  0.9118800E+02  0.7818608E-02  0.1130116E+00
         25   -1    0    0    0    0  0.00000000000E+00  0.00000000000E+00  0.99999998245E-14  0.12500000000E+03  0.12500000000E+03 0.  0.
        -13    1    3    3    0    0 -0.55021265002E+01 -0.52624603912E+02  0.14300695836E+02  0.54810066579E+02  0.10566000000E+00 0. -1.
         23    2    1    0    0    0  0.80130372613E+01 -0.14855924315E+02  0.23597175981E+02  0.95987348144E+02  0.91497743339E+02 0.  0.
         13    1    3    3    0    0  0.13515163761E+02  0.37768679597E+02  0.92964801457E+01  0.41177281566E+02  0.10566000000E+00 0.  1.
         22    1    1    0    0    0 -0.80130372613E+01  0.14855924315E+02 -0.23597175981E+02  0.29012651856E+02  0.00000000000E+00 0. -1.
</event>
<event>
 5    1  0.6978980E-004  0.9118800E+02  0.7818608E-02  0.1130116E+00
         25   -1    0    0    0    0  0.00000000000E+00  0.00000000000E+00  0.99999998245E-14  0.12500000000E+03  0.12500000000E+03 0.  0.
        -13    1    3    3    0    0 -0.27033676711E+02  0.39042462821E+02 -0.24033729529E+01  0.47549142423E+02  0.10566000000E+00 0.  1.
         23    2    1    0    0    0 -0.30349150641E+02 -0.68493081748E+01  0.23127981905E+01  0.93801714749E+02  0.88461453115E+02 0.  0.
         13    1    3    3    0    0 -0.33154739307E+01 -0.45891770995E+02  0.47161711434E+01  0.46252572326E+02  0.10566000000E+00 0. -1.
         22    1    1    0    0    0  0.30349150641E+02  0.68493081748E+01 -0.23127981905E+01  0.31198285251E+02  0.00000000000E+00 0. -1.
</event>
<event>
 5    1  0.6978980E-004  0.9118800E+02  0.7818608E-02  0.1130116E+00
         25   -1    0    0    0    0  0.00000000000E+00  0.00000000000E+00  0.99999998245E-14  0.12500000000E+03  0.12500000000E+03 0.  0.
        -13    1    3    3    0    0 -0.15673839215E+02  0.14309299495E+02  0.38548344619E+02  0.44004673896E+02  0.10566000000E+00 0.  1.
         23    2    1    0    0    0  0.13149607588E+01 -0.26694245029E+02  0.16814033237E+02  0.93424320226E+02  0.87926560586E+02 0.  0.
         13    1    3    3    0    0  0.16988799974E+02 -0.41003544524E+02 -0.21734311382E+02  0.49419646330E+02  0.10566000000E+00 0. -1.
         22    1    1    0    0    0 -0.13149607588E+01  0.26694245029E+02 -0.16814033237E+02  0.31575679774E+02  0.00000000000E+00 0.  1.
</event>
<event>
 5    1  0.6978980E-004  0.9118800E+02  0.7818608E-02  0.1130116E+00
         25   -1    0    0    0    0  0.00000000000E+00  0.00000000000E+00  0.99999998245E-14  0.12500000000E+03  0.12500000000E+03 0.  0.
        -13    1    3    3    0    0  0.56754762840E+01  0.25456566623E+02  0.26172015409E+02  0.36949064533E+02  0.10566000000E+00 0.  1.
         23    2    1    0    0    0  0.46041986061E+01  0.24722867643E+01 -0.28373551483E+02  0.96149189433E+02  0.91718576952E+02 0.  0.
         13    1    3    3    0    0 -0.10712776779E+01 -0.22984279858E+02 -0.54545566892E+02  0.59200124899E+02  0.10566000000E+00 0. -1.
         22    1    1    0    0    0 -0.46041986061E+01 -0.24722867643E+01  0.28373551483E+02  0.28850810567E+02  0.00000000000E+00 0. -1.
</event>
<event>
 5    1  0.6978980E-004  0.9118800E+02  0.7818608E-02  0.1130116E+00
         25   -1    0    0    0    0  0.00000000000E+00  0.00000000000E+00  0.99999998245E-14  0.12500000000E+03  0.12500000000E+03 0.  0.
        -13    1    3    3    0    0 -0.43274424910E+02 -0.34599725137E+02  0.23053742979E+02  0.60010857852E+02  0.10566000000E+00 0.  1.
         23    2    1    0    0    0 -0.17995207576E+02 -0.23728948777E+02  0.11239063799E+01  0.95198092825E+02  0.90413069886E+02 0.  0.
         13    1    3    3    0    0  0.25279217334E+02  0.10870776360E+02 -0.21929836599E+02  0.35187234972E+02  0.10566000000E+00 0. -1.
         22    1    1    0    0    0  0.17995207576E+02  0.23728948777E+02 -0.11239063799E+01  0.29801907175E+02  0.00000000000E+00 0.  1.
</event>
<event>
 5    1  0.6978980E-004  0.9118800E+02  0.7818608E-02  0.1130116E+00
         25   -1    0    0    0    0  0.00000000000E+00  0.00000000000E+00  0.99999998245E-14  0.12500000000E+03  0.12500000000E+03 0.  0.
        -13    1    3    3    0    0  0.52882489276E+02  0.27629447842E+01 -0.14491233518E+02  0.54901717176E+02  0.10566000000E+00 0. -1.
         23    2    1    0    0    0  0.27589796113E+02 -0.16569568212E+01  0.14631223777E+02  0.93726767601E+02  0.88355485966E+02 0.  0.
         13    1    3    3    0    0 -0.25292693163E+02 -0.44199016053E+01  0.29122457295E+02  0.38825050425E+02  0.10566000000E+00 0.  1.
         22    1    1    0    0    0 -0.27589796113E+02  0.16569568212E+01 -0.14631223777E+02  0.31273232399E+02  0.00000000000E+00 0. -1.
</event>
<event>
 5    1  0.6978980E-004  0.9118800E+02  0.7818608E-02  0.1130116E+00
         25   -1    0    0    0    0  0.00000000000E+00  0.00000000000E+00  0.99999998245E-14  0.12500000000E+03  0.12500000000E+03 0.  0.
        -13    1    3    3    0    0  0.38302748928E+02 -0.73144920422E+01 -0.51701398004E+01  0.39336292134E+02  0.10566000000E+00 0. -1.
         23    2    1    0    0    0 -0.21867727219E+01  0.21386031207E+02  0.20572072435E+02  0.95245093346E+02  0.90478026816E+02 0.  0.
         13    1    3    3    0    0 -0.40489521650E+02  0.28700523249E+02  0.25742212235E+02  0.55908801212E+02  0.10566000000E+00 0.  1.
         22    1    1    0    0    0  0.21867727219E+01 -0.21386031207E+02 -0.20572072435E+02  0.29754906654E+02  0.00000000000E+00 0.  1.
</event>
<event>
 5    1  0.6978980E-004  0.9118800E+02  0.7818608E-02  0.1130116E+00
         25   -1    0    0    0    0  0.00000000000E+00  0.00000000000E+00  0.99999998245E-14  0.12500000000E+03  0.12500000000E+03 0.  0.
        -13    1    3    3    0    0  0.16459713079E+01 -0.90023013732E+01 -0.34623771119E+02  0.35812949364E+02  0.10566000000E+00 0.  1.
         23    2    1    0    0    0 -0.10835758826E+02 -0.10644550069E+02  0.24451395381E+02  0.96214745935E+02  0.91807878114E+02 0.  0.
         13    1    3    3    0    0 -0.12481730133E+02 -0.16422486962E+01  0.59075166501E+02  0.60401796571E+02  0.10566000000E+00 0. -1.
         22    1    1    0    0    0  0.10835758826E+02  0.10644550069E+02 -0.24451395381E+02  0.28785254065E+02  0.00000000000E+00 0. -1.
</event>
<event>
 5    1  0.6978980E-004  0.9118800E+02  0.7818608E-02  0.1130116E+00
         25   -1    0    0    0    0  0.00000000000E+00  0.00000000000E+00  0.99999998245E-14  0.12500000000E+03  0.12500000000E+03 0.  0.
        -13    1    3    3    0    0 -0.17451256302E+02  0.20728807667E+01 -0.46624085023E+02  0.49826294760E+02  0.10566000000E+00 0. -1.
         23    2    1    0    0    0  0.19842024449E+02 -0.56218385480E+01 -0.19851322135E+02  0.96375080901E+02  0.92025921486E+02 0.  0.
         13    1    3    3    0    0  0.37293280751E+02 -0.76947193147E+01  0.26772762888E+02  0.46548786141E+02  0.10566000000E+00 0.  1.
         22    1    1    0    0    0 -0.19842024449E+02  0.56218385480E+01  0.19851322135E+02  0.28624919099E+02  0.00000000000E+00 0. -1.
</event>
<event>
 5    1  0.6978980E-004  0.9118800E+02  0.7818608E-02  0.1130116E+00
         25   -1    0    0    0    0  0.00000000000E+00  0.00000000000E+00  0.99999998245E-14  0.12500000000E+03  0.12500000000E+03 0.  0.
        -13    1    3    3    0    0 -0.22024982859E+02  0.11103290795E+02  0.23329326002E+02  0.33950722410E+02  0.10566000000E+00 0.  1.
         23    2    1    0    0    0  0.74782565990E+01 -0.20831220374E+01 -0.28738222663E+02  0.95231742392E+02  0.90459579913E+02 0.  0.
         13    1    3    3    0    0  0.29503239458E+02 -0.13186412833E+02 -0.52067548666E+02  0.61281019982E+02  0.10566000000E+00 0. -1.
         22    1    1    0    0    0 -0.74782565990E+01  0.20831220374E+01  0.28738222663E+02  0.29768257608E+02  0.00000000000E+00 0. -1.
</event>
<event>
 5    1  0.6978980E-004  0.9118800E+02  0.7818608E-02  0.1130116E+00
         25   -1    0    0    0    0  0.00000000000E+00  0.00000000000E+00  0.99999998245E-14  0.12500000000E+03  0.12500000000E+03 0.  0.
        -13    1    3    3    0    0 -0.28875940576E+02  0.52070392795E+02  0.18534220038E+02  0.62359235294E+02  0.10566000000E+00 0.  1.
         23    2    1    0    0    0 -0.11445630962E+02  0.26007883488E+02  0.10291053991E+02  0.94778844100E+02  0.89831570314E+02 0.  0.
         13    1    3    3    0    0  0.17430309614E+02 -0.26062509307E+02 -0.82431660471E+01  0.32419608806E+02  0.10566000000E+00 0. -1.
         22    1    1    0    0    0  0.11445630962E+02 -0.26007883488E+02 -0.10291053991E+02  0.30221155900E+02  0.00000000000E+00 0.  1.
</event>
<event>
 5    1  0.6978980E-004  0.9118800E+02  0.7818608E-02  0.1130116E+00
         25   -1    0    0    0    0  0.00000000000E+00  0.00000000000E+00  0.99999998245E-14  0.12500000000E+03  0.12500000000E+03 0.  0.
        -13    1    3    3    0    0  0.64590511396E+01  0.45354317842E+02  0.36144238344E+02  0.58353668420E+02  0.10566000000E+00 0. -1.
         23    2    1    0    0    0  0.40088318359E+01  0.31819634928E+02  0.48151446370E+01  0.92569373773E+02  0.86702614973E+02 0.  0.
         13    1    3    3    0    0 -0.24502193037E+01 -0.13534682914E+02 -0.31329093707E+02  0.34215705353E+02  0.10566000000E+00 0.  1.
         22    1    1    0    0    0 -0.40088318359E+01 -0.31819634928E+02 -0.48151446370E+01  0.32430626227E+02  0.00000000000E+00 0. -1.
</event>
<event>
 5    1  0.6978980E-004  0.9118800E+02  0.7818608E-02  0.1130116E+00
         25   -1    0    0    0    0  0.00000000000E+00  0.00000000000E+00  0.99999998245E-14  0.12500000000E+03  0.12500000000E+03 0.  0.
        -13    1    3    3    0    0  0.32100673609E+02 -0.75302021602E+01  0.47024700214E+02  0.57432488932E+02  0.10566000000E+00 0. -1.
         23    2    1    0    0    0  0.21255342756E+02  0.12014835772E+02  0.15493384316E+02  0.96083035570E+02  0.91628373840E+02 0.  0.
         13    1    3    3    0    0 -0.10845330854E+02  0.19545037932E+02 -0.31531315898E+02  0.38650546638E+02  0.10566000000E+00 0.  1.
         22    1    1    0    0    0 -0.21255342756E+02 -0.12014835772E+02 -0.15493384316E+02  0.28916964430E+02  0.00000000000E+00 0. -1.
</event>
<event>
 5    1  0.6978980E-004  0.9118800E+02  0.7818608E-02  0.1130116E+00
         25   -1    0    0    0    0  0.00000000000E+00  0.00000000000E+00  0.99999998245E-14  0.12500000000E+03  0.12500000000E+03 0.  0.
        -13    1    3    3    0    0 -0.17902857010E+02 -0.31063176164E+02 -0.20640985705E+02  0.41370214617E+02  0.10566000000E+00 0.  1.
         23    2    1    0    0    0  0.21242487278E+02 -0.51737400755E+01  0.13408001224E+02  0.99352673649E+02  0.95985251014E+02 0.  0.
         13    1    3    3    0    0  0.39145344289E+02  0.25889436088E+02  0.34048986929E+02  0.57982459032E+02  0.10566000000E+00 0. -1.
         22    1    1    0    0    0 -0.21242487278E+02  0.51737400755E+01 -0.13408001224E+02  0.25647326351E+02  0.00000000000E+00 0. -1.
</event>
<event>
 5    1  0.6978980E-004  0.9118800E+02  0.7818608E-02  0.1130116E+00
         25   -1    0    0    0    0  0.00000000000E+00  0.00000000000E+00  0.99999998245E-14  0.12500000000E+03  0.12500000000E+03 0.  0.
        -13    1    3    3    0    0 -0.78208747785E+01  0.11445692391E+02 -0.34881961736E+02  0.37535747964E+02  0.10566000000E+00 0. -1.
         23    2    1    0    0    0 -0.15885439066E+02 -0.20845072863E+02  0.12917681094E+02  0.95781329226E+02  0.91215855565E+02 0.  0.
         13    1    3    3    0    0 -0.80645642870E+01 -0.32290765254E+02  0.47799642830E+02  0.58245581262E+02  0.10566000000E+00 0.  1.
         22    1    1    0    0    0  0.15885439066E+02  0.20845072863E+02 -0.12917681094E+02  0.29218670774E+02  0.00000000000E+00 0.  1.
</event>
<event>
 5    1  0.6978980E-004  0.9118800E+02  0.7818608E-02  0.1130116E+00
         25   -1    0    0    0    0  0.00000000000E+00  0.00000000000E+00  0.99999998245E-14  0.12500000000E+03  0.12500000000E+03 0.  0.
        -13    1    3    3    0    0 -0.37518187499E+02  0.28054869507E+02  0.33029458254E+02  0.57320558030E+02  0.10566000000E+00 0. -1.
         23    2    1    0    0    0 -0.54577751537E+01  0.26026580493E+02  0.11288583555E+02  0.96110515400E+02  0.91665854330E+02 0.  0.
         13    1    3    3    0    0  0.32060412345E+02 -0.20282890146E+01 -0.21740874699E+02  0.38789957370E+02  0.10566000000E+00 0.  1.
         22    1    1    0    0    0  0.54577751537E+01 -0.26026580493E+02 -0.11288583555E+02  0.28889484600E+02  0.00000000000E+00 0. -1.
</event>
<event>
 5    1  0.6978980E-004  0.9118800E+02  0.7818608E-02  0.1130116E+00
         25   -1    0    0    0    0  0.00000000000E+00  0.00000000000E+00  0.99999998245E-14  0.12500000000E+03  0.12500000000E+03 0.  0.
        -13    1    3    3    0    0 -0.30605700047E+02  0.36640937598E+02  0.12853736128E+02  0.49441853524E+02  0.10566000000E+00 0. -1.
         23    2    1    0    0    0 -0.31019917022E+02 -0.61772100358E+01  0.59919769011E+01  0.92808433355E+02  0.87046587175E+02 0.  0.
         13    1    3    3    0    0 -0.41421697470E+00 -0.42818147634E+02 -0.68617592268E+01  0.43366579831E+02  0.10566000000E+00 0.  1.
         22    1    1    0    0    0  0.31019917022E+02  0.61772100358E+01 -0.59919769011E+01  0.32191566645E+02  0.00000000000E+00 0. -1.
</event>
<event>
 5    1  0.6978980E-004  0.9118800E+02  0.7818608E-02  0.1130116E+00
         25   -1    0    0    0    0  0.00000000000E+00  0.00000000000E+00  0.99999998245E-14  0.12500000000E+03  0.12500000000E+03 0.  0.
        -13    1    3    3    0    0 -0.65849090230E+01  0.30031676893E+02  0.20042582363E+02  0.36701211365E+02  0.10566000000E+00 0.  1.
         23    2    1    0    0    0 -0.16197899341E+02 -0.24024698603E+02 -0.22030572955E+01  0.95941239746E+02  0.91434730472E+02 0.  0.
         13    1    3    3    0    0 -0.96129903181E+01 -0.54056375497E+02 -0.22245639659E+02  0.59240028381E+02  0.10566000000E+00 0. -1.
         22    1    1    0    0    0  0.16197899341E+02  0.24024698603E+02  0.22030572955E+01  0.29058760254E+02  0.00000000000E+00 0. -1.
</event>
<event>
 5    1  0.6978980E-004  0.9118800E+02  0.7818608E-02  0.1130116E+00
         25   -1    0    0    0    0  0.00000000000E+00  0.00000000000E+00  0.99999998245E-14  0.12500000000E+03  0.12500000000E+03 0.  0.
        -13    1    3    3    0    0 -0.45970244644E+01  0.56175885221E+02  0.70026261714E+01  0.56797100733E+02  0.10566000000E+00 0. -1.
         23    2    1    0    0    0 -0.81897739206E+01  0.30723379645E+02 -0.14256225099E+02  0.90154076167E+02  0.83147573878E+02 0.  0.
         13    1    3    3    0    0 -0.35927494563E+01 -0.25452505576E+02 -0.21258851271E+02  0.33356975435E+02  0.10566000000E+00 0.  1.
         22    1    1    0    0    0  0.81897739206E+01 -0.30723379645E+02  0.14256225099E+02  0.34845923833E+02  0.00000000000E+00 0. -1.
</event>
<event>
 5    1  0.6978980E-004  0.9118800E+02  0.7818608E-02  0.1130116E+00
         25   -1    0    0    0    0  0.00000000000E+00  0.00000000000E+00  0.99999998245E-14  0.12500000000E+03  0.12500000000E+03 0.  0.
        -13    1    3    3    0    0  0.35371303711E+02  0.46062562754E+02  0.39960722302E+01  0.58213989479E+02  0.10566000000E+00 0.  1.
         23    2    1    0    0    0  0.26113936628E+02  0.10506410644E+02  0.93408944684E+01  0.95342376018E+02  0.90612328104E+02 0.  0.
         13    1    3    3    0    0 -0.92573670838E+01 -0.35556152110E+02  0.53448222382E+01  0.37128386539E+02  0.10566000000E+00 0. -1.
         22    1    1    0    0    0 -0.26113936628E+02 -0.10506410644E+02 -0.93408944684E+01  0.29657623982E+02  0.00000000000E+00 0.  1.
</event>
<event>
 5    1  0.6978980E-004  0.9118800E+02  0.7818608E-02  0.1130116E+00
         25   -1    0    0    0    0  0.00000000000E+00  0.00000000000E+00  0.99999998245E-14  0.12500000000E+03  0.12500000000E+03 0.  0.
        -13    1    3    3    0    0 -0.26719907529E+02  0.15181999383E+02  0.37249919558E+02  0.48290933256E+02  0.10566000000E+00 0.  1.
         23    2    1    0    0    0 -0.26956445949E+02  0.17789968584E+01 -0.90631852993E+01  0.96505155979E+02  0.92202434863E+02 0.  0.
         13    1    3    3    0    0 -0.23653842017E+00 -0.13403002525E+02 -0.46313104858E+02  0.48214222722E+02  0.10566000000E+00 0. -1.
         22    1    1    0    0    0  0.26956445949E+02 -0.17789968584E+01  0.90631852993E+01  0.28494844021E+02  0.00000000000E+00 0. -1.
</event>
<event>
 5    1  0.6978980E-004  0.9118800E+02  0.7818608E-02  0.1130116E+00
         25   -1    0    0    0    0  0.00000000000E+00  0.00000000000E+00  0.99999998245E-14  0.12500000000E+03  0.12500000000E+03 0.  0.
        -13    1    3    3    0    0  0.30890130790E+02 -0.39641826214E+01  0.15838936578E+02  0.34939919863E+02  0.10566000000E+00 0.  1.
         23    2    1    0    0    0 -0.18124374516E+02  0.25581294217E+02  0.73730057905E+01  0.92793528914E+02  0.87025181577E+02 0.  0.
         13    1    3    3    0    0 -0.49014505306E+02  0.29545476839E+02 -0.84659307874E+01  0.57853609051E+02  0.10566000000E+00 0. -1.
         22    1    1    0    0    0  0.18124374516E+02 -0.25581294217E+02 -0.73730057905E+01  0.32206471086E+02  0.00000000000E+00 0. -1.
</event>
<event>
 5    1  0.6978980E-004  0.9118800E+02  0.7818608E-02  0.1130116E+00
         25   -1    0    0    0    0  0.00000000000E+00  0.00000000000E+00  0.99999998245E-14  0.12500000000E+03  0.12500000000E+03 0.  0.
        -13    1    3    3    0    0  0.16557714755E+02 -0.36657384185E+02  0.30051771623E+01  0.40335641646E+02  0.10566000000E+00 0.  1.
         23    2    1    0    0    0  0.67675426600E+01  0.11303940152E+02  0.27079335811E+02  0.94885732209E+02  0.89980181442E+02 0.  0.
         13    1    3    3    0    0 -0.97901720951E+01  0.47961324336E+02  0.24074158649E+02  0.54550090563E+02  0.10566000000E+00 0. -1.
         22    1    1    0    0    0 -0.67675426600E+01 -0.11303940152E+02 -0.27079335811E+02  0.30114267791E+02  0.00000000000E+00 0. -1.
</event>
<event>
 5    1  0.6978980E-004  0.9118800E+02  0.7818608E-02  0.1130116E+00
         25   -1    0    0    0    0  0.00000000000E+00  0.00000000000E+00  0.99999998245E-14  0.12500000000E+03  0.12500000000E+03 0.  0.
        -13    1    3    3    0    0  0.12699124181E+02  0.46372915515E+02  0.37819658857E+02  0.61172320606E+02  0.10566000000E+00 0. -1.
         23    2    1    0    0    0  0.14317772221E+02  0.21098713454E+02  0.14143134660E+02  0.95842109665E+02  0.91299109613E+02 0.  0.
         13    1    3    3    0    0  0.16186480401E+01 -0.25274202061E+02 -0.23676524197E+02  0.34669789058E+02  0.10566000000E+00 0.  1.
         22    1    1    0    0    0 -0.14317772221E+02 -0.21098713454E+02 -0.14143134660E+02  0.29157890335E+02  0.00000000000E+00 0. -1.
</event>
<event>
 5    1  0.6978980E-004  0.9118800E+02  0.7818608E-02  0.1130116E+00
         25   -1    0    0    0    0  0.00000000000E+00  0.00000000000E+00  0.99999998245E-14  0.12500000000E+03  0.12500000000E+03 0.  0.
        -13    1    3    3    0    0  0.29844973392E+02 -0.52053640364E+01  0.13669043584E+02  0.33236608854E+02  0.10566000000E+00 0. -1.
         23    2    1    0    0    0 -0.28115129469E+02  0.17377704656E+01 -0.83401625424E+01  0.95622480321E+02  0.90997912505E+02 0.  0.
         13    1    3    3    0    0 -0.57960102861E+02  0.69431345020E+01 -0.22009206126E+02  0.62385871468E+02  0.10566000000E+00 0.  1.
         22    1    1    0    0    0  0.28115129469E+02 -0.17377704656E+01  0.83401625424E+01  0.29377519679E+02  0.00000000000E+00 0.  1.
</event>
<event>
 5    1  0.6978980E-004  0.9118800E+02  0.7818608E-02  0.1130116E+00
         25   -1    0    0    0    0  0.00000000000E+00  0.00000000000E+00  0.99999998245E-14  0.12500000000E+03  0.12500000000E+03 0.  0.
        -13    1    3    3    0    0 -0.52880737606E+02 -0.30323865741E+02 -0.38477462971E+00  0.60959564129E+02  0.10566000000E+00 0. -1.
         23    2    1    0    0    0 -0.27986144891E+02 -0.63576936022E+01  0.47987880101E+01  0.95902355075E+02  0.91381555955E+02 0.  0.
         13    1    3    3    0    0  0.24894592715E+02  0.23966172139E+02  0.51835626398E+01  0.34942790946E+02  0.10566000000E+00 0.  1.
         22    1    1    0    0    0  0.27986144891E+02  0.63576936022E+01 -0.47987880101E+01  0.29097644925E+02  0.00000000000E+00 0. -1.
</event>
<event>
 5    1  0.6978980E-004  0.9118800E+02  0.7818608E-02  0.1130116E+00
         25   -1    0    0    0    0  0.00000000000E+00  0.00000000000E+00  0.99999998245E-14  0.12500000000E+03  0.12500000000E+03 0.  0.
        -13    1    3    3    0    0 -0.32532149658E+00  0.44949683208E+02  0.79839596888E+01  0.45654513806E+02  0.10566000000E+00 0. -1.
         23    2    1    0    0    0  0.19890871488E+02  0.74489684982E+01 -0.19346092804E+02  0.96270133884E+02  0.91883260015E+02 0.  0.
         13    1    3    3    0    0  0.20216192985E+02 -0.37500714709E+02 -0.27330052493E+02  0.50615620078E+02  0.10566000000E+00 0.  1.
         22    1    1    0    0    0 -0.19890871488E+02 -0.74489684982E+01  0.19346092804E+02  0.28729866116E+02  0.00000000000E+00 0.  1.
</event>
<event>
 5    1  0.6978980E-004  0.9118800E+02  0.7818608E-02  0.1130116E+00
         25   -1    0    0    0    0  0.00000000000E+00  0.00000000000E+00  0.99999998245E-14  0.12500000000E+03  0.12500000000E+03 0.  0.
        -13    1    3    3    0    0 -0.31417403812E+02  0.16304484151E+01  0.28284576654E+02  0.42305319581E+02  0.10566000000E+00 0. -1.
         23    2    1    0    0    0 -0.94063631843E+01  0.28755687292E+02 -0.90365705726E+01  0.93424236705E+02  0.87926441849E+02 0.  0.
         13    1    3    3    0    0  0.22011040627E+02  0.27125238877E+02 -0.37321147226E+02  0.51118917124E+02  0.10566000000E+00 0.  1.
         22    1    1    0    0    0  0.94063631843E+01 -0.28755687292E+02  0.90365705726E+01  0.31575763295E+02  0.00000000000E+00 0.  1.
</event>
<event>
 5    1  0.6978980E-004  0.9118800E+02  0.7818608E-02  0.1130116E+00
         25   -1    0    0    0    0  0.00000000000E+00  0.00000000000E+00  0.99999998245E-14  0.12500000000E+03  0.12500000000E+03 0.  0.
        -13    1    3    3    0    0 -0.53437933081E+02  0.24346393298E+02  0.12959143263E+02  0.60135764041E+02  0.10566000000E+00 0.  1.
         23    2    1    0    0    0 -0.18046067703E+02  0.17086981621E+02  0.14370573006E+02  0.96292181048E+02  0.91913248566E+02 0.  0.
         13    1    3    3    0    0  0.35391865378E+02 -0.72594116768E+01  0.14114297428E+01  0.36156417007E+02  0.10566000000E+00 0. -1.
         22    1    1    0    0    0  0.18046067703E+02 -0.17086981621E+02 -0.14370573006E+02  0.28707818952E+02  0.00000000000E+00 0.  1.
</event>
<event>
 5    1  0.6978980E-004  0.9118800E+02  0.7818608E-02  0.1130116E+00
         25   -1    0    0    0    0  0.00000000000E+00  0.00000000000E+00  0.99999998245E-14  0.12500000000E+03  0.12500000000E+03 0.  0.
        -13    1    3    3    0    0 -0.39482986080E+02 -0.38503318989E+02 -0.81978727066E+01  0.55755071911E+02  0.10566000000E+00 0.  1.
         23    2    1    0    0    0 -0.40674663772E+01 -0.28346400145E+02  0.68539791258E+01  0.95554461904E+02  0.90904430453E+02 0.  0.
         13    1    3    3    0    0  0.35415519702E+02  0.10156918844E+02  0.15051851832E+02  0.39799389993E+02  0.10566000000E+00 0. -1.
         22    1    1    0    0    0  0.40674663772E+01  0.28346400145E+02 -0.68539791258E+01  0.29445538096E+02  0.00000000000E+00 0.  1.
</event>
<event>
 5    1  0.6978980E-004  0.9118800E+02  0.7818608E-02  0.1130116E+00
         25   -1    0    0    0    0  0.00000000000E+00  0.00000000000E+00  0.99999998245E-14  0.12500000000E+03  0.12500000000E+03 0.  0.
        -13    1    3    3    0    0 -0.30996498072E+02  0.41977759021E+02  0.10008184098E+02  0.53132758804E+02  0.10566000000E+00 0. -1.
         23    2    1    0    0    0 -0.11994937939E+02  0.14542171820E+02 -0.19642635349E+02  0.97775260867E+02  0.93908547091E+02 0.  0.
         13    1    3    3    0    0  0.19001560132E+02 -0.27435587202E+02 -0.29650819447E+02  0.44642502063E+02  0.10566000000E+00 0.  1.
         22    1    1    0    0    0  0.11994937939E+02 -0.14542171820E+02  0.19642635349E+02  0.27224739133E+02  0.00000000000E+00 0.  1.
</event>
<event>
 5    1  0.6978980E-004  0.9118800E+02  0.7818608E-02  0.1130116E+00
         25   -1    0    0    0    0  0.00000000000E+00  0.00000000000E+00  0.99999998245E-14  0.12500000000E+03  0.12500000000E+03 0.  0.
        -13    1    3    3    0    0  0.21536063936E+02 -0.23380390815E+02  0.14813477686E+02  0.35069858991E+02  0.10566000000E+00 0. -1.
         23    2    1    0    0    0 -0.14463283514E+02  0.22570513589E+02 -0.68469728050E+01  0.97332407219E+02  0.93317210657E+02 0.  0.
         13    1    3    3    0    0 -0.35999347449E+02  0.45950904404E+02 -0.21660450491E+02  0.62262548228E+02  0.10566000000E+00 0.  1.
         22    1    1    0    0    0  0.14463283514E+02 -0.22570513589E+02  0.68469728050E+01  0.27667592781E+02  0.00000000000E+00 0.  1.
</event>
<event>
 5    1  0.6978980E-004  0.9118800E+02  0.7818608E-02  0.1130116E+00
         25   -1    0    0    0    0  0.00000000000E+00  0.00000000000E+00  0.99999998245E-14  0.12500000000E+03  0.12500000000E+03 0.  0.
        -13    1    3    3    0    0  0.12201291851E+02  0.23542359699E+01  0.42478395709E+02  0.44258775581E+02  0.10566000000E+00 0. -1.
         23    2    1    0    0    0  0.31859532677E+01  0.31063281551E+02  0.33870551815E+01  0.93590608065E+02  0.88162645243E+02 0.  0.
         13    1    3    3    0    0 -0.90153385835E+01  0.28709045581E+02 -0.39091340528E+02  0.49331832484E+02  0.10566000000E+00 0.  1.
         22    1    1    0    0    0 -0.31859532677E+01 -0.31063281551E+02 -0.33870551815E+01  0.31409391935E+02  0.00000000000E+00 0.  1.
</event>
<event>
 5    1  0.6978980E-004  0.9118800E+02  0.7818608E-02  0.1130116E+00
         25   -1    0    0    0    0  0.00000000000E+00  0.00000000000E+00  0.99999998245E-14  0.12500000000E+03  0.12500000000E+03 0.  0.
        -13    1    3    3    0    0 -0.29915870142E+02  0.20419195116E+02  0.36508931484E+02  0.51427775158E+02  0.10566000000E+00 0.  1.
         23    2    1    0    0    0 -0.27082599110E+02  0.84613652558E+01 -0.62741954924E+01  0.95940966884E+02  0.91434357444E+02 0.  0.
         13    1    3    3    0    0  0.28332710326E+01 -0.11957829860E+02 -0.42783126977E+02  0.44513191726E+02  0.10566000000E+00 0. -1.
         22    1    1    0    0    0  0.27082599110E+02 -0.84613652558E+01  0.62741954924E+01  0.29059033116E+02  0.00000000000E+00 0.  1.
</event>
<event>
 5    1  0.6978980E-004  0.9118800E+02  0.7818608E-02  0.1130116E+00
         25   -1    0    0    0    0  0.00000000000E+00  0.00000000000E+00  0.99999998245E-14  0.12500000000E+03  0.12500000000E+03 0.  0.
        -13    1    3    3    0    0  0.25955587545E+02  0.17863754891E+02 -0.33445205412E+02  0.45949964012E+02  0.10566000000E+00 0.  1.
         23    2    1    0    0    0 -0.99789682666E+00 -0.21143927324E+02 -0.21463596312E+02  0.94854562080E+02  0.89936869636E+02 0.  0.
         13    1    3    3    0    0 -0.26953484371E+02 -0.39007682215E+02  0.11981609100E+02  0.48904598068E+02  0.10566000000E+00 0. -1.
         22    1    1    0    0    0  0.99789682666E+00  0.21143927324E+02  0.21463596312E+02  0.30145437920E+02  0.00000000000E+00 0.  1.
</event>
<event>
 5    1  0.6978980E-004  0.9118800E+02  0.7818608E-02  0.1130116E+00
         25   -1    0    0    0    0  0.00000000000E+00  0.00000000000E+00  0.99999998245E-14  0.12500000000E+03  0.12500000000E+03 0.  0.
        -13    1    3    3    0    0  0.30386795450E+02  0.89078743070E+01 -0.20303136506E+02  0.37615636089E+02  0.10566000000E+00 0.  1.
         23    2    1    0    0    0  0.27216104946E+02 -0.98618741865E+01  0.24997149842E+02  0.86753033701E+02  0.77866927672E+02 0.  0.
         13    1    3    3    0    0 -0.31706905040E+01 -0.18769748493E+02  0.45300286348E+02  0.49137397611E+02  0.10566000000E+00 0. -1.
         22    1    1    0    0    0 -0.27216104946E+02  0.98618741865E+01 -0.24997149842E+02  0.38246966299E+02  0.00000000000E+00 0. -1.
</event>
<event>
 5    1  0.6978980E-004  0.9118800E+02  0.7818608E-02  0.1130116E+00
         25   -1    0    0    0    0  0.00000000000E+00  0.00000000000E+00  0.99999998245E-14  0.12500000000E+03  0.12500000000E+03 0.  0.
        -13    1    3    3    0    0  0.16821495682E+02 -0.57719912403E+02 -0.32061646634E+00  0.60122083828E+02  0.10566000000E+00 0.  1.
         23    2    1    0    0    0  0.18938764296E+02 -0.21904088727E+02 -0.13083192694E+01  0.96014182859E+02  0.91534396348E+02 0.  0.
         13    1    3    3    0    0  0.21172686138E+01  0.35815823676E+02 -0.98770280305E+00  0.35892099031E+02  0.10566000000E+00 0. -1.
         22    1    1    0    0    0 -0.18938764296E+02  0.21904088727E+02  0.13083192694E+01  0.28985817141E+02  0.00000000000E+00 0.  1.
</event>
<event>
 5    1  0.6978980E-004  0.9118800E+02  0.7818608E-02  0.1130116E+00
         25   -1    0    0    0    0  0.00000000000E+00  0.00000000000E+00  0.99999998245E-14  0.12500000000E+03  0.12500000000E+03 0.  0.
        -13    1    3    3    0    0 -0.45063002070E+02 -0.75777043664E+01 -0.61672084347E+01  0.46110100661E+02  0.10566000000E+00 0.  1.
         23    2    1    0    0    0 -0.46572414971E+01 -0.25330128961E+02  0.15147179557E+02  0.95121205177E+02  0.90306706807E+02 0.  0.
         13    1    3    3    0    0  0.40405760573E+02 -0.17752424594E+02  0.21314387991E+02  0.49011104517E+02  0.10566000000E+00 0. -1.
         22    1    1    0    0    0  0.46572414971E+01  0.25330128961E+02 -0.15147179557E+02  0.29878794823E+02  0.00000000000E+00 0.  1.
</event>
<event>
 5    1  0.6978980E-004  0.9118800E+02  0.7818608E-02  0.1130116E+00
         25   -1    0    0    0    0  0.00000000000E+00  0.00000000000E+00  0.99999998245E-14  0.12500000000E+03  0.12500000000E+03 0.  0.
        -13    1    3    3    0    0 -0.41255232192E+02 -0.22657314058E+02 -0.16985444857E+02  0.50038630722E+02  0.10566000000E+00 0.  1.
         23    2    1    0    0    0 -0.24404486325E+02  0.80232783015E+01  0.13071406164E+02  0.96176162528E+02  0.91755330265E+02 0.  0.
         13    1    3    3    0    0  0.16850745867E+02  0.30680592359E+02  0.30056851021E+02  0.46137531806E+02  0.10566000000E+00 0. -1.
         22    1    1    0    0    0  0.24404486325E+02 -0.80232783015E+01 -0.13071406164E+02  0.28823837472E+02  0.00000000000E+00 0.  1.
</event>
<event>
 5    1  0.6978980E-004  0.9118800E+02  0.7818608E-02  0.1130116E+00
         25   -1    0    0    0    0  0.00000000000E+00  0.00000000000E+00  0.99999998245E-14  0.12500000000E+03  0.12500000000E+03 0.  0.
        -13    1    3    3    0    0  0.37173620684E+01 -0.12548023831E+02 -0.36363726993E+02  0.38647166619E+02  0.10566000000E+00 0. -1.
         23    2    1    0    0    0  0.25055089864E+01  0.28235347774E+02  0.43903976281E+01  0.96315718058E+02  0.91945252810E+02 0.  0.
         13    1    3    3    0    0 -0.12118530820E+01  0.40783371605E+02  0.40754124621E+02  0.57668551439E+02  0.10566000000E+00 0.  1.
         22    1    1    0    0    0 -0.25055089864E+01 -0.28235347774E+02 -0.43903976281E+01  0.28684281942E+02  0.00000000000E+00 0.  1.
</event>
<event>
 5    1  0.6978980E-004  0.9118800E+02  0.7818608E-02  0.1130116E+00
         25   -1    0    0    0    0  0.00000000000E+00  0.00000000000E+00  0.99999998245E-14  0.12500000000E+03  0.12500000000E+03 0.  0.
        -13    1    3    3    0    0  0.55546513677E+02 -0.86648898383E+01 -0.22815134305E+02  0.60671550293E+02  0.10566000000E+00 0.  1.
         23    2    1    0    0    0  0.23381711534E+02 -0.14417400537E+02 -0.10161774059E+02  0.95711307224E+02  0.91119848584E+02 0.  0.
         13    1    3    3    0    0 -0.32164802143E+02 -0.57525106983E+01  0.12653360246E+02  0.35039756931E+02  0.10566000000E+00 0. -1.
         22    1    1    0    0    0 -0.23381711534E+02  0.14417400537E+02  0.10161774059E+02  0.29288692776E+02  0.00000000000E+00 0.  1.
</event>
<event>
 5    1  0.6978980E-004  0.9118800E+02  0.7818608E-02  0.1130116E+00
         25   -1    0    0    0    0  0.00000000000E+00  0.00000000000E+00  0.99999998245E-14  0.12500000000E+03  0.12500000000E+03 0.  0.
        -13    1    3    3    0    0  0.32298626037E+02 -0.85667782562E+01  0.30846372255E+01  0.33557668042E+02  0.10566000000E+00 0.  1.
         23    2    1    0    0    0  0.24474156586E+02  0.30460289041E+02 -0.21558834641E+02  0.80372688854E+02  0.66844388048E+02 0.  0.
         13    1    3    3    0    0 -0.78244694512E+01  0.39027067297E+02 -0.24643471866E+02  0.46815020812E+02  0.10566000000E+00 0. -1.
         22    1    1    0    0    0 -0.24474156586E+02 -0.30460289041E+02  0.21558834641E+02  0.44627311146E+02  0.00000000000E+00 0. -1.
</event>
<event>
 5    1  0.6978980E-004  0.9118800E+02  0.7818608E-02  0.1130116E+00
         25   -1    0    0    0    0  0.00000000000E+00  0.00000000000E+00  0.99999998245E-14  0.12500000000E+03  0.12500000000E+03 0.  0.
        -13    1    3    3    0    0 -0.46052607391E+02 -0.61782873482E+01 -0.17293958080E+00  0.46465631968E+02  0.10566000000E+00 0. -1.
         23    2    1    0    0    0 -0.18603756902E+01 -0.28079643555E+02  0.61605827695E+01  0.96192359347E+02  0.91777392842E+02 0.  0.
         13    1    3    3    0    0  0.44192231701E+02 -0.21901356207E+02  0.63335223503E+01  0.49726727379E+02  0.10566000000E+00 0.  1.
         22    1    1    0    0    0  0.18603756902E+01  0.28079643555E+02 -0.61605827695E+01  0.28807640653E+02  0.00000000000E+00 0.  1.
</event>
<event>
 5    1  0.6978980E-004  0.9118800E+02  0.7818608E-02  0.1130116E+00
         25   -1    0    0    0    0  0.00000000000E+00  0.00000000000E+00  0.99999998245E-14  0.12500000000E+03  0.12500000000E+03 0.  0.
        -13    1    3    3    0    0 -0.42567498783E+02  0.41206308127E+02  0.19820677282E+02  0.62472571534E+02  0.10566000000E+00 0.  1.
         23    2    1    0    0    0 -0.19686181807E+02  0.17422077555E+02  0.82005440470E+01  0.97462326475E+02  0.93491077750E+02 0.  0.
         13    1    3    3    0    0  0.22881316976E+02 -0.23784230572E+02 -0.11620133235E+02  0.34989754941E+02  0.10566000000E+00 0. -1.
         22    1    1    0    0    0  0.19686181807E+02 -0.17422077555E+02 -0.82005440470E+01  0.27537673525E+02  0.00000000000E+00 0.  1.
</event>
<event>
 5    1  0.6978980E-004  0.9118800E+02  0.7818608E-02  0.1130116E+00
         25   -1    0    0    0    0  0.00000000000E+00  0.00000000000E+00  0.99999998245E-14  0.12500000000E+03  0.12500000000E+03 0.  0.
        -13    1    3    3    0    0 -0.45008603381E+02  0.21419696272E+02  0.36677286463E+02  0.61885477077E+02  0.10566000000E+00 0. -1.
         23    2    1    0    0    0 -0.17863304339E+02  0.15330819040E+02  0.16438662827E+02  0.96288307436E+02  0.91907980388E+02 0.  0.
         13    1    3    3    0    0  0.27145299042E+02 -0.60888772324E+01 -0.20238623636E+02  0.34402830359E+02  0.10566000000E+00 0.  1.
         22    1    1    0    0    0  0.17863304339E+02 -0.15330819040E+02 -0.16438662827E+02  0.28711692564E+02  0.00000000000E+00 0. -1.
</event>
<event>
 5    1  0.6978980E-004  0.9118800E+02  0.7818608E-02  0.1130116E+00
         25   -1    0    0    0    0  0.00000000000E+00  0.00000000000E+00  0.99999998245E-14  0.12500000000E+03  0.12500000000E+03 0.  0.
        -13    1    3    3    0    0  0.34803759117E+02  0.13432938772E+02  0.54206803923E+00  0.37310192903E+02  0.10566000000E+00 0. -1.
         23    2    1    0    0    0 -0.66161087772E+01 -0.18480026411E+02  0.23469551885E+02  0.94404181051E+02  0.89308707654E+02 0.  0.
         13    1    3    3    0    0 -0.41419867894E+02 -0.31912965183E+02  0.22927483845E+02  0.57093988148E+02  0.10566000000E+00 0.  1.
         22    1    1    0    0    0  0.66161087772E+01  0.18480026411E+02 -0.23469551885E+02  0.30595818949E+02  0.00000000000E+00 0.  1.
</event>
<event>
 5    1  0.6978980E-004  0.9118800E+02  0.7818608E-02  0.1130116E+00
         25   -1    0    0    0    0  0.00000000000E+00  0.00000000000E+00  0.99999998245E-14  0.12500000000E+03  0.12500000000E+03 0.  0.
        -13    1    3    3    0    0  0.34036217321E+01  0.12859963385E+02 -0.45071983496E+02  0.46994235385E+02  0.10566000000E+00 0.  1.
         23    2    1    0    0    0  0.25789544746E+02 -0.99752197039E+01 -0.74656984608E+01  0.96358382031E+02  0.92003236399E+02 0.  0.
         13    1    3    3    0    0  0.22385923014E+02 -0.22835183088E+02  0.37606285035E+02  0.49364146646E+02  0.10566000000E+00 0. -1.
         22    1    1    0    0    0 -0.25789544746E+02  0.99752197039E+01  0.74656984608E+01  0.28641617969E+02  0.00000000000E+00 0. -1.
</event>
<event>
 5    1  0.6978980E-004  0.9118800E+02  0.7818608E-02  0.1130116E+00
         25   -1    0    0    0    0  0.00000000000E+00  0.00000000000E+00  0.99999998245E-14  0.12500000000E+03  0.12500000000E+03 0.  0.
        -13    1    3    3    0    0 -0.15917794858E+02  0.12507231066E+02  0.83958758490E+01  0.21915951208E+02  0.10566000000E+00 0. -1.
         23    2    1    0    0    0  0.10754056031E+02 -0.14092072363E+01 -0.42554397486E+02  0.81085169572E+02  0.68163717570E+02 0.  0.
         13    1    3    3    0    0  0.26671850889E+02 -0.13916438302E+02 -0.50950273335E+02  0.59169218364E+02  0.10566000000E+00 0.  1.
         22    1    1    0    0    0 -0.10754056031E+02  0.14092072363E+01  0.42554397486E+02  0.43914830428E+02  0.00000000000E+00 0.  1.
</event>
<event>
 5    1  0.6978980E-004  0.9118800E+02  0.7818608E-02  0.1130116E+00
         25   -1    0    0    0    0  0.00000000000E+00  0.00000000000E+00  0.99999998245E-14  0.12500000000E+03  0.12500000000E+03 0.  0.
        -13    1    3    3    0    0  0.46754341792E+02 -0.96268137258E+01  0.35524915307E+02  0.59503569561E+02  0.10566000000E+00 0. -1.
         23    2    1    0    0    0  0.24412385666E+02 -0.92789552702E+01  0.33598720071E+01  0.98668415833E+02  0.95089978222E+02 0.  0.
         13    1    3    3    0    0 -0.22341956125E+02  0.34785845562E+00 -0.32165043300E+02  0.39164846272E+02  0.10566000000E+00 0.  1.
         22    1    1    0    0    0 -0.24412385666E+02  0.92789552702E+01 -0.33598720071E+01  0.26331584167E+02  0.00000000000E+00 0. -1.
</event>
<event>
 5    1  0.6978980E-004  0.9118800E+02  0.7818608E-02  0.1130116E+00
         25   -1    0    0    0    0  0.00000000000E+00  0.00000000000E+00  0.99999998245E-14  0.12500000000E+03  0.12500000000E+03 0.  0.
        -13    1    3    3    0    0  0.20776852802E+02 -0.27673041895E+02 -0.29439374325E+02  0.45433058281E+02  0.10566000000E+00 0.  1.
         23    2    1    0    0    0  0.23874210432E+02  0.15857325480E+02 -0.36927580273E+01  0.96102436833E+02  0.91654837342E+02 0.  0.
         13    1    3    3    0    0  0.30973576306E+01  0.43530367375E+02  0.25746616298E+02  0.50669378552E+02  0.10566000000E+00 0. -1.
         22    1    1    0    0    0 -0.23874210432E+02 -0.15857325480E+02  0.36927580273E+01  0.28897563167E+02  0.00000000000E+00 0. -1.
</event>
<event>
 5    1  0.6978980E-004  0.9118800E+02  0.7818608E-02  0.1130116E+00
         25   -1    0    0    0    0  0.00000000000E+00  0.00000000000E+00  0.99999998245E-14  0.12500000000E+03  0.12500000000E+03 0.  0.
        -13    1    3    3    0    0 -0.27240971476E+02 -0.31753609308E+02  0.36492754567E+02  0.55516614909E+02  0.10566000000E+00 0.  1.
         23    2    1    0    0    0  0.58115223698E+01 -0.24603688813E+02  0.14501259915E+02  0.95855500784E+02  0.91317441904E+02 0.  0.
         13    1    3    3    0    0  0.33052493846E+02  0.71499204958E+01 -0.21991494652E+02  0.40338885875E+02  0.10566000000E+00 0. -1.
         22    1    1    0    0    0 -0.58115223698E+01  0.24603688813E+02 -0.14501259915E+02  0.29144499216E+02  0.00000000000E+00 0. -1.
</event>
<event>
 5    1  0.6978980E-004  0.9118800E+02  0.7818608E-02  0.1130116E+00
         25   -1    0    0    0    0  0.00000000000E+00  0.00000000000E+00  0.99999998245E-14  0.12500000000E+03  0.12500000000E+03 0.  0.
        -13    1    3    3    0    0  0.25526133115E+02 -0.15691412442E+02 -0.40228452089E+02  0.50161174405E+02  0.10566000000E+00 0.  1.
         23    2    1    0    0    0  0.10157459184E+02 -0.27363712674E+02  0.11186216087E+01  0.95790445695E+02  0.91228347698E+02 0.  0.
         13    1    3    3    0    0 -0.15368673930E+02 -0.11672300232E+02  0.41347073697E+02  0.45629271290E+02  0.10566000000E+00 0. -1.
         22    1    1    0    0    0 -0.10157459184E+02  0.27363712674E+02 -0.11186216087E+01  0.29209554305E+02  0.00000000000E+00 0. -1.
</event>
<event>
 5    1  0.6978980E-004  0.9118800E+02  0.7818608E-02  0.1130116E+00
         25   -1    0    0    0    0  0.00000000000E+00  0.00000000000E+00  0.99999998245E-14  0.12500000000E+03  0.12500000000E+03 0.  0.
        -13    1    3    3    0    0  0.13760002324E+02 -0.51113666690E+02 -0.22045166286E+02  0.57340606093E+02  0.10566000000E+00 0.  1.
         23    2    1    0    0    0  0.19416729089E+02 -0.10691804216E+02 -0.22000166024E+01  0.10272525827E+03  0.10028117754E+03 0.  0.
         13    1    3    3    0    0  0.56567267654E+01  0.40421862474E+02  0.19845149683E+02  0.45384652181E+02  0.10566000000E+00 0. -1.
         22    1    1    0    0    0 -0.19416729089E+02  0.10691804216E+02  0.22000166024E+01  0.22274741727E+02  0.00000000000E+00 0.  1.
</event>
<event>
 5    1  0.6978980E-004  0.9118800E+02  0.7818608E-02  0.1130116E+00
         25   -1    0    0    0    0  0.00000000000E+00  0.00000000000E+00  0.99999998245E-14  0.12500000000E+03  0.12500000000E+03 0.  0.
        -13    1    3    3    0    0  0.30550021216E+02  0.53284684458E+02 -0.64847117670E+01  0.61762642793E+02  0.10566000000E+00 0. -1.
         23    2    1    0    0    0  0.17461717968E+02  0.22165725726E+02 -0.83478434154E+01  0.95573524149E+02  0.90930638606E+02 0.  0.
         13    1    3    3    0    0 -0.13088303248E+02 -0.31118958732E+02 -0.18631316484E+01  0.33810881356E+02  0.10566000000E+00 0.  1.
         22    1    1    0    0    0 -0.17461717968E+02 -0.22165725726E+02  0.83478434154E+01  0.29426475851E+02  0.00000000000E+00 0. -1.
</event>
<event>
 5    1  0.6978980E-004  0.9118800E+02  0.7818608E-02  0.1130116E+00
         25   -1    0    0    0    0  0.00000000000E+00  0.00000000000E+00  0.99999998245E-14  0.12500000000E+03  0.12500000000E+03 0.  0.
        -13    1    3    3    0    0  0.20850572732E+02 -0.50713593559E+02  0.20509828611E+02  0.58542968737E+02  0.10566000000E+00 0. -1.
         23    2    1    0    0    0  0.14925333093E+02 -0.15594430188E+02 -0.55946463523E+01  0.10270085453E+03  0.10025075378E+03 0.  0.
         13    1    3    3    0    0 -0.59252396385E+01  0.35119163371E+02 -0.26104474963E+02  0.44157885794E+02  0.10566000000E+00 0.  1.
         22    1    1    0    0    0 -0.14925333093E+02  0.15594430188E+02  0.55946463523E+01  0.22299145469E+02  0.00000000000E+00 0. -1.
</event>
<event>
 5    1  0.6978980E-004  0.9118800E+02  0.7818608E-02  0.1130116E+00
         25   -1    0    0    0    0  0.00000000000E+00  0.00000000000E+00  0.99999998245E-14  0.12500000000E+03  0.12500000000E+03 0.  0.
        -13    1    3    3    0    0 -0.35248769871E+02 -0.44624446862E+02  0.20723467753E+02  0.60525121354E+02  0.10566000000E+00 0.  1.
         23    2    1    0    0    0 -0.21773478778E+02 -0.28537902123E+02  0.13603661595E+01  0.89078602035E+02  0.81514725717E+02 0.  0.
         13    1    3    3    0    0  0.13475291093E+02  0.16086544738E+02 -0.19363101593E+02  0.28553480681E+02  0.10566000000E+00 0. -1.
         22    1    1    0    0    0  0.21773478778E+02  0.28537902123E+02 -0.13603661595E+01  0.35921397965E+02  0.00000000000E+00 0.  1.
</event>
<event>
 5    1  0.6978980E-004  0.9118800E+02  0.7818608E-02  0.1130116E+00
         25   -1    0    0    0    0  0.00000000000E+00  0.00000000000E+00  0.99999998245E-14  0.12500000000E+03  0.12500000000E+03 0.  0.
        -13    1    3    3    0    0  0.46416344860E+02 -0.34253340765E+02 -0.10375820719E+02  0.58612603110E+02  0.10566000000E+00 0.  1.
         23    2    1    0    0    0  0.11447316407E+02 -0.26597796171E+02  0.54353686248E+00  0.96038314165E+02  0.91567344296E+02 0.  0.
         13    1    3    3    0    0 -0.34969028453E+02  0.76555445946E+01  0.10919357581E+02  0.37425711055E+02  0.10566000000E+00 0. -1.
         22    1    1    0    0    0 -0.11447316407E+02  0.26597796171E+02 -0.54353686248E+00  0.28961685835E+02  0.00000000000E+00 0.  1.
</event>
<event>
 5    1  0.6978980E-004  0.9118800E+02  0.7818608E-02  0.1130116E+00
         25   -1    0    0    0    0  0.00000000000E+00  0.00000000000E+00  0.99999998245E-14  0.12500000000E+03  0.12500000000E+03 0.  0.
        -13    1    3    3    0    0  0.59188852258E+01  0.49406621622E+02 -0.22248910349E+02  0.54507546617E+02  0.10566000000E+00 0. -1.
         23    2    1    0    0    0  0.49626242469E+01  0.29589224561E+02  0.10848565736E+02  0.93096375942E+02  0.87459098929E+02 0.  0.
         13    1    3    3    0    0 -0.95626097888E+00 -0.19817397062E+02  0.33097476085E+02  0.38588829324E+02  0.10566000000E+00 0.  1.
         22    1    1    0    0    0 -0.49626242469E+01 -0.29589224561E+02 -0.10848565736E+02  0.31903624058E+02  0.00000000000E+00 0. -1.
</event>
<event>
 5    1  0.6978980E-004  0.9118800E+02  0.7818608E-02  0.1130116E+00
         25   -1    0    0    0    0  0.00000000000E+00  0.00000000000E+00  0.99999998245E-14  0.12500000000E+03  0.12500000000E+03 0.  0.
        -13    1    3    3    0    0  0.42450081751E+00  0.65234106769E+01 -0.30901251856E+02  0.31585338658E+02  0.10566000000E+00 0. -1.
         23    2    1    0    0    0 -0.13751506558E+02  0.10807485914E+02  0.27816423626E+02  0.92141833469E+02  0.86084019233E+02 0.  0.
         13    1    3    3    0    0 -0.14176007376E+02  0.42840752367E+01  0.58717675483E+02  0.60556494812E+02  0.10566000000E+00 0.  1.
         22    1    1    0    0    0  0.13751506558E+02 -0.10807485914E+02 -0.27816423626E+02  0.32858166531E+02  0.00000000000E+00 0.  1.
</event>
<event>
 5    1  0.6978980E-004  0.9118800E+02  0.7818608E-02  0.1130116E+00
         25   -1    0    0    0    0  0.00000000000E+00  0.00000000000E+00  0.99999998245E-14  0.12500000000E+03  0.12500000000E+03 0.  0.
        -13    1    3    3    0    0  0.35216378644E+01  0.16102640321E+02  0.43069796729E+02  0.46116325882E+02  0.10566000000E+00 0. -1.
         23    2    1    0    0    0  0.28568590822E+02 -0.59421486331E+01  0.75314674054E+01  0.94863701070E+02  0.89949570691E+02 0.  0.
         13    1    3    3    0    0  0.25046952958E+02 -0.22044788954E+02 -0.35538329324E+02  0.48747375187E+02  0.10566000000E+00 0.  1.
         22    1    1    0    0    0 -0.28568590822E+02  0.59421486331E+01 -0.75314674054E+01  0.30136298930E+02  0.00000000000E+00 0. -1.
</event>
<event>
 5    1  0.6978980E-004  0.9118800E+02  0.7818608E-02  0.1130116E+00
         25   -1    0    0    0    0  0.00000000000E+00  0.00000000000E+00  0.99999998245E-14  0.12500000000E+03  0.12500000000E+03 0.  0.
        -13    1    3    3    0    0  0.80930164173E+01  0.81324480621E+01 -0.37573630479E+02  0.39286416197E+02  0.10566000000E+00 0. -1.
         23    2    1    0    0    0 -0.15733882680E+01 -0.30383391763E+02  0.87897217401E+00  0.94563202571E+02  0.89531003807E+02 0.  0.
         13    1    3    3    0    0 -0.96664046854E+01 -0.38515839825E+02  0.38452602653E+02  0.55276786374E+02  0.10566000000E+00 0.  1.
         22    1    1    0    0    0  0.15733882680E+01  0.30383391763E+02 -0.87897217401E+00  0.30436797429E+02  0.00000000000E+00 0.  1.
</event>
<event>
 5    1  0.6978980E-004  0.9118800E+02  0.7818608E-02  0.1130116E+00
         25   -1    0    0    0    0  0.00000000000E+00  0.00000000000E+00  0.99999998245E-14  0.12500000000E+03  0.12500000000E+03 0.  0.
        -13    1    3    3    0    0 -0.29487647301E+02 -0.44897724782E+01  0.41724780472E+02  0.51289841779E+02  0.10566000000E+00 0.  1.
         23    2    1    0    0    0 -0.54803786585E+01  0.11935748329E+02  0.42629957723E+02  0.80392714341E+02  0.66881825523E+02 0.  0.
         13    1    3    3    0    0  0.24007268642E+02  0.16425520807E+02  0.90517725024E+00  0.29102872562E+02  0.10566000000E+00 0. -1.
         22    1    1    0    0    0  0.54803786585E+01 -0.11935748329E+02 -0.42629957723E+02  0.44607285659E+02  0.00000000000E+00 0.  1.
</event>
<event>
 5    1  0.6978980E-004  0.9118800E+02  0.7818608E-02  0.1130116E+00
         25   -1    0    0    0    0  0.00000000000E+00  0.00000000000E+00  0.99999998245E-14  0.12500000000E+03  0.12500000000E+03 0.  0.
        -13    1    3    3    0    0  0.16421542239E+02 -0.37821698077E+02  0.23155323500E+02  0.47289830465E+02  0.10566000000E+00 0.  1.
         23    2    1    0    0    0  0.29305472994E+02  0.16029103289E+01 -0.16260764077E+01  0.95605711551E+02  0.90974875036E+02 0.  0.
         13    1    3    3    0    0  0.12883930755E+02  0.39424608406E+02 -0.24781399908E+02  0.48315881086E+02  0.10566000000E+00 0. -1.
         22    1    1    0    0    0 -0.29305472994E+02 -0.16029103289E+01  0.16260764077E+01  0.29394288449E+02  0.00000000000E+00 0. -1.
</event>
<event>
 5    1  0.6978980E-004  0.9118800E+02  0.7818608E-02  0.1130116E+00
         25   -1    0    0    0    0  0.00000000000E+00  0.00000000000E+00  0.99999998245E-14  0.12500000000E+03  0.12500000000E+03 0.  0.
        -13    1    3    3    0    0  0.30004775769E+02  0.38232026095E+02 -0.14644503225E+02  0.50758713804E+02  0.10566000000E+00 0.  1.
         23    2    1    0    0    0  0.31452574879E+01  0.12420142375E+02 -0.31010432353E+02  0.91447064271E+02  0.85069184008E+02 0.  0.
         13    1    3    3    0    0 -0.26859518281E+02 -0.25811883720E+02 -0.16365929129E+02  0.40688350467E+02  0.10566000000E+00 0. -1.
         22    1    1    0    0    0 -0.31452574879E+01 -0.12420142375E+02  0.31010432353E+02  0.33552935729E+02  0.00000000000E+00 0. -1.
</event>
<event>
 5    1  0.6978980E-004  0.9118800E+02  0.7818608E-02  0.1130116E+00
         25   -1    0    0    0    0  0.00000000000E+00  0.00000000000E+00  0.99999998245E-14  0.12500000000E+03  0.12500000000E+03 0.  0.
        -13    1    3    3    0    0 -0.18800988174E+02  0.37957539011E+02  0.89504599054E+01  0.43294039089E+02  0.10566000000E+00 0. -1.
         23    2    1    0    0    0  0.23735010070E+02  0.14475734088E+02 -0.10012903930E+02  0.95450789765E+02  0.90761761999E+02 0.  0.
         13    1    3    3    0    0  0.42535998244E+02 -0.23481804923E+02 -0.18963363836E+02  0.52156750676E+02  0.10566000000E+00 0.  1.
         22    1    1    0    0    0 -0.23735010070E+02 -0.14475734088E+02  0.10012903930E+02  0.29549210235E+02  0.00000000000E+00 0.  1.
</event>
<event>
 5    1  0.6978980E-004  0.9118800E+02  0.7818608E-02  0.1130116E+00
         25   -1    0    0    0    0  0.00000000000E+00  0.00000000000E+00  0.99999998245E-14  0.12500000000E+03  0.12500000000E+03 0.  0.
        -13    1    3    3    0    0  0.24063831898E+02 -0.25207544836E+02  0.14892636691E+02  0.37898418356E+02  0.10566000000E+00 0. -1.
         23    2    1    0    0    0 -0.96489328879E+01  0.22107622613E+02  0.16084023975E+02  0.96007850878E+02  0.91525748942E+02 0.  0.
         13    1    3    3    0    0 -0.33712764786E+02  0.47315167449E+02  0.11913872845E+01  0.58109432522E+02  0.10566000000E+00 0.  1.
         22    1    1    0    0    0  0.96489328879E+01 -0.22107622613E+02 -0.16084023975E+02  0.28992149122E+02  0.00000000000E+00 0.  1.
</event>
<event>
 5    1  0.6978980E-004  0.9118800E+02  0.7818608E-02  0.1130116E+00
         25   -1    0    0    0    0  0.00000000000E+00  0.00000000000E+00  0.99999998245E-14  0.12500000000E+03  0.12500000000E+03 0.  0.
        -13    1    3    3    0    0  0.22021098562E+02 -0.27371682566E+02 -0.48256017752E+01  0.35460335375E+02  0.10566000000E+00 0.  1.
         23    2    1    0    0    0 -0.84118580829E+01  0.23379539194E+02  0.12588897914E+02  0.97146049472E+02  0.93067246483E+02 0.  0.
         13    1    3    3    0    0 -0.30432956645E+02  0.50751221760E+02  0.17414499689E+02  0.61685714097E+02  0.10566000000E+00 0. -1.
         22    1    1    0    0    0  0.84118580829E+01 -0.23379539194E+02 -0.12588897914E+02  0.27853950528E+02  0.00000000000E+00 0. -1.
</event>
<event>
 5    1  0.6978980E-004  0.9118800E+02  0.7818608E-02  0.1130116E+00
         25   -1    0    0    0    0  0.00000000000E+00  0.00000000000E+00  0.99999998245E-14  0.12500000000E+03  0.12500000000E+03 0.  0.
        -13    1    3    3    0    0  0.22318026643E+02 -0.46864303577E+02 -0.18365427967E+02  0.55060488297E+02  0.10566000000E+00 0. -1.
         23    2    1    0    0    0  0.15606947851E+02 -0.77964889959E+01 -0.24241083933E+02  0.95133761332E+02  0.90324085011E+02 0.  0.
         13    1    3    3    0    0 -0.67110787913E+01  0.39067814582E+02 -0.58756559664E+01  0.40073273036E+02  0.10566000000E+00 0.  1.
         22    1    1    0    0    0 -0.15606947851E+02  0.77964889959E+01  0.24241083933E+02  0.29866238668E+02  0.00000000000E+00 0. -1.
</event>
<event>
 5    1  0.6978980E-004  0.9118800E+02  0.7818608E-02  0.1130116E+00
         25   -1    0    0    0    0  0.00000000000E+00  0.00000000000E+00  0.99999998245E-14  0.12500000000E+03  0.12500000000E+03 0.  0.
        -13    1    3    3    0    0  0.12865875528E+02  0.16736233609E+02  0.29640082614E+02  0.36389255693E+02  0.10566000000E+00 0. -1.
         23    2    1    0    0    0  0.11594085985E+01  0.13962254045E+02 -0.27154531719E+02  0.94444192709E+02  0.89364692005E+02 0.  0.
         13    1    3    3    0    0 -0.11706466929E+02 -0.27739795640E+01 -0.56794614333E+02  0.58054937016E+02  0.10566000000E+00 0.  1.
         22    1    1    0    0    0 -0.11594085985E+01 -0.13962254045E+02  0.27154531719E+02  0.30555807291E+02  0.00000000000E+00 0.  1.
</event>
<event>
 5    1  0.6978980E-004  0.9118800E+02  0.7818608E-02  0.1130116E+00
         25   -1    0    0    0    0  0.00000000000E+00  0.00000000000E+00  0.99999998245E-14  0.12500000000E+03  0.12500000000E+03 0.  0.
        -13    1    3    3    0    0 -0.88400272771E+01 -0.30066402361E+02  0.16933989677E+02  0.35621704109E+02  0.10566000000E+00 0. -1.
         23    2    1    0    0    0  0.24602442103E+01  0.33237961932E+01 -0.30221666375E+02  0.94496729009E+02  0.89438147634E+02 0.  0.
         13    1    3    3    0    0  0.11300271487E+02  0.33390198554E+02 -0.47155656052E+02  0.58875024900E+02  0.10566000000E+00 0.  1.
         22    1    1    0    0    0 -0.24602442103E+01 -0.33237961932E+01  0.30221666375E+02  0.30503270991E+02  0.00000000000E+00 0.  1.
</event>
<event>
 5    1  0.6978980E-004  0.9118800E+02  0.7818608E-02  0.1130116E+00
         25   -1    0    0    0    0  0.00000000000E+00  0.00000000000E+00  0.99999998245E-14  0.12500000000E+03  0.12500000000E+03 0.  0.
        -13    1    3    3    0    0 -0.37590426193E+02 -0.45133914482E+02 -0.45185304337E+01  0.58911277861E+02  0.10566000000E+00 0. -1.
         23    2    1    0    0    0 -0.29731402728E+02 -0.12973278651E+02  0.13445406895E+01  0.92533554910E+02  0.86650959184E+02 0.  0.
         13    1    3    3    0    0  0.78590234655E+01  0.32160635831E+02  0.58630711232E+01  0.33622277049E+02  0.10566000000E+00 0.  1.
         22    1    1    0    0    0  0.29731402728E+02  0.12973278651E+02 -0.13445406895E+01  0.32466445090E+02  0.00000000000E+00 0. -1.
</event>
<event>
 5    1  0.6978980E-004  0.9118800E+02  0.7818608E-02  0.1130116E+00
         25   -1    0    0    0    0  0.00000000000E+00  0.00000000000E+00  0.99999998245E-14  0.12500000000E+03  0.12500000000E+03 0.  0.
        -13    1    3    3    0    0  0.31828451432E+02  0.18743713158E+02 -0.15431193370E+01  0.36969845615E+02  0.10566000000E+00 0. -1.
         23    2    1    0    0    0  0.14655467513E+01 -0.29978794398E+02 -0.53802753780E+01  0.94506995819E+02  0.89452495521E+02 0.  0.
         13    1    3    3    0    0 -0.30362904680E+02 -0.48722507556E+02 -0.38371560410E+01  0.57537150204E+02  0.10566000000E+00 0.  1.
         22    1    1    0    0    0 -0.14655467513E+01  0.29978794398E+02  0.53802753780E+01  0.30493004181E+02  0.00000000000E+00 0.  1.
</event>
<event>
 5    1  0.6978980E-004  0.9118800E+02  0.7818608E-02  0.1130116E+00
         25   -1    0    0    0    0  0.00000000000E+00  0.00000000000E+00  0.99999998245E-14  0.12500000000E+03  0.12500000000E+03 0.  0.
        -13    1    3    3    0    0 -0.46931859799E+02  0.65173736835E+00 -0.10660802309E+02  0.48131986201E+02  0.10566000000E+00 0.  1.
         23    2    1    0    0    0 -0.15342247688E+02 -0.27660356572E+02 -0.13416638594E+02  0.90641797472E+02  0.83877585611E+02 0.  0.
         13    1    3    3    0    0  0.31589612111E+02 -0.28312093940E+02 -0.27558362851E+01  0.42509811271E+02  0.10566000000E+00 0. -1.
         22    1    1    0    0    0  0.15342247688E+02  0.27660356572E+02  0.13416638594E+02  0.34358202528E+02  0.00000000000E+00 0.  1.
</event>
<event>
 5    1  0.6978980E-004  0.9118800E+02  0.7818608E-02  0.1130116E+00
         25   -1    0    0    0    0  0.00000000000E+00  0.00000000000E+00  0.99999998245E-14  0.12500000000E+03  0.12500000000E+03 0.  0.
        -13    1    3    3    0    0  0.12663111520E+02 -0.29496657813E+02 -0.23553785929E+02  0.39814560291E+02  0.10566000000E+00 0.  1.
         23    2    1    0    0    0  0.18343347957E+02  0.21653517382E+02  0.48599422500E+00  0.96617092826E+02  0.92354064374E+02 0.  0.
         13    1    3    3    0    0  0.56802364368E+01  0.51150175195E+02  0.24039780154E+02  0.56802532535E+02  0.10566000000E+00 0. -1.
         22    1    1    0    0    0 -0.18343347957E+02 -0.21653517382E+02 -0.48599422500E+00  0.28382907174E+02  0.00000000000E+00 0. -1.
</event>
<event>
 5    1  0.6978980E-004  0.9118800E+02  0.7818608E-02  0.1130116E+00
         25   -1    0    0    0    0  0.00000000000E+00  0.00000000000E+00  0.99999998245E-14  0.12500000000E+03  0.12500000000E+03 0.  0.
        -13    1    3    3    0    0 -0.33635734104E+02  0.44959725201E+02 -0.70430628420E+00  0.56153777346E+02  0.10566000000E+00 0.  1.
         23    2    1    0    0    0  0.57063540205E+00  0.25734852146E+02 -0.11434755713E+02  0.96833319721E+02  0.92646262365E+02 0.  0.
         13    1    3    3    0    0  0.34206369506E+02 -0.19224873055E+02 -0.10730449429E+02  0.40679542374E+02  0.10566000000E+00 0. -1.
         22    1    1    0    0    0 -0.57063540205E+00 -0.25734852146E+02  0.11434755713E+02  0.28166680279E+02  0.00000000000E+00 0.  1.
</event>
<event>
 5    1  0.6978980E-004  0.9118800E+02  0.7818608E-02  0.1130116E+00
         25   -1    0    0    0    0  0.00000000000E+00  0.00000000000E+00  0.99999998245E-14  0.12500000000E+03  0.12500000000E+03 0.  0.
        -13    1    3    3    0    0 -0.55646645453E+00 -0.25037222654E+02 -0.25582227161E+02  0.35799911784E+02  0.10566000000E+00 0. -1.
         23    2    1    0    0    0 -0.44791359073E+01  0.28788305313E+02  0.76294998041E+00  0.95855338843E+02  0.91317220231E+02 0.  0.
         13    1    3    3    0    0 -0.39226694528E+01  0.53825527968E+02  0.26345177142E+02  0.60055427059E+02  0.10566000000E+00 0.  1.
         22    1    1    0    0    0  0.44791359073E+01 -0.28788305313E+02 -0.76294998041E+00  0.29144661157E+02  0.00000000000E+00 0.  1.
</event>
<event>
 5    1  0.6978980E-004  0.9118800E+02  0.7818608E-02  0.1130116E+00
         25   -1    0    0    0    0  0.00000000000E+00  0.00000000000E+00  0.99999998245E-14  0.12500000000E+03  0.12500000000E+03 0.  0.
        -13    1    3    3    0    0  0.51262249622E+02 -0.32489158583E+02 -0.29518546980E+01  0.60762556495E+02  0.10566000000E+00 0. -1.
         23    2    1    0    0    0  0.28236414173E+02 -0.11863708530E+02  0.76298991632E+01  0.93436444645E+02  0.87943795467E+02 0.  0.
         13    1    3    3    0    0 -0.23025835449E+02  0.20625450052E+02  0.10581753861E+02  0.32673888149E+02  0.10566000000E+00 0.  1.
         22    1    1    0    0    0 -0.28236414173E+02  0.11863708530E+02 -0.76298991632E+01  0.31563555355E+02  0.00000000000E+00 0. -1.
</event>
<event>
 5    1  0.6978980E-004  0.9118800E+02  0.7818608E-02  0.1130116E+00
         25   -1    0    0    0    0  0.00000000000E+00  0.00000000000E+00  0.99999998245E-14  0.12500000000E+03  0.12500000000E+03 0.  0.
        -13    1    3    3    0    0 -0.41833481464E+02  0.27835879286E+02  0.67704320815E+01  0.50702329943E+02  0.10566000000E+00 0.  1.
         23    2    1    0    0    0 -0.32349180403E+00  0.31839244496E+02 -0.10948948481E+01  0.93140292974E+02  0.87521844380E+02 0.  0.
         13    1    3    3    0    0  0.41509989660E+02  0.40033652102E+01 -0.78653269296E+01  0.42437963032E+02  0.10566000000E+00 0. -1.
         22    1    1    0    0    0  0.32349180403E+00 -0.31839244496E+02  0.10948948481E+01  0.31859707026E+02  0.00000000000E+00 0. -1.
</event>
<event>
 5    1  0.6978980E-004  0.9118800E+02  0.7818608E-02  0.1130116E+00
         25   -1    0    0    0    0  0.00000000000E+00  0.00000000000E+00  0.99999998245E-14  0.12500000000E+03  0.12500000000E+03 0.  0.
        -13    1    3    3    0    0  0.36790931331E+02 -0.42067538015E+02  0.58049573370E+00  0.55889162833E+02  0.10566000000E+00 0. -1.
         23    2    1    0    0    0  0.12725846039E+02 -0.19330095116E+02 -0.19608407145E+02  0.94667025115E+02  0.89675839995E+02 0.  0.
         13    1    3    3    0    0 -0.24065085291E+02  0.22737442900E+02 -0.20188902879E+02  0.38777862282E+02  0.10566000000E+00 0.  1.
         22    1    1    0    0    0 -0.12725846039E+02  0.19330095116E+02  0.19608407145E+02  0.30332974885E+02  0.00000000000E+00 0. -1.
</event>
<event>
 5    1  0.6978980E-004  0.9118800E+02  0.7818608E-02  0.1130116E+00
         25   -1    0    0    0    0  0.00000000000E+00  0.00000000000E+00  0.99999998245E-14  0.12500000000E+03  0.12500000000E+03 0.  0.
        -13    1    3    3    0    0  0.27986406462E+02  0.82220528175E+01  0.37441669701E+02  0.47462942315E+02  0.10566000000E+00 0.  1.
         23    2    1    0    0    0 -0.17085418216E+02  0.71482137324E+01  0.24344233549E+02  0.94411600528E+02  0.89319091643E+02 0.  0.
         13    1    3    3    0    0 -0.45071824678E+02 -0.10738390852E+01 -0.13097436152E+02  0.46948658213E+02  0.10566000000E+00 0. -1.
         22    1    1    0    0    0  0.17085418216E+02 -0.71482137324E+01 -0.24344233549E+02  0.30588399472E+02  0.00000000000E+00 0. -1.
</event>
<event>
 5    1  0.6978980E-004  0.9118800E+02  0.7818608E-02  0.1130116E+00
         25   -1    0    0    0    0  0.00000000000E+00  0.00000000000E+00  0.99999998245E-14  0.12500000000E+03  0.12500000000E+03 0.  0.
        -13    1    3    3    0    0 -0.14177554959E+02 -0.48453311179E+02  0.12465733208E+02  0.52001270151E+02  0.10566000000E+00 0.  1.
         23    2    1    0    0    0 -0.26088261103E+02 -0.54944732045E+01  0.95665194681E+01  0.96675012835E+02  0.92432425093E+02 0.  0.
         13    1    3    3    0    0 -0.11910706145E+02  0.42958837975E+02 -0.28992137398E+01  0.44673742684E+02  0.10566000000E+00 0. -1.
         22    1    1    0    0    0  0.26088261103E+02  0.54944732045E+01 -0.95665194681E+01  0.28324987165E+02  0.00000000000E+00 0. -1.
</event>
<event>
 5    1  0.6978980E-004  0.9118800E+02  0.7818608E-02  0.1130116E+00
         25   -1    0    0    0    0  0.00000000000E+00  0.00000000000E+00  0.99999998245E-14  0.12500000000E+03  0.12500000000E+03 0.  0.
        -13    1    3    3    0    0 -0.26841861922E+02  0.31103925610E+01  0.30484168253E+02  0.40736418245E+02  0.10566000000E+00 0. -1.
         23    2    1    0    0    0 -0.16021528737E+02  0.38474796497E+01 -0.23777505735E+02  0.96071428281E+02  0.91612537735E+02 0.  0.
         13    1    3    3    0    0  0.10820333185E+02  0.73708708873E+00 -0.54261673988E+02  0.55335010035E+02  0.10566000000E+00 0.  1.
         22    1    1    0    0    0  0.16021528737E+02 -0.38474796497E+01  0.23777505735E+02  0.28928571719E+02  0.00000000000E+00 0.  1.
</event>
<event>
 5    1  0.6978980E-004  0.9118800E+02  0.7818608E-02  0.1130116E+00
         25   -1    0    0    0    0  0.00000000000E+00  0.00000000000E+00  0.99999998245E-14  0.12500000000E+03  0.12500000000E+03 0.  0.
        -13    1    3    3    0    0  0.40449627667E+02 -0.99257633215E+01 -0.13347430256E+02  0.43736234570E+02  0.10566000000E+00 0. -1.
         23    2    1    0    0    0 -0.11369037083E+02 -0.18003084150E+02 -0.18972032853E+02  0.96481513475E+02  0.92170376850E+02 0.  0.
         13    1    3    3    0    0 -0.51818664751E+02 -0.80773208287E+01 -0.56246025962E+01  0.52745278904E+02  0.10566000000E+00 0.  1.
         22    1    1    0    0    0  0.11369037083E+02  0.18003084150E+02  0.18972032853E+02  0.28518486525E+02  0.00000000000E+00 0.  1.
</event>
<event>
 5    1  0.6978980E-004  0.9118800E+02  0.7818608E-02  0.1130116E+00
         25   -1    0    0    0    0  0.00000000000E+00  0.00000000000E+00  0.99999998245E-14  0.12500000000E+03  0.12500000000E+03 0.  0.
        -13    1    3    3    0    0 -0.26379400965E+01  0.48675614893E+02  0.29680121965E+02  0.57071840842E+02  0.10566000000E+00 0.  1.
         23    2    1    0    0    0 -0.12715623165E+01  0.93837543906E+01  0.26895575583E+02  0.96486078784E+02  0.92176568042E+02 0.  0.
         13    1    3    3    0    0  0.13663777800E+01 -0.39291860503E+02 -0.27845463821E+01  0.39414237942E+02  0.10566000000E+00 0. -1.
         22    1    1    0    0    0  0.12715623165E+01 -0.93837543906E+01 -0.26895575583E+02  0.28513921216E+02  0.00000000000E+00 0.  1.
</event>
<event>
 5    1  0.6978980E-004  0.9118800E+02  0.7818608E-02  0.1130116E+00
         25   -1    0    0    0    0  0.00000000000E+00  0.00000000000E+00  0.99999998245E-14  0.12500000000E+03  0.12500000000E+03 0.  0.
        -13    1    3    3    0    0 -0.45016267504E+02  0.61806646577E+01 -0.32640868466E+02  0.55947318200E+02  0.10566000000E+00 0.  1.
         23    2    1    0    0    0 -0.11822170402E+02  0.20578229266E+02 -0.18938983490E+02  0.94636990788E+02  0.89633965086E+02 0.  0.
         13    1    3    3    0    0  0.33194097102E+02  0.14397564609E+02  0.13701884976E+02  0.38689672588E+02  0.10566000000E+00 0. -1.
         22    1    1    0    0    0  0.11822170402E+02 -0.20578229266E+02  0.18938983490E+02  0.30363009212E+02  0.00000000000E+00 0.  1.
</event>
<event>
 5    1  0.6978980E-004  0.9118800E+02  0.7818608E-02  0.1130116E+00
         25   -1    0    0    0    0  0.00000000000E+00  0.00000000000E+00  0.99999998245E-14  0.12500000000E+03  0.12500000000E+03 0.  0.
        -13    1    3    3    0    0 -0.35790324475E+02  0.49850506874E+01 -0.17511784003E+02  0.40155594870E+02  0.10566000000E+00 0.  1.
         23    2    1    0    0    0  0.15612897602E+02 -0.12449525163E+02  0.11760747838E+02  0.10182526294E+03  0.99152991553E+02 0.  0.
         13    1    3    3    0    0  0.51403222076E+02 -0.17434575850E+02  0.29272531841E+02  0.61669668066E+02  0.10566000000E+00 0. -1.
         22    1    1    0    0    0 -0.15612897602E+02  0.12449525163E+02 -0.11760747838E+02  0.23174737065E+02  0.00000000000E+00 0. -1.
</event>
<event>
 5    1  0.6978980E-004  0.9118800E+02  0.7818608E-02  0.1130116E+00
         25   -1    0    0    0    0  0.00000000000E+00  0.00000000000E+00  0.99999998245E-14  0.12500000000E+03  0.12500000000E+03 0.  0.
        -13    1    3    3    0    0  0.27524422032E+02 -0.12002534371E+02  0.45843150956E+02  0.54802009937E+02  0.10566000000E+00 0.  1.
         23    2    1    0    0    0  0.28317091394E+02  0.29563291849E+01  0.81154213727E+01  0.95394973209E+02  0.90684857072E+02 0.  0.
         13    1    3    3    0    0  0.79266936124E+00  0.14958863555E+02 -0.37727729584E+02  0.40592963272E+02  0.10566000000E+00 0. -1.
         22    1    1    0    0    0 -0.28317091394E+02 -0.29563291849E+01 -0.81154213727E+01  0.29605026791E+02  0.00000000000E+00 0.  1.
</event>
<event>
 5    1  0.6978980E-004  0.9118800E+02  0.7818608E-02  0.1130116E+00
         25   -1    0    0    0    0  0.00000000000E+00  0.00000000000E+00  0.99999998245E-14  0.12500000000E+03  0.12500000000E+03 0.  0.
        -13    1    3    3    0    0 -0.35016598028E+01 -0.34849503967E+02  0.20941822182E+02  0.40808340182E+02  0.10566000000E+00 0. -1.
         23    2    1    0    0    0  0.28193035496E+01  0.19356303541E+02  0.22220498541E+02  0.95396528672E+02  0.90687001097E+02 0.  0.
         13    1    3    3    0    0  0.63209633524E+01  0.54205807508E+02  0.12786763591E+01  0.54588188490E+02  0.10566000000E+00 0.  1.
         22    1    1    0    0    0 -0.28193035496E+01 -0.19356303541E+02 -0.22220498541E+02  0.29603471328E+02  0.00000000000E+00 0.  1.
</event>
<event>
 5    1  0.6978980E-004  0.9118800E+02  0.7818608E-02  0.1130116E+00
         25   -1    0    0    0    0  0.00000000000E+00  0.00000000000E+00  0.99999998245E-14  0.12500000000E+03  0.12500000000E+03 0.  0.
        -13    1    3    3    0    0 -0.12149012798E+02  0.40022930708E+02  0.26785488785E+02  0.49667968228E+02  0.10566000000E+00 0. -1.
         23    2    1    0    0    0  0.77726759762E+01 -0.59991257156E+00  0.29003369761E+02  0.94967187204E+02  0.90093267235E+02 0.  0.
         13    1    3    3    0    0  0.19921688775E+02 -0.40622843280E+02  0.22178809760E+01  0.45299218976E+02  0.10566000000E+00 0.  1.
         22    1    1    0    0    0 -0.77726759762E+01  0.59991257156E+00 -0.29003369761E+02  0.30032812796E+02  0.00000000000E+00 0.  1.
</event>
<event>
 5    1  0.6978980E-004  0.9118800E+02  0.7818608E-02  0.1130116E+00
         25   -1    0    0    0    0  0.00000000000E+00  0.00000000000E+00  0.99999998245E-14  0.12500000000E+03  0.12500000000E+03 0.  0.
        -13    1    3    3    0    0  0.28884111249E+02  0.14778456682E+02  0.36616263830E+01  0.32651391032E+02  0.10566000000E+00 0.  1.
         23    2    1    0    0    0 -0.24255481809E+02 -0.11265411375E+02 -0.14531126851E+02  0.94563319189E+02  0.89531166625E+02 0.  0.
         13    1    3    3    0    0 -0.53139593058E+02 -0.26043868058E+02 -0.18192753234E+02  0.61911928156E+02  0.10566000000E+00 0. -1.
         22    1    1    0    0    0  0.24255481809E+02  0.11265411375E+02  0.14531126851E+02  0.30436680811E+02  0.00000000000E+00 0. -1.
</event>
<event>
 5    1  0.6978980E-004  0.9118800E+02  0.7818608E-02  0.1130116E+00
         25   -1    0    0    0    0  0.00000000000E+00  0.00000000000E+00  0.99999998245E-14  0.12500000000E+03  0.12500000000E+03 0.  0.
        -13    1    3    3    0    0  0.89411161404E+01  0.61872101762E+01 -0.40961686119E+02  0.42380373068E+02  0.10566000000E+00 0.  1.
         23    2    1    0    0    0  0.27632234127E+02 -0.45889139739E+01  0.79868245950E+01  0.95872901597E+02  0.91341257924E+02 0.  0.
         13    1    3    3    0    0  0.18691117986E+02 -0.10776124150E+02  0.48948510714E+02  0.53492528529E+02  0.10566000000E+00 0. -1.
         22    1    1    0    0    0 -0.27632234127E+02  0.45889139739E+01 -0.79868245950E+01  0.29127098403E+02  0.00000000000E+00 0. -1.
</event>
<event>
 5    1  0.6978980E-004  0.9118800E+02  0.7818608E-02  0.1130116E+00
         25   -1    0    0    0    0  0.00000000000E+00  0.00000000000E+00  0.99999998245E-14  0.12500000000E+03  0.12500000000E+03 0.  0.
        -13    1    3    3    0    0  0.32119014065E+00  0.32002686478E+02 -0.31008122993E+02  0.44562203272E+02  0.10566000000E+00 0.  1.
         23    2    1    0    0    0 -0.11812391235E+02 -0.18028840249E+02 -0.15902623879E+02  0.98214460737E+02  0.94491349785E+02 0.  0.
         13    1    3    3    0    0 -0.12133581375E+02 -0.50031526726E+02  0.15105499114E+02  0.53652257465E+02  0.10566000000E+00 0. -1.
         22    1    1    0    0    0  0.11812391235E+02  0.18028840249E+02  0.15902623879E+02  0.26785539263E+02  0.00000000000E+00 0. -1.
</event>
<event>
 5    1  0.6978980E-004  0.9118800E+02  0.7818608E-02  0.1130116E+00
         25   -1    0    0    0    0  0.00000000000E+00  0.00000000000E+00  0.99999998245E-14  0.12500000000E+03  0.12500000000E+03 0.  0.
        -13    1    3    3    0    0  0.31879674372E+02  0.23895251102E+02  0.21766492265E+01  0.39900446479E+02  0.10566000000E+00 0.  1.
         23    2    1    0    0    0 -0.99905101403E+01  0.72148186285E-01 -0.26993415191E+02  0.96217019579E+02  0.91810973717E+02 0.  0.
         13    1    3    3    0    0 -0.41870184513E+02 -0.23823102916E+02 -0.29170064417E+02  0.56316573101E+02  0.10566000000E+00 0. -1.
         22    1    1    0    0    0  0.99905101403E+01 -0.72148186285E-01  0.26993415191E+02  0.28782980421E+02  0.00000000000E+00 0. -1.
</event>
<event>
 5    1  0.6978980E-004  0.9118800E+02  0.7818608E-02  0.1130116E+00
         25   -1    0    0    0    0  0.00000000000E+00  0.00000000000E+00  0.99999998245E-14  0.12500000000E+03  0.12500000000E+03 0.  0.
        -13    1    3    3    0    0  0.29068190832E+02  0.30813097964E+02 -0.38479501770E+02  0.57228401558E+02  0.10566000000E+00 0. -1.
         23    2    1    0    0    0  0.27535862950E+02  0.73738150434E+01 -0.86214566872E+01  0.95218690222E+02  0.90441542200E+02 0.  0.
         13    1    3    3    0    0 -0.15323278826E+01 -0.23439282921E+02  0.29858045083E+02  0.37990288664E+02  0.10566000000E+00 0.  1.
         22    1    1    0    0    0 -0.27535862950E+02 -0.73738150434E+01  0.86214566872E+01  0.29781309778E+02  0.00000000000E+00 0. -1.
</event>
<event>
 5    1  0.6978980E-004  0.9118800E+02  0.7818608E-02  0.1130116E+00
         25   -1    0    0    0    0  0.00000000000E+00  0.00000000000E+00  0.99999998245E-14  0.12500000000E+03  0.12500000000E+03 0.  0.
        -13    1    3    3    0    0 -0.19057736388E+01  0.38942680950E+02  0.13106747368E+02  0.41133470110E+02  0.10566000000E+00 0.  1.
         23    2    1    0    0    0 -0.81849860744E+01 -0.12411339166E+02  0.26534593513E+02  0.94584214792E+02  0.89560335517E+02 0.  0.
         13    1    3    3    0    0 -0.62792124356E+01 -0.51354020116E+02  0.13427846146E+02  0.53450744681E+02  0.10566000000E+00 0. -1.
         22    1    1    0    0    0  0.81849860744E+01  0.12411339166E+02 -0.26534593513E+02  0.30415785208E+02  0.00000000000E+00 0. -1.
</event>
<event>
 5    1  0.6978980E-004  0.9118800E+02  0.7818608E-02  0.1130116E+00
         25   -1    0    0    0    0  0.00000000000E+00  0.00000000000E+00  0.99999998245E-14  0.12500000000E+03  0.12500000000E+03 0.  0.
        -13    1    3    3    0    0  0.53650820451E+02  0.22501035732E+02 -0.12579631412E+02  0.59522814404E+02  0.10566000000E+00 0. -1.
         23    2    1    0    0    0  0.25966740759E+02  0.14490878882E+02  0.71086203119E+01  0.94425669604E+02  0.89338778820E+02 0.  0.
         13    1    3    3    0    0 -0.27684079692E+02 -0.80101568503E+01  0.19688251724E+02  0.34902855200E+02  0.10566000000E+00 0.  1.
         22    1    1    0    0    0 -0.25966740759E+02 -0.14490878882E+02 -0.71086203119E+01  0.30574330396E+02  0.00000000000E+00 0. -1.
</event>
<event>
 5    1  0.6978980E-004  0.9118800E+02  0.7818608E-02  0.1130116E+00
         25   -1    0    0    0    0  0.00000000000E+00  0.00000000000E+00  0.99999998245E-14  0.12500000000E+03  0.12500000000E+03 0.  0.
        -13    1    3    3    0    0  0.17505341713E+02 -0.12177111642E+02 -0.18232919134E+02  0.28056541850E+02  0.10566000000E+00 0.  1.
         23    2    1    0    0    0 -0.34783149773E+01  0.10968467020E+02  0.34102977025E+02  0.89008070546E+02  0.81406496280E+02 0.  0.
         13    1    3    3    0    0 -0.20983656690E+02  0.23145578661E+02  0.52335896159E+02  0.60951528696E+02  0.10566000000E+00 0. -1.
         22    1    1    0    0    0  0.34783149773E+01 -0.10968467020E+02 -0.34102977025E+02  0.35991929454E+02  0.00000000000E+00 0. -1.
</event>
<event>
 5    1  0.6978980E-004  0.9118800E+02  0.7818608E-02  0.1130116E+00
         25   -1    0    0    0    0  0.00000000000E+00  0.00000000000E+00  0.99999998245E-14  0.12500000000E+03  0.12500000000E+03 0.  0.
        -13    1    3    3    0    0  0.13064621199E+01 -0.37084384258E+02  0.17381965701E+02  0.40976850717E+02  0.10566000000E+00 0.  1.
         23    2    1    0    0    0  0.23119424033E+02 -0.22804156079E+01 -0.18331825609E+02  0.95406691751E+02  0.90701008472E+02 0.  0.
         13    1    3    3    0    0  0.21812961913E+02  0.34803968650E+02 -0.35713791310E+02  0.54429841034E+02  0.10566000000E+00 0. -1.
         22    1    1    0    0    0 -0.23119424033E+02  0.22804156079E+01  0.18331825609E+02  0.29593308249E+02  0.00000000000E+00 0. -1.
</event>
<event>
 5    1  0.6978980E-004  0.9118800E+02  0.7818608E-02  0.1130116E+00
         25   -1    0    0    0    0  0.00000000000E+00  0.00000000000E+00  0.99999998245E-14  0.12500000000E+03  0.12500000000E+03 0.  0.
        -13    1    3    3    0    0 -0.46543418566E+02  0.26053782683E+02 -0.24687624664E+02  0.58775669962E+02  0.10566000000E+00 0. -1.
         23    2    1    0    0    0 -0.14963861979E+02  0.72756764099E+01 -0.24337609173E+02  0.95518279345E+02  0.90854663260E+02 0.  0.
         13    1    3    3    0    0  0.31579556586E+02 -0.18778106273E+02  0.35001549124E+00  0.36742609383E+02  0.10566000000E+00 0.  1.
         22    1    1    0    0    0  0.14963861979E+02 -0.72756764099E+01  0.24337609173E+02  0.29481720655E+02  0.00000000000E+00 0. -1.
</event>
<event>
 5    1  0.6978980E-004  0.9118800E+02  0.7818608E-02  0.1130116E+00
         25   -1    0    0    0    0  0.00000000000E+00  0.00000000000E+00  0.99999998245E-14  0.12500000000E+03  0.12500000000E+03 0.  0.
        -13    1    3    3    0    0  0.82175124646E+01  0.30104453500E+02  0.37992357077E+02  0.49165394252E+02  0.10566000000E+00 0. -1.
         23    2    1    0    0    0 -0.20896486023E+02 -0.22713790213E+01  0.18990509056E+02  0.96672244618E+02  0.92428681449E+02 0.  0.
         13    1    3    3    0    0 -0.29113998488E+02 -0.32375832522E+02 -0.19001848021E+02  0.47506850366E+02  0.10566000000E+00 0.  1.
         22    1    1    0    0    0  0.20896486023E+02  0.22713790213E+01 -0.18990509056E+02  0.28327755382E+02  0.00000000000E+00 0.  1.
</event>
<event>
 5    1  0.6978980E-004  0.9118800E+02  0.7818608E-02  0.1130116E+00
         25   -1    0    0    0    0  0.00000000000E+00  0.00000000000E+00  0.99999998245E-14  0.12500000000E+03  0.12500000000E+03 0.  0.
        -13    1    3    3    0    0 -0.27230641906E+02  0.22688485660E+01  0.33202300886E+02  0.43000691630E+02  0.10566000000E+00 0. -1.
         23    2    1    0    0    0  0.18535301645E+02  0.68437687189E+01 -0.69495600439E+01  0.10405504924E+03  0.10192527808E+03 0.  0.
         13    1    3    3    0    0  0.45765943551E+02  0.45749201529E+01 -0.40151860930E+02  0.61054357615E+02  0.10566000000E+00 0.  1.
         22    1    1    0    0    0 -0.18535301645E+02 -0.68437687189E+01  0.69495600439E+01  0.20944950756E+02  0.00000000000E+00 0.  1.
</event>
<event>
 5    1  0.6978980E-004  0.9118800E+02  0.7818608E-02  0.1130116E+00
         25   -1    0    0    0    0  0.00000000000E+00  0.00000000000E+00  0.99999998245E-14  0.12500000000E+03  0.12500000000E+03 0.  0.
        -13    1    3    3    0    0 -0.30639663250E+02  0.57305534763E+01  0.17733564179E+02  0.35862496703E+02  0.10566000000E+00 0.  1.
         23    2    1    0    0    0  0.18007766443E+02  0.94169167071E+01 -0.19192297958E+02  0.97048215201E+02  0.92935750927E+02 0.  0.
         13    1    3    3    0    0  0.48647429693E+02  0.36863632308E+01 -0.36925862137E+02  0.61185718499E+02  0.10566000000E+00 0. -1.
         22    1    1    0    0    0 -0.18007766443E+02 -0.94169167071E+01  0.19192297958E+02  0.27951784799E+02  0.00000000000E+00 0. -1.
</event>
<event>
 5    1  0.6978980E-004  0.9118800E+02  0.7818608E-02  0.1130116E+00
         25   -1    0    0    0    0  0.00000000000E+00  0.00000000000E+00  0.99999998245E-14  0.12500000000E+03  0.12500000000E+03 0.  0.
        -13    1    3    3    0    0  0.18640680935E+02  0.23667117227E+02  0.41267169186E+02  0.51094009827E+02  0.10566000000E+00 0. -1.
         23    2    1    0    0    0 -0.14053011429E+02  0.23124045557E+02  0.10552211954E+02  0.95955933648E+02  0.91454816232E+02 0.  0.
         13    1    3    3    0    0 -0.32693692363E+02 -0.54307167025E+00 -0.30714957232E+02  0.44861923822E+02  0.10566000000E+00 0.  1.
         22    1    1    0    0    0  0.14053011429E+02 -0.23124045557E+02 -0.10552211954E+02  0.29044066352E+02  0.00000000000E+00 0.  1.
</event>
<event>
 5    1  0.6978980E-004  0.9118800E+02  0.7818608E-02  0.1130116E+00
         25   -1    0    0    0    0  0.00000000000E+00  0.00000000000E+00  0.99999998245E-14  0.12500000000E+03  0.12500000000E+03 0.  0.
        -13    1    3    3    0    0  0.84687888377E+01  0.46015581058E+02 -0.18612633115E+02  0.50354695511E+02  0.10566000000E+00 0.  1.
         23    2    1    0    0    0  0.94620577347E+01  0.17278402824E+01 -0.27788408155E+02  0.95594021077E+02  0.90958810839E+02 0.  0.
         13    1    3    3    0    0  0.99326889697E+00 -0.44287740775E+02 -0.91757750402E+01  0.45239325566E+02  0.10566000000E+00 0. -1.
         22    1    1    0    0    0 -0.94620577347E+01 -0.17278402824E+01  0.27788408155E+02  0.29405978923E+02  0.00000000000E+00 0.  1.
</event>
<event>
 5    1  0.6978980E-004  0.9118800E+02  0.7818608E-02  0.1130116E+00
         25   -1    0    0    0    0  0.00000000000E+00  0.00000000000E+00  0.99999998245E-14  0.12500000000E+03  0.12500000000E+03 0.  0.
        -13    1    3    3    0    0 -0.96192635240E+01  0.48006827663E+02 -0.21367291377E+02  0.53420576914E+02  0.10566000000E+00 0.  1.
         23    2    1    0    0    0 -0.80802496810E+01  0.25957737016E+02  0.13455734183E+02  0.94666003753E+02  0.89674416297E+02 0.  0.
         13    1    3    3    0    0  0.15390138430E+01 -0.22049090647E+02  0.34823025560E+02  0.41245426839E+02  0.10566000000E+00 0. -1.
         22    1    1    0    0    0  0.80802496810E+01 -0.25957737016E+02 -0.13455734183E+02  0.30333996247E+02  0.00000000000E+00 0.  1.
</event>
<event>
 5    1  0.6978980E-004  0.9118800E+02  0.7818608E-02  0.1130116E+00
         25   -1    0    0    0    0  0.00000000000E+00  0.00000000000E+00  0.99999998245E-14  0.12500000000E+03  0.12500000000E+03 0.  0.
        -13    1    3    3    0    0  0.70998983459E+01  0.41299717516E+02 -0.30386109739E+02  0.51762940919E+02  0.10566000000E+00 0.  1.
         23    2    1    0    0    0 -0.14431973800E+02  0.20826894314E+02  0.62199309619E+01  0.98909217419E+02  0.95405997478E+02 0.  0.
         13    1    3    3    0    0 -0.21531872146E+02 -0.20472823203E+02  0.36606040701E+02  0.47146276500E+02  0.10566000000E+00 0. -1.
         22    1    1    0    0    0  0.14431973800E+02 -0.20826894314E+02 -0.62199309619E+01  0.26090782581E+02  0.00000000000E+00 0.  1.
</event>
<event>
 5    1  0.6978980E-004  0.9118800E+02  0.7818608E-02  0.1130116E+00
         25   -1    0    0    0    0  0.00000000000E+00  0.00000000000E+00  0.99999998245E-14  0.12500000000E+03  0.12500000000E+03 0.  0.
        -13    1    3    3    0    0  0.19778137831E+01 -0.16767967857E+02  0.37003691615E+02  0.40673834963E+02  0.10566000000E+00 0. -1.
         23    2    1    0    0    0  0.25639651120E+02  0.14191031044E+02 -0.17665941105E+01  0.95641901860E+02  0.91024587145E+02 0.  0.
         13    1    3    3    0    0  0.23661837337E+02  0.30958998901E+02 -0.38770285725E+02  0.54968066897E+02  0.10566000000E+00 0.  1.
         22    1    1    0    0    0 -0.25639651120E+02 -0.14191031044E+02  0.17665941105E+01  0.29358098140E+02  0.00000000000E+00 0.  1.
</event>
<event>
 5    1  0.6978980E-004  0.9118800E+02  0.7818608E-02  0.1130116E+00
         25   -1    0    0    0    0  0.00000000000E+00  0.00000000000E+00  0.99999998245E-14  0.12500000000E+03  0.12500000000E+03 0.  0.
        -13    1    3    3    0    0  0.39408936012E+02  0.23677789401E+02  0.18728669301E+02  0.49643490674E+02  0.10566000000E+00 0. -1.
         23    2    1    0    0    0  0.26315985824E+02 -0.43262668225E+01 -0.14180437920E+02  0.94795157439E+02  0.89854267343E+02 0.  0.
         13    1    3    3    0    0 -0.13092950188E+02 -0.28004056223E+02 -0.32909107221E+02  0.45151666765E+02  0.10566000000E+00 0.  1.
         22    1    1    0    0    0 -0.26315985824E+02  0.43262668225E+01  0.14180437920E+02  0.30204842561E+02  0.00000000000E+00 0. -1.
</event>
<event>
 5    1  0.6978980E-004  0.9118800E+02  0.7818608E-02  0.1130116E+00
         25   -1    0    0    0    0  0.00000000000E+00  0.00000000000E+00  0.99999998245E-14  0.12500000000E+03  0.12500000000E+03 0.  0.
        -13    1    3    3    0    0  0.33828815456E+02  0.29227457372E+02 -0.15860372832E+01  0.44734323488E+02  0.10566000000E+00 0.  1.
         23    2    1    0    0    0 -0.13120597844E+02  0.18325488313E+02  0.17388745210E+02  0.96533492141E+02  0.92240842556E+02 0.  0.
         13    1    3    3    0    0 -0.46949413300E+02 -0.10901969059E+02  0.18974782493E+02  0.51799168654E+02  0.10566000000E+00 0. -1.
         22    1    1    0    0    0  0.13120597844E+02 -0.18325488313E+02 -0.17388745210E+02  0.28466507859E+02  0.00000000000E+00 0.  1.
</event>
<event>
 5    1  0.6978980E-004  0.9118800E+02  0.7818608E-02  0.1130116E+00
         25   -1    0    0    0    0  0.00000000000E+00  0.00000000000E+00  0.99999998245E-14  0.12500000000E+03  0.12500000000E+03 0.  0.
        -13    1    3    3    0    0  0.45255784505E+02  0.18295332455E+02 -0.31209449973E+02  0.57938296078E+02  0.10566000000E+00 0. -1.
         23    2    1    0    0    0  0.22674093238E+02  0.24628607746E+02 -0.27486084340E+02  0.81685248978E+02  0.69255413107E+02 0.  0.
         13    1    3    3    0    0 -0.22581691266E+02  0.63332752919E+01  0.37233656328E+01  0.23746952900E+02  0.10566000000E+00 0.  1.
         22    1    1    0    0    0 -0.22674093238E+02 -0.24628607746E+02  0.27486084340E+02  0.43314751022E+02  0.00000000000E+00 0. -1.
</event>
<event>
 5    1  0.6978980E-004  0.9118800E+02  0.7818608E-02  0.1130116E+00
         25   -1    0    0    0    0  0.00000000000E+00  0.00000000000E+00  0.99999998245E-14  0.12500000000E+03  0.12500000000E+03 0.  0.
        -13    1    3    3    0    0 -0.25078989064E+02 -0.27150720598E+02  0.12595748874E+01  0.36982631253E+02  0.10566000000E+00 0. -1.
         23    2    1    0    0    0 -0.15747249927E+01  0.21284261545E+02 -0.20832158135E+02  0.95175876193E+02  0.90382349207E+02 0.  0.
         13    1    3    3    0    0  0.23504264071E+02  0.48434982143E+02 -0.22091733022E+02  0.58193244940E+02  0.10566000000E+00 0.  1.
         22    1    1    0    0    0  0.15747249927E+01 -0.21284261545E+02  0.20832158135E+02  0.29824123807E+02  0.00000000000E+00 0.  1.
</event>
<event>
 5    1  0.6978980E-004  0.9118800E+02  0.7818608E-02  0.1130116E+00
         25   -1    0    0    0    0  0.00000000000E+00  0.00000000000E+00  0.99999998245E-14  0.12500000000E+03  0.12500000000E+03 0.  0.
        -13    1    3    3    0    0  0.66451504090E+01  0.47440352955E+02 -0.30205561777E+02  0.56631548087E+02  0.10566000000E+00 0.  1.
         23    2    1    0    0    0 -0.33606079403E+01  0.27988998783E+02  0.32707517628E+01  0.96620860554E+02  0.92359163803E+02 0.  0.
         13    1    3    3    0    0 -0.10005758349E+02 -0.19451354172E+02  0.33476313540E+02  0.39989312466E+02  0.10566000000E+00 0. -1.
         22    1    1    0    0    0  0.33606079403E+01 -0.27988998783E+02 -0.32707517628E+01  0.28379139446E+02  0.00000000000E+00 0.  1.
</event>
<event>
 5    1  0.6978980E-004  0.9118800E+02  0.7818608E-02  0.1130116E+00
         25   -1    0    0    0    0  0.00000000000E+00  0.00000000000E+00  0.99999998245E-14  0.12500000000E+03  0.12500000000E+03 0.  0.
        -13    1    3    3    0    0 -0.46482312592E+02 -0.36194308719E+02 -0.12405286386E+02  0.60204116653E+02  0.10566000000E+00 0. -1.
         23    2    1    0    0    0 -0.15562009095E+02 -0.18967377868E+02 -0.15887822524E+02  0.95770555003E+02  0.91201089636E+02 0.  0.
         13    1    3    3    0    0  0.30920303498E+02  0.17226930851E+02 -0.34825361384E+01  0.35566438350E+02  0.10566000000E+00 0.  1.
         22    1    1    0    0    0  0.15562009095E+02  0.18967377868E+02  0.15887822524E+02  0.29229444997E+02  0.00000000000E+00 0. -1.
</event>
<event>
 5    1  0.6978980E-004  0.9118800E+02  0.7818608E-02  0.1130116E+00
         25   -1    0    0    0    0  0.00000000000E+00  0.00000000000E+00  0.99999998245E-14  0.12500000000E+03  0.12500000000E+03 0.  0.
        -13    1    3    3    0    0 -0.33335431971E+02 -0.41391885017E+01  0.51935687189E+02  0.61852329576E+02  0.10566000000E+00 0. -1.
         23    2    1    0    0    0 -0.23903460468E+02 -0.59314171542E+01  0.27623659146E+02  0.87991572900E+02  0.79830402887E+02 0.  0.
         13    1    3    3    0    0  0.94319715027E+01 -0.17922286526E+01 -0.24312028043E+02  0.26139243324E+02  0.10566000000E+00 0.  1.
         22    1    1    0    0    0  0.23903460468E+02  0.59314171542E+01 -0.27623659146E+02  0.37008427100E+02  0.00000000000E+00 0. -1.
</event>
<event>
 5    1  0.6978980E-004  0.9118800E+02  0.7818608E-02  0.1130116E+00
         25   -1    0    0    0    0  0.00000000000E+00  0.00000000000E+00  0.99999998245E-14  0.12500000000E+03  0.12500000000E+03 0.  0.
        -13    1    3    3    0    0 -0.58892430228E+01  0.86595528446E+00 -0.32855831582E+02  0.33390865441E+02  0.10566000000E+00 0.  1.
         23    2    1    0    0    0 -0.41361440130E+01 -0.24821399294E+02  0.20440444189E+02  0.92580541200E+02  0.86718713667E+02 0.  0.
         13    1    3    3    0    0  0.17530990099E+01 -0.25687354579E+02  0.53296275771E+02  0.59189675759E+02  0.10566000000E+00 0. -1.
         22    1    1    0    0    0  0.41361440130E+01  0.24821399294E+02 -0.20440444189E+02  0.32419458800E+02  0.00000000000E+00 0. -1.
</event>
<event>
 5    1  0.6978980E-004  0.9118800E+02  0.7818608E-02  0.1130116E+00
         25   -1    0    0    0    0  0.00000000000E+00  0.00000000000E+00  0.99999998245E-14  0.12500000000E+03  0.12500000000E+03 0.  0.
        -13    1    3    3    0    0  0.31138386303E+02  0.41926748832E+02 -0.19105979016E+02  0.55610259551E+02  0.10566000000E+00 0. -1.
         23    2    1    0    0    0  0.16946431856E+02  0.40516477456E+01 -0.22889019570E+02  0.96233619988E+02  0.91833572276E+02 0.  0.
         13    1    3    3    0    0 -0.14191954448E+02 -0.37875101086E+02 -0.37830405545E+01  0.40623360437E+02  0.10566000000E+00 0.  1.
         22    1    1    0    0    0 -0.16946431856E+02 -0.40516477456E+01  0.22889019570E+02  0.28766380012E+02  0.00000000000E+00 0. -1.
</event>
<event>
 5    1  0.6978980E-004  0.9118800E+02  0.7818608E-02  0.1130116E+00
         25   -1    0    0    0    0  0.00000000000E+00  0.00000000000E+00  0.99999998245E-14  0.12500000000E+03  0.12500000000E+03 0.  0.
        -13    1    3    3    0    0 -0.15437828828E+01  0.39183509015E+02  0.19824158177E+01  0.39264128423E+02  0.10566000000E+00 0.  1.
         23    2    1    0    0    0 -0.28369364665E+02 -0.87431104062E+01 -0.58493511995E+01  0.94743137298E+02  0.89781870802E+02 0.  0.
         13    1    3    3    0    0 -0.26825581782E+02 -0.47926619421E+02 -0.78317670172E+01  0.55479008875E+02  0.10566000000E+00 0. -1.
         22    1    1    0    0    0  0.28369364665E+02  0.87431104062E+01  0.58493511995E+01  0.30256862702E+02  0.00000000000E+00 0. -1.
</event>
<event>
 5    1  0.6978980E-004  0.9118800E+02  0.7818608E-02  0.1130116E+00
         25   -1    0    0    0    0  0.00000000000E+00  0.00000000000E+00  0.99999998245E-14  0.12500000000E+03  0.12500000000E+03 0.  0.
        -13    1    3    3    0    0  0.40482076290E+02 -0.35242827784E+02  0.17119970341E+02  0.56337908725E+02  0.10566000000E+00 0. -1.
         23    2    1    0    0    0  0.29321721490E+02 -0.35382525905E+01 -0.26737627812E+01  0.95344788149E+02  0.90615655586E+02 0.  0.
         13    1    3    3    0    0 -0.11160354800E+02  0.31704575194E+02 -0.19793733122E+02  0.39006879424E+02  0.10566000000E+00 0.  1.
         22    1    1    0    0    0 -0.29321721490E+02  0.35382525905E+01  0.26737627812E+01  0.29655211851E+02  0.00000000000E+00 0. -1.
</event>
<event>
 5    1  0.6978980E-004  0.9118800E+02  0.7818608E-02  0.1130116E+00
         25   -1    0    0    0    0  0.00000000000E+00  0.00000000000E+00  0.99999998245E-14  0.12500000000E+03  0.12500000000E+03 0.  0.
        -13    1    3    3    0    0 -0.26665024124E+02  0.39506377842E+02 -0.32774550026E+02  0.57844271066E+02  0.10566000000E+00 0.  1.
         23    2    1    0    0    0  0.42338700688E+01  0.23062851552E+02 -0.15632476745E+02  0.96818532567E+02  0.92626309123E+02 0.  0.
         13    1    3    3    0    0  0.30898894193E+02 -0.16443526290E+02  0.17142073280E+02  0.38974261501E+02  0.10566000000E+00 0. -1.
         22    1    1    0    0    0 -0.42338700688E+01 -0.23062851552E+02  0.15632476745E+02  0.28181467433E+02  0.00000000000E+00 0.  1.
</event>
<event>
 5    1  0.6978980E-004  0.9118800E+02  0.7818608E-02  0.1130116E+00
         25   -1    0    0    0    0  0.00000000000E+00  0.00000000000E+00  0.99999998245E-14  0.12500000000E+03  0.12500000000E+03 0.  0.
        -13    1    3    3    0    0  0.43956517571E+02 -0.25290917629E+01 -0.27336874427E+02  0.51825549776E+02  0.10566000000E+00 0.  1.
         23    2    1    0    0    0  0.26419029665E+02  0.54256975500E+01  0.11890362797E+02  0.95524857086E+02  0.90863712622E+02 0.  0.
         13    1    3    3    0    0 -0.17537487906E+02  0.79547893129E+01  0.39227237225E+02  0.43699307310E+02  0.10566000000E+00 0. -1.
         22    1    1    0    0    0 -0.26419029665E+02 -0.54256975500E+01 -0.11890362797E+02  0.29475142914E+02  0.00000000000E+00 0.  1.
</event>
<event>
 5    1  0.6978980E-004  0.9118800E+02  0.7818608E-02  0.1130116E+00
         25   -1    0    0    0    0  0.00000000000E+00  0.00000000000E+00  0.99999998245E-14  0.12500000000E+03  0.12500000000E+03 0.  0.
        -13    1    3    3    0    0  0.11417540629E+02  0.18025299217E+02 -0.57727573122E+02  0.61544743955E+02  0.10566000000E+00 0.  1.
         23    2    1    0    0    0  0.41710365124E+01  0.75318628490E+00 -0.27998021368E+02  0.96682972690E+02  0.92443188892E+02 0.  0.
         13    1    3    3    0    0 -0.72465041164E+01 -0.17272112932E+02  0.29729551754E+02  0.35138228735E+02  0.10566000000E+00 0. -1.
         22    1    1    0    0    0 -0.41710365124E+01 -0.75318628490E+00  0.27998021368E+02  0.28317027310E+02  0.00000000000E+00 0.  1.
</event>
<event>
 5    1  0.6978980E-004  0.9118800E+02  0.7818608E-02  0.1130116E+00
         25   -1    0    0    0    0  0.00000000000E+00  0.00000000000E+00  0.99999998245E-14  0.12500000000E+03  0.12500000000E+03 0.  0.
        -13    1    3    3    0    0  0.34198999449E+02 -0.43068978893E+01  0.16609136587E+02  0.38262194330E+02  0.10566000000E+00 0.  1.
         23    2    1    0    0    0 -0.16894395080E+02 -0.24843944173E+02  0.49163139562E+01  0.94556408062E+02  0.89521517053E+02 0.  0.
         13    1    3    3    0    0 -0.51093394529E+02 -0.20537046284E+02 -0.11692822631E+02  0.56294213732E+02  0.10566000000E+00 0. -1.
         22    1    1    0    0    0  0.16894395080E+02  0.24843944173E+02 -0.49163139562E+01  0.30443591938E+02  0.00000000000E+00 0. -1.
</event>
<event>
 5    1  0.6978980E-004  0.9118800E+02  0.7818608E-02  0.1130116E+00
         25   -1    0    0    0    0  0.00000000000E+00  0.00000000000E+00  0.99999998245E-14  0.12500000000E+03  0.12500000000E+03 0.  0.
        -13    1    3    3    0    0  0.35664744457E+02  0.38978268310E+01 -0.89919856451E+01  0.36986943927E+02  0.10566000000E+00 0. -1.
         23    2    1    0    0    0 -0.17355315738E+02  0.10817861402E+02  0.18776082926E+02  0.97237175941E+02  0.93189559423E+02 0.  0.
         13    1    3    3    0    0 -0.53020060195E+02  0.69200345708E+01  0.27768068571E+02  0.60250232014E+02  0.10566000000E+00 0.  1.
         22    1    1    0    0    0  0.17355315738E+02 -0.10817861402E+02 -0.18776082926E+02  0.27762824059E+02  0.00000000000E+00 0.  1.
</event>
<event>
 5    1  0.6978980E-004  0.9118800E+02  0.7818608E-02  0.1130116E+00
         25   -1    0    0    0    0  0.00000000000E+00  0.00000000000E+00  0.99999998245E-14  0.12500000000E+03  0.12500000000E+03 0.  0.
        -13    1    3    3    0    0  0.39471872993E+02  0.87390203272E+01  0.30246545803E+02  0.50490235996E+02  0.10566000000E+00 0.  1.
         23    2    1    0    0    0 -0.52249891165E+01  0.38544443704E+01  0.28800617016E+02  0.95476572130E+02  0.90797263354E+02 0.  0.
         13    1    3    3    0    0 -0.44696862109E+02 -0.48845759567E+01 -0.14459287870E+01  0.44986336134E+02  0.10566000000E+00 0. -1.
         22    1    1    0    0    0  0.52249891165E+01 -0.38544443704E+01 -0.28800617016E+02  0.29523427870E+02  0.00000000000E+00 0.  1.
</event>
<event>
 5    1  0.6978980E-004  0.9118800E+02  0.7818608E-02  0.1130116E+00
         25   -1    0    0    0    0  0.00000000000E+00  0.00000000000E+00  0.99999998245E-14  0.12500000000E+03  0.12500000000E+03 0.  0.
        -13    1    3    3    0    0  0.96752207280E+01  0.39785918401E+02  0.23638504394E+02  0.47279162991E+02  0.10566000000E+00 0.  1.
         23    2    1    0    0    0 -0.11467466892E+02  0.21955833244E+02 -0.15925674102E+02  0.95551935447E+02  0.90900956330E+02 0.  0.
         13    1    3    3    0    0 -0.21142687620E+02 -0.17830085157E+02 -0.39564178496E+02  0.48272772456E+02  0.10566000000E+00 0. -1.
         22    1    1    0    0    0  0.11467466892E+02 -0.21955833244E+02  0.15925674102E+02  0.29448064553E+02  0.00000000000E+00 0.  1.
</event>
<event>
 5    1  0.6978980E-004  0.9118800E+02  0.7818608E-02  0.1130116E+00
         25   -1    0    0    0    0  0.00000000000E+00  0.00000000000E+00  0.99999998245E-14  0.12500000000E+03  0.12500000000E+03 0.  0.
        -13    1    3    3    0    0 -0.23146016141E+02  0.43372631545E+02  0.88527785895E+01  0.49953038778E+02  0.10566000000E+00 0.  1.
         23    2    1    0    0    0 -0.18261767358E+02  0.83137667426E+01 -0.20777712603E+02  0.96115329230E+02  0.91672418466E+02 0.  0.
         13    1    3    3    0    0  0.48842487830E+01 -0.35058864803E+02 -0.29630491193E+02  0.46162290452E+02  0.10566000000E+00 0. -1.
         22    1    1    0    0    0  0.18261767358E+02 -0.83137667426E+01  0.20777712603E+02  0.28884670770E+02  0.00000000000E+00 0.  1.
</event>
<event>
 5    1  0.6978980E-004  0.9118800E+02  0.7818608E-02  0.1130116E+00
         25   -1    0    0    0    0  0.00000000000E+00  0.00000000000E+00  0.99999998245E-14  0.12500000000E+03  0.12500000000E+03 0.  0.
        -13    1    3    3    0    0 -0.10644083450E+02  0.25196253897E+01 -0.46301071383E+02  0.47575680760E+02  0.10566000000E+00 0.  1.
         23    2    1    0    0    0 -0.18793945367E+02 -0.21513089182E+02 -0.50747055225E+01  0.95986588881E+02  0.91496706062E+02 0.  0.
         13    1    3    3    0    0 -0.81498619179E+01 -0.24032714572E+02  0.41226365860E+02  0.48410908120E+02  0.10566000000E+00 0. -1.
         22    1    1    0    0    0  0.18793945367E+02  0.21513089182E+02  0.50747055225E+01  0.29013411119E+02  0.00000000000E+00 0. -1.
</event>
<event>
 5    1  0.6978980E-004  0.9118800E+02  0.7818608E-02  0.1130116E+00
         25   -1    0    0    0    0  0.00000000000E+00  0.00000000000E+00  0.99999998245E-14  0.12500000000E+03  0.12500000000E+03 0.  0.
        -13    1    3    3    0    0 -0.31937573403E+02  0.48579100686E+01 -0.81220982371E+01  0.33310471761E+02  0.10566000000E+00 0.  1.
         23    2    1    0    0    0  0.29392076375E+02  0.25245876842E+00  0.15366181896E+01  0.95566701093E+02  0.90921258643E+02 0.  0.
         13    1    3    3    0    0  0.61329649778E+02 -0.46054513002E+01  0.96587164267E+01  0.62256229332E+02  0.10566000000E+00 0. -1.
         22    1    1    0    0    0 -0.29392076375E+02 -0.25245876842E+00 -0.15366181896E+01  0.29433298907E+02  0.00000000000E+00 0. -1.
</event>
<event>
 5    1  0.6978980E-004  0.9118800E+02  0.7818608E-02  0.1130116E+00
         25   -1    0    0    0    0  0.00000000000E+00  0.00000000000E+00  0.99999998245E-14  0.12500000000E+03  0.12500000000E+03 0.  0.
        -13    1    3    3    0    0  0.49553927019E+02  0.58696987442E+01 -0.50857558730E+01  0.50158958554E+02  0.10566000000E+00 0. -1.
         23    2    1    0    0    0  0.12437609496E+02  0.14948842120E+02 -0.25063524514E+02  0.93277101775E+02  0.87717019122E+02 0.  0.
         13    1    3    3    0    0 -0.37116317523E+02  0.90791433761E+01 -0.19977768641E+02  0.43118143221E+02  0.10566000000E+00 0.  1.
         22    1    1    0    0    0 -0.12437609496E+02 -0.14948842120E+02  0.25063524514E+02  0.31722898225E+02  0.00000000000E+00 0. -1.
</event>
<event>
 5    1  0.6978980E-004  0.9118800E+02  0.7818608E-02  0.1130116E+00
         25   -1    0    0    0    0  0.00000000000E+00  0.00000000000E+00  0.99999998245E-14  0.12500000000E+03  0.12500000000E+03 0.  0.
        -13    1    3    3    0    0 -0.34419423139E+02 -0.16887322672E+02 -0.53965434380E+01  0.38717078936E+02  0.10566000000E+00 0. -1.
         23    2    1    0    0    0  0.17018404020E+02  0.34025607613E+01  0.19097740852E+02  0.99194434694E+02  0.95778957363E+02 0.  0.
         13    1    3    3    0    0  0.51437827159E+02  0.20289883434E+02  0.24494284290E+02  0.60477355758E+02  0.10566000000E+00 0.  1.
         22    1    1    0    0    0 -0.17018404020E+02 -0.34025607613E+01 -0.19097740852E+02  0.25805565306E+02  0.00000000000E+00 0.  1.
</event>
<event>
 5    1  0.6978980E-004  0.9118800E+02  0.7818608E-02  0.1130116E+00
         25   -1    0    0    0    0  0.00000000000E+00  0.00000000000E+00  0.99999998245E-14  0.12500000000E+03  0.12500000000E+03 0.  0.
        -13    1    3    3    0    0  0.34812586557E+02  0.33917488142E+02  0.28037254928E+02  0.56110703191E+02  0.10566000000E+00 0. -1.
         23    2    1    0    0    0  0.71424676099E+01  0.42810548433E+01  0.27080809190E+02  0.96667818641E+02  0.92422695591E+02 0.  0.
         13    1    3    3    0    0 -0.27670118947E+02 -0.29636433298E+02 -0.95644573742E+00  0.40557115451E+02  0.10566000000E+00 0.  1.
         22    1    1    0    0    0 -0.71424676099E+01 -0.42810548433E+01 -0.27080809190E+02  0.28332181359E+02  0.00000000000E+00 0. -1.
</event>
<event>
 5    1  0.6978980E-004  0.9118800E+02  0.7818608E-02  0.1130116E+00
         25   -1    0    0    0    0  0.00000000000E+00  0.00000000000E+00  0.99999998245E-14  0.12500000000E+03  0.12500000000E+03 0.  0.
        -13    1    3    3    0    0  0.11832282511E+02 -0.43003332547E+02 -0.15758821820E+02  0.47303711786E+02  0.10566000000E+00 0.  1.
         23    2    1    0    0    0  0.20346881508E+02  0.84817973292E+01 -0.12657952609E+02  0.99580317915E+02  0.96281251959E+02 0.  0.
         13    1    3    3    0    0  0.85145989972E+01  0.51485129876E+02  0.31008692109E+01  0.52276606129E+02  0.10566000000E+00 0. -1.
         22    1    1    0    0    0 -0.20346881508E+02 -0.84817973292E+01  0.12657952609E+02  0.25419682085E+02  0.00000000000E+00 0. -1.
</event>
<event>
 5    1  0.6978980E-004  0.9118800E+02  0.7818608E-02  0.1130116E+00
         25   -1    0    0    0    0  0.00000000000E+00  0.00000000000E+00  0.99999998245E-14  0.12500000000E+03  0.12500000000E+03 0.  0.
        -13    1    3    3    0    0  0.23623214283E+02  0.44458930835E+02  0.37520434809E+01  0.50485064904E+02  0.10566000000E+00 0.  1.
         23    2    1    0    0    0 -0.14443265681E+02  0.26050021316E+02 -0.75861444735E+01  0.94263033297E+02  0.89110932687E+02 0.  0.
         13    1    3    3    0    0 -0.38066479964E+02 -0.18408909519E+02 -0.11338187954E+02  0.43777968393E+02  0.10566000000E+00 0. -1.
         22    1    1    0    0    0  0.14443265681E+02 -0.26050021316E+02  0.75861444735E+01  0.30736966703E+02  0.00000000000E+00 0.  1.
</event>
<event>
 5    1  0.6978980E-004  0.9118800E+02  0.7818608E-02  0.1130116E+00
         25   -1    0    0    0    0  0.00000000000E+00  0.00000000000E+00  0.99999998245E-14  0.12500000000E+03  0.12500000000E+03 0.  0.
        -13    1    3    3    0    0 -0.18021324454E+02 -0.11308752063E+02  0.31417709848E+02  0.37943901545E+02  0.10566000000E+00 0. -1.
         23    2    1    0    0    0 -0.11208193984E+02 -0.77103123176E-01 -0.25916342569E+02  0.96763740165E+02  0.92552336768E+02 0.  0.
         13    1    3    3    0    0  0.68131304703E+01  0.11231648939E+02 -0.57334052417E+02  0.58819838621E+02  0.10566000000E+00 0.  1.
         22    1    1    0    0    0  0.11208193984E+02  0.77103123176E-01  0.25916342569E+02  0.28236259835E+02  0.00000000000E+00 0.  1.
</event>
<event>
 5    1  0.6978980E-004  0.9118800E+02  0.7818608E-02  0.1130116E+00
         25   -1    0    0    0    0  0.00000000000E+00  0.00000000000E+00  0.99999998245E-14  0.12500000000E+03  0.12500000000E+03 0.  0.
        -13    1    3    3    0    0  0.34244548658E+02  0.19239766973E+01 -0.86516491512E+01  0.35373054663E+02  0.10566000000E+00 0. -1.
         23    2    1    0    0    0 -0.22195201353E+02  0.19747209392E+02  0.63843680356E+00  0.95284905461E+02  0.90533012572E+02 0.  0.
         13    1    3    3    0    0 -0.56439750011E+02  0.17823232695E+02  0.92900859548E+01  0.59911850798E+02  0.10566000000E+00 0.  1.
         22    1    1    0    0    0  0.22195201353E+02 -0.19747209392E+02 -0.63843680356E+00  0.29715094539E+02  0.00000000000E+00 0.  1.
</event>
<event>
 5    1  0.6978980E-004  0.9118800E+02  0.7818608E-02  0.1130116E+00
         25   -1    0    0    0    0  0.00000000000E+00  0.00000000000E+00  0.99999998245E-14  0.12500000000E+03  0.12500000000E+03 0.  0.
        -13    1    3    3    0    0  0.31932056363E+02  0.49217725696E+02 -0.17851634602E+02  0.61324813643E+02  0.10566000000E+00 0.  1.
         23    2    1    0    0    0  0.75342856498E+01  0.27305372762E+02 -0.79964064290E+01  0.95567172109E+02  0.90921906201E+02 0.  0.
         13    1    3    3    0    0 -0.24397770714E+02 -0.21912352935E+02  0.98552281733E+01  0.34242358466E+02  0.10566000000E+00 0. -1.
         22    1    1    0    0    0 -0.75342856498E+01 -0.27305372762E+02  0.79964064290E+01  0.29432827891E+02  0.00000000000E+00 0.  1.
</event>
<event>
 5    1  0.6978980E-004  0.9118800E+02  0.7818608E-02  0.1130116E+00
         25   -1    0    0    0    0  0.00000000000E+00  0.00000000000E+00  0.99999998245E-14  0.12500000000E+03  0.12500000000E+03 0.  0.
        -13    1    3    3    0    0 -0.26266054795E+02  0.21010689335E+02 -0.20436168485E+01  0.33697807565E+02  0.10566000000E+00 0.  1.
         23    2    1    0    0    0  0.19031435448E+02 -0.21252537268E+02 -0.62591751670E+01  0.95793097574E+02  0.91231981199E+02 0.  0.
         13    1    3    3    0    0  0.45297490243E+02 -0.42263226603E+02 -0.42155583185E+01  0.62095290009E+02  0.10566000000E+00 0. -1.
         22    1    1    0    0    0 -0.19031435448E+02  0.21252537268E+02  0.62591751670E+01  0.29206902426E+02  0.00000000000E+00 0. -1.
</event>
<event>
 5    1  0.6978980E-004  0.9118800E+02  0.7818608E-02  0.1130116E+00
         25   -1    0    0    0    0  0.00000000000E+00  0.00000000000E+00  0.99999998245E-14  0.12500000000E+03  0.12500000000E+03 0.  0.
        -13    1    3    3    0    0 -0.51432199777E+01  0.35671502811E+02 -0.13381310724E+02  0.38444498504E+02  0.10566000000E+00 0. -1.
         23    2    1    0    0    0 -0.11206618570E+02 -0.79600928718E+01  0.24738380140E+02  0.96699137288E+02  0.92465043785E+02 0.  0.
         13    1    3    3    0    0 -0.60633985919E+01 -0.43631595682E+02  0.38119690864E+02  0.58254638784E+02  0.10566000000E+00 0.  1.
         22    1    1    0    0    0  0.11206618570E+02  0.79600928718E+01 -0.24738380140E+02  0.28300862712E+02  0.00000000000E+00 0.  1.
</event>
<event>
 5    1  0.6978980E-004  0.9118800E+02  0.7818608E-02  0.1130116E+00
         25   -1    0    0    0    0  0.00000000000E+00  0.00000000000E+00  0.99999998245E-14  0.12500000000E+03  0.12500000000E+03 0.  0.
        -13    1    3    3    0    0  0.39815478110E+02  0.30253335996E+00  0.45495509836E+02  0.60458385711E+02  0.10566000000E+00 0.  1.
         23    2    1    0    0    0  0.11459929826E+02 -0.74255355120E+01  0.25712759453E+02  0.95886179091E+02  0.91359426294E+02 0.  0.
         13    1    3    3    0    0 -0.28355548284E+02 -0.77280688720E+01 -0.19782750384E+02  0.35427793379E+02  0.10566000000E+00 0. -1.
         22    1    1    0    0    0 -0.11459929826E+02  0.74255355120E+01 -0.25712759453E+02  0.29113820909E+02  0.00000000000E+00 0.  1.
</event>
<event>
 5    1  0.6978980E-004  0.9118800E+02  0.7818608E-02  0.1130116E+00
         25   -1    0    0    0    0  0.00000000000E+00  0.00000000000E+00  0.99999998245E-14  0.12500000000E+03  0.12500000000E+03 0.  0.
        -13    1    3    3    0    0  0.23411023944E+02  0.17130181290E+02 -0.13251807392E+02  0.31892643608E+02  0.10566000000E+00 0.  1.
         23    2    1    0    0    0 -0.12014523760E+02 -0.24229932685E+02  0.15864372165E+02  0.93645307795E+02  0.88240166300E+02 0.  0.
         13    1    3    3    0    0 -0.35425547704E+02 -0.41360113974E+02  0.29116179557E+02  0.61752664187E+02  0.10566000000E+00 0. -1.
         22    1    1    0    0    0  0.12014523760E+02  0.24229932685E+02 -0.15864372165E+02  0.31354692205E+02  0.00000000000E+00 0. -1.
</event>
<event>
 5    1  0.6978980E-004  0.9118800E+02  0.7818608E-02  0.1130116E+00
         25   -1    0    0    0    0  0.00000000000E+00  0.00000000000E+00  0.99999998245E-14  0.12500000000E+03  0.12500000000E+03 0.  0.
        -13    1    3    3    0    0  0.34874165149E+02 -0.49138492057E+02 -0.12146414444E+02  0.61468246635E+02  0.10566000000E+00 0.  1.
         23    2    1    0    0    0  0.18917365650E+02 -0.20355503522E+02  0.16699454461E+01  0.97161142901E+02  0.93087516485E+02 0.  0.
         13    1    3    3    0    0 -0.15956799499E+02  0.28782988535E+02  0.13816359891E+02  0.35692896267E+02  0.10566000000E+00 0. -1.
         22    1    1    0    0    0 -0.18917365650E+02  0.20355503522E+02 -0.16699454461E+01  0.27838857099E+02  0.00000000000E+00 0.  1.
</event>
<event>
 5    1  0.6978980E-004  0.9118800E+02  0.7818608E-02  0.1130116E+00
         25   -1    0    0    0    0  0.00000000000E+00  0.00000000000E+00  0.99999998245E-14  0.12500000000E+03  0.12500000000E+03 0.  0.
        -13    1    3    3    0    0 -0.19386368866E+02  0.12866112069E+02 -0.24682524943E+02  0.33920588721E+02  0.10566000000E+00 0.  1.
         23    2    1    0    0    0 -0.20570707628E+01  0.57975083186E+01  0.31379005800E+02  0.93023686144E+02  0.87355146019E+02 0.  0.
         13    1    3    3    0    0  0.17329298103E+02 -0.70686037507E+01  0.56061530743E+02  0.59103097423E+02  0.10566000000E+00 0. -1.
         22    1    1    0    0    0  0.20570707628E+01 -0.57975083186E+01 -0.31379005800E+02  0.31976313856E+02  0.00000000000E+00 0. -1.
</event>
<event>
 5    1  0.6978980E-004  0.9118800E+02  0.7818608E-02  0.1130116E+00
         25   -1    0    0    0    0  0.00000000000E+00  0.00000000000E+00  0.99999998245E-14  0.12500000000E+03  0.12500000000E+03 0.  0.
        -13    1    3    3    0    0 -0.32780450584E+02  0.18381481938E+01 -0.19291841148E+02  0.38080480934E+02  0.10566000000E+00 0.  1.
         23    2    1    0    0    0  0.18041220044E+02 -0.21653291782E+02 -0.11293450995E+02  0.94637314002E+02  0.89634415826E+02 0.  0.
         13    1    3    3    0    0  0.50821670628E+02 -0.23491439976E+02  0.79983901530E+01  0.56556833068E+02  0.10566000000E+00 0. -1.
         22    1    1    0    0    0 -0.18041220044E+02  0.21653291782E+02  0.11293450995E+02  0.30362685998E+02  0.00000000000E+00 0. -1.
</event>
<event>
 5    1  0.6978980E-004  0.9118800E+02  0.7818608E-02  0.1130116E+00
         25   -1    0    0    0    0  0.00000000000E+00  0.00000000000E+00  0.99999998245E-14  0.12500000000E+03  0.12500000000E+03 0.  0.
        -13    1    3    3    0    0 -0.57837712969E+01 -0.36367908291E+02  0.83074957124E+01  0.37750528644E+02  0.10566000000E+00 0. -1.
         23    2    1    0    0    0 -0.47254599647E+01  0.18289758038E+02  0.23840708826E+02  0.94582494870E+02  0.89557934978E+02 0.  0.
         13    1    3    3    0    0  0.10583113321E+01  0.54657666329E+02  0.15533213114E+02  0.56831966226E+02  0.10566000000E+00 0.  1.
         22    1    1    0    0    0  0.47254599647E+01 -0.18289758038E+02 -0.23840708826E+02  0.30417505130E+02  0.00000000000E+00 0.  1.
</event>
<event>
 5    1  0.6978980E-004  0.9118800E+02  0.7818608E-02  0.1130116E+00
         25   -1    0    0    0    0  0.00000000000E+00  0.00000000000E+00  0.99999998245E-14  0.12500000000E+03  0.12500000000E+03 0.  0.
        -13    1    3    3    0    0  0.48714765910E+02 -0.28157396319E+02 -0.25476555015E+02  0.61765956680E+02  0.10566000000E+00 0.  1.
         23    2    1    0    0    0  0.25940631700E+02 -0.73141959740E+01 -0.13189776908E+02  0.94993599839E+02  0.90129906023E+02 0.  0.
         13    1    3    3    0    0 -0.22774134210E+02  0.20843200345E+02  0.12286778107E+02  0.33227643159E+02  0.10566000000E+00 0. -1.
         22    1    1    0    0    0 -0.25940631700E+02  0.73141959740E+01  0.13189776908E+02  0.30006400161E+02  0.00000000000E+00 0.  1.
</event>
<event>
 5    1  0.6978980E-004  0.9118800E+02  0.7818608E-02  0.1130116E+00
         25   -1    0    0    0    0  0.00000000000E+00  0.00000000000E+00  0.99999998245E-14  0.12500000000E+03  0.12500000000E+03 0.  0.
        -13    1    3    3    0    0  0.25024601519E+01 -0.42869051539E+02  0.11335174181E+02  0.44413007379E+02  0.10566000000E+00 0.  1.
         23    2    1    0    0    0 -0.26305904329E+02  0.13320905784E+01  0.87807213659E+01  0.97235343770E+02  0.93187101803E+02 0.  0.
         13    1    3    3    0    0 -0.28808364481E+02  0.44201142118E+02 -0.25544528154E+01  0.52822336391E+02  0.10566000000E+00 0. -1.
         22    1    1    0    0    0  0.26305904329E+02 -0.13320905784E+01 -0.87807213659E+01  0.27764656230E+02  0.00000000000E+00 0.  1.
</event>
<event>
 5    1  0.6978980E-004  0.9118800E+02  0.7818608E-02  0.1130116E+00
         25   -1    0    0    0    0  0.00000000000E+00  0.00000000000E+00  0.99999998245E-14  0.12500000000E+03  0.12500000000E+03 0.  0.
        -13    1    3    3    0    0  0.14933629859E+02  0.36549935396E+02 -0.77931201821E+01  0.40244937128E+02  0.10566000000E+00 0.  1.
         23    2    1    0    0    0 -0.12626980562E+02  0.64081370174E+01  0.27399238614E+02  0.94158094501E+02  0.88963608433E+02 0.  0.
         13    1    3    3    0    0 -0.27560610421E+02 -0.30141798379E+02  0.35192358796E+02  0.53913157373E+02  0.10566000000E+00 0. -1.
         22    1    1    0    0    0  0.12626980562E+02 -0.64081370174E+01 -0.27399238614E+02  0.30841905499E+02  0.00000000000E+00 0. -1.
</event>
<event>
 5    1  0.6978980E-004  0.9118800E+02  0.7818608E-02  0.1130116E+00
         25   -1    0    0    0    0  0.00000000000E+00  0.00000000000E+00  0.99999998245E-14  0.12500000000E+03  0.12500000000E+03 0.  0.
        -13    1    3    3    0    0 -0.24094625536E+02 -0.25561958154E+02 -0.89710281317E+01  0.36255416067E+02  0.10566000000E+00 0.  1.
         23    2    1    0    0    0  0.29574269930E+02 -0.18968750774E+01 -0.30531780716E+01  0.95208097186E+02  0.90426900292E+02 0.  0.
         13    1    3    3    0    0  0.53668895467E+02  0.23665083077E+02  0.59178500601E+01  0.58952681118E+02  0.10566000000E+00 0. -1.
         22    1    1    0    0    0 -0.29574269930E+02  0.18968750774E+01  0.30531780716E+01  0.29791902814E+02  0.00000000000E+00 0. -1.
</event>
<event>
 5    1  0.6978980E-004  0.9118800E+02  0.7818608E-02  0.1130116E+00
         25   -1    0    0    0    0  0.00000000000E+00  0.00000000000E+00  0.99999998245E-14  0.12500000000E+03  0.12500000000E+03 0.  0.
        -13    1    3    3    0    0 -0.39931446877E+01  0.57160546041E+02 -0.24492996443E+02  0.62315257097E+02  0.10566000000E+00 0. -1.
         23    2    1    0    0    0  0.84959191070E+00  0.27995772135E+02 -0.98263809294E+01  0.95317634427E+02  0.90578190569E+02 0.  0.
         13    1    3    3    0    0  0.48427365984E+01 -0.29164773906E+02  0.14666615514E+02  0.33002377330E+02  0.10566000000E+00 0.  1.
         22    1    1    0    0    0 -0.84959191070E+00 -0.27995772135E+02  0.98263809294E+01  0.29682365573E+02  0.00000000000E+00 0. -1.
</event>
<event>
 5    1  0.6978980E-004  0.9118800E+02  0.7818608E-02  0.1130116E+00
         25   -1    0    0    0    0  0.00000000000E+00  0.00000000000E+00  0.99999998245E-14  0.12500000000E+03  0.12500000000E+03 0.  0.
        -13    1    3    3    0    0  0.31787619196E+02  0.39467067285E+02 -0.36013516448E+02  0.62169821177E+02  0.10566000000E+00 0.  1.
         23    2    1    0    0    0  0.13072522879E+02  0.99196060872E+01 -0.97138023240E+01  0.10593045897E+03  0.10419987881E+03 0.  0.
         13    1    3    3    0    0 -0.18715096316E+02 -0.29547461198E+02  0.26299714124E+02  0.43760637797E+02  0.10566000000E+00 0. -1.
         22    1    1    0    0    0 -0.13072522879E+02 -0.99196060872E+01  0.97138023240E+01  0.19069541026E+02  0.00000000000E+00 0.  1.
</event>
<event>
 5    1  0.6978980E-004  0.9118800E+02  0.7818608E-02  0.1130116E+00
         25   -1    0    0    0    0  0.00000000000E+00  0.00000000000E+00  0.99999998245E-14  0.12500000000E+03  0.12500000000E+03 0.  0.
        -13    1    3    3    0    0 -0.17809207581E+02  0.37731497322E+02 -0.28963757173E+02  0.50791181896E+02  0.10566000000E+00 0.  1.
         23    2    1    0    0    0 -0.23348175614E+02  0.16174301816E+02  0.93470235557E+01  0.95098291135E+02  0.90274984263E+02 0.  0.
         13    1    3    3    0    0 -0.55389680332E+01 -0.21557195506E+02  0.38310780729E+02  0.44307109238E+02  0.10566000000E+00 0. -1.
         22    1    1    0    0    0  0.23348175614E+02 -0.16174301816E+02 -0.93470235557E+01  0.29901708865E+02  0.00000000000E+00 0. -1.
</event>
<event>
 5    1  0.6978980E-004  0.9118800E+02  0.7818608E-02  0.1130116E+00
         25   -1    0    0    0    0  0.00000000000E+00  0.00000000000E+00  0.99999998245E-14  0.12500000000E+03  0.12500000000E+03 0.  0.
        -13    1    3    3    0    0  0.81053716351E+01 -0.56807884312E+02 -0.81460370636E+01  0.57958621906E+02  0.10566000000E+00 0.  1.
         23    2    1    0    0    0 -0.93892104015E+01 -0.28280936058E+02  0.65210450782E+01  0.94496022470E+02  0.89437160160E+02 0.  0.
         13    1    3    3    0    0 -0.17494582037E+02  0.28526948255E+02  0.14667082142E+02  0.36537400564E+02  0.10566000000E+00 0. -1.
         22    1    1    0    0    0  0.93892104015E+01  0.28280936058E+02 -0.65210450782E+01  0.30503977530E+02  0.00000000000E+00 0.  1.
</event>
<event>
 5    1  0.6978980E-004  0.9118800E+02  0.7818608E-02  0.1130116E+00
         25   -1    0    0    0    0  0.00000000000E+00  0.00000000000E+00  0.99999998245E-14  0.12500000000E+03  0.12500000000E+03 0.  0.
        -13    1    3    3    0    0 -0.13038336035E+02 -0.26123396007E+02 -0.19273511419E+02  0.34984416988E+02  0.10566000000E+00 0.  1.
         23    2    1    0    0    0 -0.19249575772E+01  0.18130711294E+02  0.21941941101E+02  0.96471471595E+02  0.92156757206E+02 0.  0.
         13    1    3    3    0    0  0.11113378458E+02  0.44254107301E+02  0.41215452520E+02  0.61487054607E+02  0.10566000000E+00 0. -1.
         22    1    1    0    0    0  0.19249575772E+01 -0.18130711294E+02 -0.21941941101E+02  0.28528528405E+02  0.00000000000E+00 0. -1.
</event>
<event>
 5    1  0.6978980E-004  0.9118800E+02  0.7818608E-02  0.1130116E+00
         25   -1    0    0    0    0  0.00000000000E+00  0.00000000000E+00  0.99999998245E-14  0.12500000000E+03  0.12500000000E+03 0.  0.
        -13    1    3    3    0    0  0.54005754271E-01 -0.39420314579E+02  0.39861713847E+02  0.56061854349E+02  0.10566000000E+00 0.  1.
         23    2    1    0    0    0  0.16649550907E+02 -0.75700435459E+01  0.22649227350E+02  0.95888136366E+02  0.91362104242E+02 0.  0.
         13    1    3    3    0    0  0.16595545153E+02  0.31850271033E+02 -0.17212486497E+02  0.39826282017E+02  0.10566000000E+00 0. -1.
         22    1    1    0    0    0 -0.16649550907E+02  0.75700435459E+01 -0.22649227350E+02  0.29111863634E+02  0.00000000000E+00 0.  1.
</event>
<event>
 5    1  0.6978980E-004  0.9118800E+02  0.7818608E-02  0.1130116E+00
         25   -1    0    0    0    0  0.00000000000E+00  0.00000000000E+00  0.99999998245E-14  0.12500000000E+03  0.12500000000E+03 0.  0.
        -13    1    3    3    0    0 -0.13527186864E+02 -0.45903330679E+02  0.20938871580E+02  0.52235505731E+02  0.10566000000E+00 0.  1.
         23    2    1    0    0    0 -0.26948552921E+02 -0.61366410301E+01  0.99987606640E+01  0.95608537252E+02  0.90978757482E+02 0.  0.
         13    1    3    3    0    0 -0.13421366057E+02  0.39766689649E+02 -0.10940110916E+02  0.43373031521E+02  0.10566000000E+00 0. -1.
         22    1    1    0    0    0  0.26948552921E+02  0.61366410301E+01 -0.99987606640E+01  0.29391462748E+02  0.00000000000E+00 0. -1.
</event>
<event>
 5    1  0.6978980E-004  0.9118800E+02  0.7818608E-02  0.1130116E+00
         25   -1    0    0    0    0  0.00000000000E+00  0.00000000000E+00  0.99999998245E-14  0.12500000000E+03  0.12500000000E+03 0.  0.
        -13    1    3    3    0    0 -0.53642192338E+02 -0.28750836148E+01 -0.22199089932E+02  0.58125396020E+02  0.10566000000E+00 0.  1.
         23    2    1    0    0    0 -0.22515168702E+02  0.15001344897E+02 -0.11690654441E+02  0.95527223212E+02  0.90866967611E+02 0.  0.
         13    1    3    3    0    0  0.31127023636E+02  0.17876428512E+02  0.10508435491E+02  0.37401827192E+02  0.10566000000E+00 0. -1.
         22    1    1    0    0    0  0.22515168702E+02 -0.15001344897E+02  0.11690654441E+02  0.29472776788E+02  0.00000000000E+00 0.  1.
</event>
<event>
 5    1  0.6978980E-004  0.9118800E+02  0.7818608E-02  0.1130116E+00
         25   -1    0    0    0    0  0.00000000000E+00  0.00000000000E+00  0.99999998245E-14  0.12500000000E+03  0.12500000000E+03 0.  0.
        -13    1    3    3    0    0 -0.22667916138E+01 -0.22699152362E+02 -0.29477496136E+02  0.37273634175E+02  0.10566000000E+00 0. -1.
         23    2    1    0    0    0 -0.19160833145E+02  0.22416945140E+02  0.29752936464E+01  0.95360341964E+02  0.90637108796E+02 0.  0.
         13    1    3    3    0    0 -0.16894041531E+02  0.45116097502E+02  0.32452789782E+02  0.58086707789E+02  0.10566000000E+00 0.  1.
         22    1    1    0    0    0  0.19160833145E+02 -0.22416945140E+02 -0.29752936464E+01  0.29639658036E+02  0.00000000000E+00 0.  1.
</event>
<event>
 5    1  0.6978980E-004  0.9118800E+02  0.7818608E-02  0.1130116E+00
         25   -1    0    0    0    0  0.00000000000E+00  0.00000000000E+00  0.99999998245E-14  0.12500000000E+03  0.12500000000E+03 0.  0.
        -13    1    3    3    0    0 -0.21461152534E+02  0.36432207399E+02 -0.18318310802E+02  0.46080999107E+02  0.10566000000E+00 0.  1.
         23    2    1    0    0    0 -0.27738479876E+02 -0.55769082128E+01  0.74243661462E+01  0.95748566125E+02  0.91170946750E+02 0.  0.
         13    1    3    3    0    0 -0.62773273416E+01 -0.42009115611E+02  0.25742676948E+02  0.49667567018E+02  0.10566000000E+00 0. -1.
         22    1    1    0    0    0  0.27738479876E+02  0.55769082128E+01 -0.74243661462E+01  0.29251433875E+02  0.00000000000E+00 0.  1.
</event>
<event>
 5    1  0.6978980E-004  0.9118800E+02  0.7818608E-02  0.1130116E+00
         25   -1    0    0    0    0  0.00000000000E+00  0.00000000000E+00  0.99999998245E-14  0.12500000000E+03  0.12500000000E+03 0.  0.
        -13    1    3    3    0    0 -0.31544693237E+02  0.17408445760E+02  0.19028958215E+02  0.40745969985E+02  0.10566000000E+00 0.  1.
         23    2    1    0    0    0  0.18790416267E+02  0.17171861424E+02  0.22259408076E+02  0.91185301773E+02  0.84683678731E+02 0.  0.
         13    1    3    3    0    0  0.50335109504E+02 -0.23658433660E+00  0.32304498613E+01  0.50439331789E+02  0.10566000000E+00 0. -1.
         22    1    1    0    0    0 -0.18790416267E+02 -0.17171861424E+02 -0.22259408076E+02  0.33814698227E+02  0.00000000000E+00 0.  1.
</event>
<event>
 5    1  0.6978980E-004  0.9118800E+02  0.7818608E-02  0.1130116E+00
         25   -1    0    0    0    0  0.00000000000E+00  0.00000000000E+00  0.99999998245E-14  0.12500000000E+03  0.12500000000E+03 0.  0.
        -13    1    3    3    0    0 -0.33664370346E+02 -0.18336574087E+01  0.30722474412E+01  0.33854128236E+02  0.10566000000E+00 0.  1.
         23    2    1    0    0    0  0.27868470495E+02  0.71634247580E+01 -0.13120626047E+01  0.96195698060E+02  0.91781940026E+02 0.  0.
         13    1    3    3    0    0  0.61532840841E+02  0.89970821667E+01 -0.43843100460E+01  0.62341569823E+02  0.10566000000E+00 0. -1.
         22    1    1    0    0    0 -0.27868470495E+02 -0.71634247580E+01  0.13120626047E+01  0.28804301940E+02  0.00000000000E+00 0. -1.
</event>
<event>
 5    1  0.6978980E-004  0.9118800E+02  0.7818608E-02  0.1130116E+00
         25   -1    0    0    0    0  0.00000000000E+00  0.00000000000E+00  0.99999998245E-14  0.12500000000E+03  0.12500000000E+03 0.  0.
        -13    1    3    3    0    0  0.16523746961E+02  0.29623108992E+02  0.20237776862E+02  0.39498627524E+02  0.10566000000E+00 0.  1.
         23    2    1    0    0    0  0.52816378564E+01  0.17804122627E+01 -0.28072227329E+02  0.96379805845E+02  0.92032339215E+02 0.  0.
         13    1    3    3    0    0 -0.11242109105E+02 -0.27842696729E+02 -0.48310004190E+02  0.56881178321E+02  0.10566000000E+00 0. -1.
         22    1    1    0    0    0 -0.52816378564E+01 -0.17804122627E+01  0.28072227329E+02  0.28620194155E+02  0.00000000000E+00 0. -1.
</event>
<event>
 5    1  0.6978980E-004  0.9118800E+02  0.7818608E-02  0.1130116E+00
         25   -1    0    0    0    0  0.00000000000E+00  0.00000000000E+00  0.99999998245E-14  0.12500000000E+03  0.12500000000E+03 0.  0.
        -13    1    3    3    0    0  0.17354398297E+02 -0.29506759848E+02  0.96455868688E+01  0.35565046423E+02  0.10566000000E+00 0. -1.
         23    2    1    0    0    0  0.19144400052E+01  0.28030737820E+02  0.10110787819E+02  0.95140070770E+02  0.90332816255E+02 0.  0.
         13    1    3    3    0    0 -0.15439958292E+02  0.57537497669E+02  0.46520095058E+00  0.59575024347E+02  0.10566000000E+00 0.  1.
         22    1    1    0    0    0 -0.19144400052E+01 -0.28030737820E+02 -0.10110787819E+02  0.29859929230E+02  0.00000000000E+00 0.  1.
</event>
<event>
 5    1  0.6978980E-004  0.9118800E+02  0.7818608E-02  0.1130116E+00
         25   -1    0    0    0    0  0.00000000000E+00  0.00000000000E+00  0.99999998245E-14  0.12500000000E+03  0.12500000000E+03 0.  0.
        -13    1    3    3    0    0 -0.25249602428E+02  0.48347303276E+01  0.20337468453E+02  0.32780189554E+02  0.10566000000E+00 0.  1.
         23    2    1    0    0    0  0.22074572778E+02 -0.73427312011E+01 -0.18561906328E+02  0.95238500855E+02  0.90468918496E+02 0.  0.
         13    1    3    3    0    0  0.47324175206E+02 -0.12177461529E+02 -0.38899374781E+02  0.62458311301E+02  0.10566000000E+00 0. -1.
         22    1    1    0    0    0 -0.22074572778E+02  0.73427312011E+01  0.18561906328E+02  0.29761499145E+02  0.00000000000E+00 0. -1.
</event>
<event>
 5    1  0.6978980E-004  0.9118800E+02  0.7818608E-02  0.1130116E+00
         25   -1    0    0    0    0  0.00000000000E+00  0.00000000000E+00  0.99999998245E-14  0.12500000000E+03  0.12500000000E+03 0.  0.
        -13    1    3    3    0    0 -0.17692995946E+02 -0.33612905347E+02 -0.26946027094E+02  0.46572191827E+02  0.10566000000E+00 0.  1.
         23    2    1    0    0    0 -0.26948501889E+02  0.90437133290E+01 -0.28469904112E+01  0.96432258415E+02  0.92103553698E+02 0.  0.
         13    1    3    3    0    0 -0.92555059427E+01  0.42656618676E+02  0.24099036683E+02  0.49860066588E+02  0.10566000000E+00 0. -1.
         22    1    1    0    0    0  0.26948501889E+02 -0.90437133290E+01  0.28469904112E+01  0.28567741585E+02  0.00000000000E+00 0. -1.
</event>
<event>
 5    1  0.6978980E-004  0.9118800E+02  0.7818608E-02  0.1130116E+00
         25   -1    0    0    0    0  0.00000000000E+00  0.00000000000E+00  0.99999998245E-14  0.12500000000E+03  0.12500000000E+03 0.  0.
        -13    1    3    3    0    0 -0.76295482552E+00 -0.37920995548E+02 -0.32905652547E+02  0.50213316331E+02  0.10566000000E+00 0.  1.
         23    2    1    0    0    0 -0.13072982577E+02  0.46746420131E+01 -0.26595194643E+02  0.94999007858E+02  0.90137406022E+02 0.  0.
         13    1    3    3    0    0 -0.12310027752E+02  0.42595637561E+02  0.63104579033E+01  0.44785691526E+02  0.10566000000E+00 0. -1.
         22    1    1    0    0    0  0.13072982577E+02 -0.46746420131E+01  0.26595194643E+02  0.30000992142E+02  0.00000000000E+00 0. -1.
</event>
<event>
 5    1  0.6978980E-004  0.9118800E+02  0.7818608E-02  0.1130116E+00
         25   -1    0    0    0    0  0.00000000000E+00  0.00000000000E+00  0.99999998245E-14  0.12500000000E+03  0.12500000000E+03 0.  0.
        -13    1    3    3    0    0  0.47274008930E+02  0.31123861493E+02  0.83368749966E+00  0.56605943800E+02  0.10566000000E+00 0.  1.
         23    2    1    0    0    0  0.27461285856E+02  0.40991764381E+01  0.15518600116E+02  0.93191944135E+02  0.87595582273E+02 0.  0.
         13    1    3    3    0    0 -0.19812723074E+02 -0.27024685055E+02  0.14684912617E+02  0.36586000335E+02  0.10566000000E+00 0. -1.
         22    1    1    0    0    0 -0.27461285856E+02 -0.40991764381E+01 -0.15518600116E+02  0.31808055865E+02  0.00000000000E+00 0.  1.
</event>
<event>
 5    1  0.6978980E-004  0.9118800E+02  0.7818608E-02  0.1130116E+00
         25   -1    0    0    0    0  0.00000000000E+00  0.00000000000E+00  0.99999998245E-14  0.12500000000E+03  0.12500000000E+03 0.  0.
        -13    1    3    3    0    0 -0.53114231318E+02 -0.16200394814E+01 -0.15649554082E+02  0.55395539562E+02  0.10566000000E+00 0.  1.
         23    2    1    0    0    0 -0.17349693798E+02  0.17056914960E+02 -0.16240413733E+02  0.95747628112E+02  0.91169660677E+02 0.  0.
         13    1    3    3    0    0  0.35764537519E+02  0.18676954442E+02 -0.59085965148E+00  0.40352088550E+02  0.10566000000E+00 0. -1.
         22    1    1    0    0    0  0.17349693798E+02 -0.17056914960E+02  0.16240413733E+02  0.29252371888E+02  0.00000000000E+00 0.  1.
</event>
<event>
 5    1  0.6978980E-004  0.9118800E+02  0.7818608E-02  0.1130116E+00
         25   -1    0    0    0    0  0.00000000000E+00  0.00000000000E+00  0.99999998245E-14  0.12500000000E+03  0.12500000000E+03 0.  0.
        -13    1    3    3    0    0 -0.18543680011E+02 -0.25544916794E+02 -0.12621504587E+02  0.33995946588E+02  0.10566000000E+00 0. -1.
         23    2    1    0    0    0  0.17995659262E+02  0.12191320295E+02  0.19694525717E+02  0.95668338165E+02  0.91060883705E+02 0.  0.
         13    1    3    3    0    0  0.36539339273E+02  0.37736237089E+02  0.32316030304E+02  0.61672391576E+02  0.10566000000E+00 0.  1.
         22    1    1    0    0    0 -0.17995659262E+02 -0.12191320295E+02 -0.19694525717E+02  0.29331661835E+02  0.00000000000E+00 0.  1.
</event>
<event>
 5    1  0.6978980E-004  0.9118800E+02  0.7818608E-02  0.1130116E+00
         25   -1    0    0    0    0  0.00000000000E+00  0.00000000000E+00  0.99999998245E-14  0.12500000000E+03  0.12500000000E+03 0.  0.
        -13    1    3    3    0    0  0.40114013510E+02 -0.22257757746E+02  0.18591458470E+02  0.49499447995E+02  0.10566000000E+00 0. -1.
         23    2    1    0    0    0 -0.28460040118E+01 -0.27406325899E+02 -0.19136219907E+01  0.97379927819E+02  0.93380843618E+02 0.  0.
         13    1    3    3    0    0 -0.42960017522E+02 -0.51485681530E+01 -0.20505080460E+02  0.47880479824E+02  0.10566000000E+00 0.  1.
         22    1    1    0    0    0  0.28460040118E+01  0.27406325899E+02  0.19136219907E+01  0.27620072181E+02  0.00000000000E+00 0. -1.
</event>
<event>
 5    1  0.6978980E-004  0.9118800E+02  0.7818608E-02  0.1130116E+00
         25   -1    0    0    0    0  0.00000000000E+00  0.00000000000E+00  0.99999998245E-14  0.12500000000E+03  0.12500000000E+03 0.  0.
        -13    1    3    3    0    0  0.31740068781E+02  0.52984639692E-02 -0.17667229089E+01  0.31789376656E+02  0.10566000000E+00 0.  1.
         23    2    1    0    0    0 -0.28060796759E+02  0.14599691171E+02 -0.91443410848E-01  0.93368249196E+02  0.87846811547E+02 0.  0.
         13    1    3    3    0    0 -0.59800865540E+02  0.14594392707E+02  0.16752794981E+01  0.61578872540E+02  0.10566000000E+00 0. -1.
         22    1    1    0    0    0  0.28060796759E+02 -0.14599691171E+02  0.91443410848E-01  0.31631750804E+02  0.00000000000E+00 0. -1.
</event>
<event>
 5    1  0.6978980E-004  0.9118800E+02  0.7818608E-02  0.1130116E+00
         25   -1    0    0    0    0  0.00000000000E+00  0.00000000000E+00  0.99999998245E-14  0.12500000000E+03  0.12500000000E+03 0.  0.
        -13    1    3    3    0    0  0.33734621691E+02  0.18576378686E+01 -0.47186969663E+01  0.34113821014E+02  0.10566000000E+00 0. -1.
         23    2    1    0    0    0 -0.15559112282E+02  0.59988698922E+01  0.27278884093E+02  0.93027982041E+02  0.87361292975E+02 0.  0.
         13    1    3    3    0    0 -0.49293733974E+02  0.41412320235E+01  0.31997581060E+02  0.58914161026E+02  0.10566000000E+00 0.  1.
         22    1    1    0    0    0  0.15559112282E+02 -0.59988698922E+01 -0.27278884093E+02  0.31972017959E+02  0.00000000000E+00 0.  1.
</event>
<event>
 5    1  0.6978980E-004  0.9118800E+02  0.7818608E-02  0.1130116E+00
         25   -1    0    0    0    0  0.00000000000E+00  0.00000000000E+00  0.99999998245E-14  0.12500000000E+03  0.12500000000E+03 0.  0.
        -13    1    3    3    0    0  0.18678088517E+02  0.47490233023E+02 -0.20266751145E+02  0.54908520188E+02  0.10566000000E+00 0.  1.
         23    2    1    0    0    0 -0.12832331878E+02  0.25629210588E+02 -0.69378373351E+01  0.95510022657E+02  0.90843302804E+02 0.  0.
         13    1    3    3    0    0 -0.31510420395E+02 -0.21861022435E+02  0.13328913810E+02  0.40601502469E+02  0.10566000000E+00 0. -1.
         22    1    1    0    0    0  0.12832331878E+02 -0.25629210588E+02  0.69378373351E+01  0.29489977343E+02  0.00000000000E+00 0.  1.
</event>
<event>
 5    1  0.6978980E-004  0.9118800E+02  0.7818608E-02  0.1130116E+00
         25   -1    0    0    0    0  0.00000000000E+00  0.00000000000E+00  0.99999998245E-14  0.12500000000E+03  0.12500000000E+03 0.  0.
        -13    1    3    3    0    0 -0.96129962519E-01 -0.60928121165E+02 -0.46875808954E+00  0.60930091809E+02  0.10566000000E+00 0.  1.
         23    2    1    0    0    0  0.33146102862E+01 -0.33749379098E+02 -0.95172959664E+01  0.89778044442E+02  0.82580331257E+02 0.  0.
         13    1    3    3    0    0  0.34107402487E+01  0.27178742067E+02 -0.90485378769E+01  0.28847952633E+02  0.10566000000E+00 0. -1.
         22    1    1    0    0    0 -0.33146102862E+01  0.33749379098E+02  0.95172959664E+01  0.35221955558E+02  0.00000000000E+00 0.  1.
</event>
<event>
 5    1  0.6978980E-004  0.9118800E+02  0.7818608E-02  0.1130116E+00
         25   -1    0    0    0    0  0.00000000000E+00  0.00000000000E+00  0.99999998245E-14  0.12500000000E+03  0.12500000000E+03 0.  0.
        -13    1    3    3    0    0 -0.23942756068E+01  0.42595181212E+02 -0.17688536510E+01  0.42699204038E+02  0.10566000000E+00 0.  1.
         23    2    1    0    0    0 -0.26392884907E+02  0.14978582413E+02  0.23034260398E+02  0.86901188248E+02  0.78104398481E+02 0.  0.
         13    1    3    3    0    0 -0.23998609300E+02 -0.27616598800E+02  0.24803114049E+02  0.44201984211E+02  0.10566000000E+00 0. -1.
         22    1    1    0    0    0  0.26392884907E+02 -0.14978582413E+02 -0.23034260398E+02  0.38098811752E+02  0.00000000000E+00 0. -1.
</event>
<event>
 5    1  0.6978980E-004  0.9118800E+02  0.7818608E-02  0.1130116E+00
         25   -1    0    0    0    0  0.00000000000E+00  0.00000000000E+00  0.99999998245E-14  0.12500000000E+03  0.12500000000E+03 0.  0.
        -13    1    3    3    0    0  0.71145485567E+01 -0.26616756446E+02  0.47503625707E+02  0.54915154049E+02  0.10566000000E+00 0.  1.
         23    2    1    0    0    0 -0.14527439782E+02  0.52739140919E+00  0.24339867971E+02  0.96649447604E+02  0.92397845759E+02 0.  0.
         13    1    3    3    0    0 -0.21641988339E+02  0.27144147855E+02 -0.23163757736E+02  0.41734293555E+02  0.10566000000E+00 0. -1.
         22    1    1    0    0    0  0.14527439782E+02 -0.52739140919E+00 -0.24339867971E+02  0.28350552396E+02  0.00000000000E+00 0.  1.
</event>
<event>
 5    1  0.6978980E-004  0.9118800E+02  0.7818608E-02  0.1130116E+00
         25   -1    0    0    0    0  0.00000000000E+00  0.00000000000E+00  0.99999998245E-14  0.12500000000E+03  0.12500000000E+03 0.  0.
        -13    1    3    3    0    0 -0.13451678543E+02 -0.35940580250E+02  0.71784285888E+01  0.39041182940E+02  0.10566000000E+00 0.  1.
         23    2    1    0    0    0 -0.68279226061E+01  0.23154655708E+02  0.10665007690E+02  0.98608694668E+02  0.95011439665E+02 0.  0.
         13    1    3    3    0    0  0.66237559368E+01  0.59095235958E+02  0.34865791012E+01  0.59567511728E+02  0.10566000000E+00 0. -1.
         22    1    1    0    0    0  0.68279226061E+01 -0.23154655708E+02 -0.10665007690E+02  0.26391305332E+02  0.00000000000E+00 0. -1.
</event>
<event>
 5    1  0.6978980E-004  0.9118800E+02  0.7818608E-02  0.1130116E+00
         25   -1    0    0    0    0  0.00000000000E+00  0.00000000000E+00  0.99999998245E-14  0.12500000000E+03  0.12500000000E+03 0.  0.
        -13    1    3    3    0    0  0.12032020669E+01  0.19186605136E+02 -0.20698306284E+02  0.28248974476E+02  0.10566000000E+00 0.  1.
         23    2    1    0    0    0  0.33802299592E+02 -0.19518543914E+02 -0.24366194685E+02  0.78986084087E+02  0.64199073372E+02 0.  0.
         13    1    3    3    0    0  0.32599097525E+02 -0.38705149049E+02 -0.36678884004E+01  0.50737109612E+02  0.10566000000E+00 0. -1.
         22    1    1    0    0    0 -0.33802299592E+02  0.19518543914E+02  0.24366194685E+02  0.46013915913E+02  0.00000000000E+00 0. -1.
</event>
<event>
 5    1  0.6978980E-004  0.9118800E+02  0.7818608E-02  0.1130116E+00
         25   -1    0    0    0    0  0.00000000000E+00  0.00000000000E+00  0.99999998245E-14  0.12500000000E+03  0.12500000000E+03 0.  0.
        -13    1    3    3    0    0  0.95657544458E+01  0.34896506419E+02  0.47006019234E+02  0.59319868734E+02  0.10566000000E+00 0. -1.
         23    2    1    0    0    0  0.14582848121E+02  0.24005861691E+02  0.15749258224E+02  0.92797826324E+02  0.87031354011E+02 0.  0.
         13    1    3    3    0    0  0.50170936751E+01 -0.10890644729E+02 -0.31256761010E+02  0.33477957590E+02  0.10566000000E+00 0.  1.
         22    1    1    0    0    0 -0.14582848121E+02 -0.24005861691E+02 -0.15749258224E+02  0.32202173676E+02  0.00000000000E+00 0. -1.
</event>
<event>
 5    1  0.6978980E-004  0.9118800E+02  0.7818608E-02  0.1130116E+00
         25   -1    0    0    0    0  0.00000000000E+00  0.00000000000E+00  0.99999998245E-14  0.12500000000E+03  0.12500000000E+03 0.  0.
        -13    1    3    3    0    0  0.81461795772E+01  0.41780901277E+01  0.28719064318E+02  0.30143199866E+02  0.10566000000E+00 0.  1.
         23    2    1    0    0    0 -0.60376413119E+01 -0.13246766470E+02 -0.29257289849E+02  0.92320970886E+02  0.86343747437E+02 0.  0.
         13    1    3    3    0    0 -0.14183820889E+02 -0.17424856598E+02 -0.57976354167E+02  0.62177771020E+02  0.10566000000E+00 0. -1.
         22    1    1    0    0    0  0.60376413119E+01  0.13246766470E+02  0.29257289849E+02  0.32679029114E+02  0.00000000000E+00 0. -1.
</event>
<event>
 5    1  0.6978980E-004  0.9118800E+02  0.7818608E-02  0.1130116E+00
         25   -1    0    0    0    0  0.00000000000E+00  0.00000000000E+00  0.99999998245E-14  0.12500000000E+03  0.12500000000E+03 0.  0.
        -13    1    3    3    0    0  0.92761542648E+01 -0.50997970108E+02 -0.21526510541E+02  0.56127015004E+02  0.10566000000E+00 0.  1.
         23    2    1    0    0    0 -0.10951491104E+02 -0.32234657964E+02 -0.27240809333E+00  0.90954698744E+02  0.84342603030E+02 0.  0.
         13    1    3    3    0    0 -0.20227645369E+02  0.18763312144E+02  0.21254102448E+02  0.34827683740E+02  0.10566000000E+00 0. -1.
         22    1    1    0    0    0  0.10951491104E+02  0.32234657964E+02  0.27240809333E+00  0.34045301256E+02  0.00000000000E+00 0.  1.
</event>
<event>
 5    1  0.6978980E-004  0.9118800E+02  0.7818608E-02  0.1130116E+00
         25   -1    0    0    0    0  0.00000000000E+00  0.00000000000E+00  0.99999998245E-14  0.12500000000E+03  0.12500000000E+03 0.  0.
        -13    1    3    3    0    0  0.28199789201E+02  0.45122909147E+01 -0.27928287426E+02  0.39944827986E+02  0.10566000000E+00 0. -1.
         23    2    1    0    0    0  0.10197519385E+02 -0.35049839161E+01  0.25726911211E+02  0.97104690819E+02  0.93011680475E+02 0.  0.
         13    1    3    3    0    0 -0.18002269816E+02 -0.80172748308E+01  0.53655198637E+02  0.57159862832E+02  0.10566000000E+00 0.  1.
         22    1    1    0    0    0 -0.10197519385E+02  0.35049839161E+01 -0.25726911211E+02  0.27895309181E+02  0.00000000000E+00 0.  1.
</event>
<event>
 5    1  0.6978980E-004  0.9118800E+02  0.7818608E-02  0.1130116E+00
         25   -1    0    0    0    0  0.00000000000E+00  0.00000000000E+00  0.99999998245E-14  0.12500000000E+03  0.12500000000E+03 0.  0.
        -13    1    3    3    0    0 -0.36176299816E+02  0.23521317984E+02  0.10552783001E+02  0.44422398192E+02  0.10566000000E+00 0. -1.
         23    2    1    0    0    0  0.71707313601E+01  0.43547707367E+01  0.28643529476E+02  0.95153137564E+02  0.90350895906E+02 0.  0.
         13    1    3    3    0    0  0.43347031176E+02 -0.19166547247E+02  0.18090746475E+02  0.50730739372E+02  0.10566000000E+00 0.  1.
         22    1    1    0    0    0 -0.71707313601E+01 -0.43547707367E+01 -0.28643529476E+02  0.29846862436E+02  0.00000000000E+00 0.  1.
</event>
<event>
 5    1  0.6978980E-004  0.9118800E+02  0.7818608E-02  0.1130116E+00
         25   -1    0    0    0    0  0.00000000000E+00  0.00000000000E+00  0.99999998245E-14  0.12500000000E+03  0.12500000000E+03 0.  0.
        -13    1    3    3    0    0 -0.41900406066E+02 -0.99484693922E+00  0.31103851491E+01  0.42027602939E+02  0.10566000000E+00 0.  1.
         23    2    1    0    0    0 -0.13603997824E+02  0.32887649554E+02 -0.99167489920E+01  0.88053983157E+02  0.79928066342E+02 0.  0.
         13    1    3    3    0    0  0.28296408242E+02  0.33882496493E+02 -0.13027134141E+02  0.46026380218E+02  0.10566000000E+00 0. -1.
         22    1    1    0    0    0  0.13603997824E+02 -0.32887649554E+02  0.99167489920E+01  0.36946016843E+02  0.00000000000E+00 0.  1.
</event>
<event>
 5    1  0.6978980E-004  0.9118800E+02  0.7818608E-02  0.1130116E+00
         25   -1    0    0    0    0  0.00000000000E+00  0.00000000000E+00  0.99999998245E-14  0.12500000000E+03  0.12500000000E+03 0.  0.
        -13    1    3    3    0    0  0.20023385988E+02 -0.14540266452E+02 -0.35630314997E+02  0.43380708221E+02  0.10566000000E+00 0.  1.
         23    2    1    0    0    0 -0.25431468510E+02 -0.94708572222E+01 -0.84837210940E+01  0.96567092117E+02  0.92286364265E+02 0.  0.
         13    1    3    3    0    0 -0.45454854497E+02  0.50694092302E+01  0.27146593903E+02  0.53186383896E+02  0.10566000000E+00 0. -1.
         22    1    1    0    0    0  0.25431468510E+02  0.94708572222E+01  0.84837210940E+01  0.28432907883E+02  0.00000000000E+00 0. -1.
</event>
<event>
 5    1  0.6978980E-004  0.9118800E+02  0.7818608E-02  0.1130116E+00
         25   -1    0    0    0    0  0.00000000000E+00  0.00000000000E+00  0.99999998245E-14  0.12500000000E+03  0.12500000000E+03 0.  0.
        -13    1    3    3    0    0 -0.59800580060E+02 -0.11145272436E+02 -0.71148800771E+01  0.61245074542E+02  0.10566000000E+00 0.  1.
         23    2    1    0    0    0 -0.28459140873E+02 -0.81643052566E+01  0.49906002842E+01  0.94975265684E+02  0.90104475034E+02 0.  0.
         13    1    3    3    0    0  0.31341439187E+02  0.29809671795E+01  0.12105480361E+02  0.33730191142E+02  0.10566000000E+00 0. -1.
         22    1    1    0    0    0  0.28459140873E+02  0.81643052566E+01 -0.49906002842E+01  0.30024734316E+02  0.00000000000E+00 0.  1.
</event>
<event>
 5    1  0.6978980E-004  0.9118800E+02  0.7818608E-02  0.1130116E+00
         25   -1    0    0    0    0  0.00000000000E+00  0.00000000000E+00  0.99999998245E-14  0.12500000000E+03  0.12500000000E+03 0.  0.
        -13    1    3    3    0    0  0.97293674252E+01  0.38463898972E+02 -0.30363143461E+02  0.49960622089E+02  0.10566000000E+00 0.  1.
         23    2    1    0    0    0 -0.41955109693E+01 -0.69618054379E+01 -0.26099893336E+02  0.97663696677E+02  0.93759928376E+02 0.  0.
         13    1    3    3    0    0 -0.13924878394E+02 -0.45425704410E+02  0.42632501251E+01  0.47703074588E+02  0.10566000000E+00 0. -1.
         22    1    1    0    0    0  0.41955109693E+01  0.69618054379E+01  0.26099893336E+02  0.27336303323E+02  0.00000000000E+00 0. -1.
</event>
<event>
 5    1  0.6978980E-004  0.9118800E+02  0.7818608E-02  0.1130116E+00
         25   -1    0    0    0    0  0.00000000000E+00  0.00000000000E+00  0.99999998245E-14  0.12500000000E+03  0.12500000000E+03 0.  0.
        -13    1    3    3    0    0 -0.10397327877E+02 -0.51151086917E+02  0.60718420478E+01  0.52549182197E+02  0.10566000000E+00 0.  1.
         23    2    1    0    0    0  0.15141992636E+02 -0.22070283397E+02 -0.12478763530E+02  0.95468713380E+02  0.90786443619E+02 0.  0.
         13    1    3    3    0    0  0.25539320512E+02  0.29080803520E+02 -0.18550605578E+02  0.42919531182E+02  0.10566000000E+00 0. -1.
         22    1    1    0    0    0 -0.15141992636E+02  0.22070283397E+02  0.12478763530E+02  0.29531286620E+02  0.00000000000E+00 0.  1.
</event>
<event>
 5    1  0.6978980E-004  0.9118800E+02  0.7818608E-02  0.1130116E+00
         25   -1    0    0    0    0  0.00000000000E+00  0.00000000000E+00  0.99999998245E-14  0.12500000000E+03  0.12500000000E+03 0.  0.
        -13    1    3    3    0    0 -0.38059235495E+02 -0.14371297656E+02 -0.33302362470E+02  0.52574690802E+02  0.10566000000E+00 0. -1.
         23    2    1    0    0    0 -0.15900325424E+02  0.18450996167E+02 -0.16420344580E+02  0.95625056183E+02  0.91001450789E+02 0.  0.
         13    1    3    3    0    0  0.22158910072E+02  0.32822293823E+02  0.16882017890E+02  0.43050365381E+02  0.10566000000E+00 0.  1.
         22    1    1    0    0    0  0.15900325424E+02 -0.18450996167E+02  0.16420344580E+02  0.29374943817E+02  0.00000000000E+00 0. -1.
</event>
<event>
 5    1  0.6978980E-004  0.9118800E+02  0.7818608E-02  0.1130116E+00
         25   -1    0    0    0    0  0.00000000000E+00  0.00000000000E+00  0.99999998245E-14  0.12500000000E+03  0.12500000000E+03 0.  0.
        -13    1    3    3    0    0 -0.19910588880E+01 -0.45754831543E+02  0.42242080061E+02  0.62304682143E+02  0.10566000000E+00 0.  1.
         23    2    1    0    0    0 -0.31228476234E+00 -0.34800667651E+02  0.28113577891E+02  0.80261233225E+02  0.66635638409E+02 0.  0.
         13    1    3    3    0    0  0.16787741257E+01  0.10954163892E+02 -0.14128502171E+02  0.17956551082E+02  0.10566000000E+00 0. -1.
         22    1    1    0    0    0  0.31228476234E+00  0.34800667651E+02 -0.28113577891E+02  0.44738766775E+02  0.00000000000E+00 0.  1.
</event>
<event>
 5    1  0.6978980E-004  0.9118800E+02  0.7818608E-02  0.1130116E+00
         25   -1    0    0    0    0  0.00000000000E+00  0.00000000000E+00  0.99999998245E-14  0.12500000000E+03  0.12500000000E+03 0.  0.
        -13    1    3    3    0    0  0.24783492779E+02 -0.50959129144E+02 -0.16759140685E+02  0.59092591059E+02  0.10566000000E+00 0. -1.
         23    2    1    0    0    0  0.14481168799E+02 -0.26393975165E+02  0.62035493824E+01  0.94261909628E+02  0.89109356450E+02 0.  0.
         13    1    3    3    0    0 -0.10302323980E+02  0.24565153980E+02  0.22962690068E+02  0.35169318569E+02  0.10566000000E+00 0.  1.
         22    1    1    0    0    0 -0.14481168799E+02  0.26393975165E+02 -0.62035493824E+01  0.30738090372E+02  0.00000000000E+00 0. -1.
</event>
<event>
 5    1  0.6978980E-004  0.9118800E+02  0.7818608E-02  0.1130116E+00
         25   -1    0    0    0    0  0.00000000000E+00  0.00000000000E+00  0.99999998245E-14  0.12500000000E+03  0.12500000000E+03 0.  0.
        -13    1    3    3    0    0 -0.43239612607E+02  0.42323710536E+01  0.31198232181E+01  0.43558254373E+02  0.10566000000E+00 0. -1.
         23    2    1    0    0    0  0.77564000818E+01  0.17497396773E+02  0.18429053368E+02  0.98430268272E+02  0.94776405650E+02 0.  0.
         13    1    3    3    0    0  0.50996012688E+02  0.13265025720E+02  0.15309230150E+02  0.54872013898E+02  0.10566000000E+00 0.  1.
         22    1    1    0    0    0 -0.77564000818E+01 -0.17497396773E+02 -0.18429053368E+02  0.26569731728E+02  0.00000000000E+00 0.  1.
</event>
<event>
 5    1  0.6978980E-004  0.9118800E+02  0.7818608E-02  0.1130116E+00
         25   -1    0    0    0    0  0.00000000000E+00  0.00000000000E+00  0.99999998245E-14  0.12500000000E+03  0.12500000000E+03 0.  0.
        -13    1    3    3    0    0 -0.36123699305E+02 -0.18449334754E+02 -0.45166261221E+02  0.60706687614E+02  0.10566000000E+00 0. -1.
         23    2    1    0    0    0 -0.11897185103E+02 -0.19039132895E+01 -0.27559299873E+02  0.94922052785E+02  0.90030623657E+02 0.  0.
         13    1    3    3    0    0  0.24226514202E+02  0.16545421464E+02  0.17606961348E+02  0.34215365171E+02  0.10566000000E+00 0.  1.
         22    1    1    0    0    0  0.11897185103E+02  0.19039132895E+01  0.27559299873E+02  0.30077947215E+02  0.00000000000E+00 0. -1.
</event>
<event>
 5    1  0.6978980E-004  0.9118800E+02  0.7818608E-02  0.1130116E+00
         25   -1    0    0    0    0  0.00000000000E+00  0.00000000000E+00  0.99999998245E-14  0.12500000000E+03  0.12500000000E+03 0.  0.
        -13    1    3    3    0    0 -0.34422891797E+02 -0.79428779999E+01  0.10998551212E+02  0.37000055181E+02  0.10566000000E+00 0.  1.
         23    2    1    0    0    0  0.24541933996E+02 -0.25035047867E+01  0.14616390789E+02  0.96325744296E+02  0.91958882518E+02 0.  0.
         13    1    3    3    0    0  0.58964825793E+02  0.54393732132E+01  0.36178395776E+01  0.59325689115E+02  0.10566000000E+00 0. -1.
         22    1    1    0    0    0 -0.24541933996E+02  0.25035047867E+01 -0.14616390789E+02  0.28674255704E+02  0.00000000000E+00 0. -1.
</event>
<event>
 5    1  0.6978980E-004  0.9118800E+02  0.7818608E-02  0.1130116E+00
         25   -1    0    0    0    0  0.00000000000E+00  0.00000000000E+00  0.99999998245E-14  0.12500000000E+03  0.12500000000E+03 0.  0.
        -13    1    3    3    0    0 -0.13385046711E+02 -0.29548271733E+02  0.23440831813E+02  0.40021789040E+02  0.10566000000E+00 0. -1.
         23    2    1    0    0    0  0.21833586900E+02 -0.14348110916E+02 -0.15450446855E+02  0.94647238811E+02  0.89648255437E+02 0.  0.
         13    1    3    3    0    0  0.35218633611E+02  0.15200160816E+02 -0.38891278668E+02  0.54625449771E+02  0.10566000000E+00 0.  1.
         22    1    1    0    0    0 -0.21833586900E+02  0.14348110916E+02  0.15450446855E+02  0.30352761189E+02  0.00000000000E+00 0.  1.
</event>
<event>
 5    1  0.6978980E-004  0.9118800E+02  0.7818608E-02  0.1130116E+00
         25   -1    0    0    0    0  0.00000000000E+00  0.00000000000E+00  0.99999998245E-14  0.12500000000E+03  0.12500000000E+03 0.  0.
        -13    1    3    3    0    0 -0.11471113769E+02 -0.54744903697E+02  0.72858547837E+00  0.55938653297E+02  0.10566000000E+00 0. -1.
         23    2    1    0    0    0 -0.12700418516E+01 -0.20193286587E+02 -0.19197860365E+02  0.97108430090E+02  0.93016705609E+02 0.  0.
         13    1    3    3    0    0  0.10201071918E+02  0.34551617110E+02 -0.19926445843E+02  0.41169776792E+02  0.10566000000E+00 0.  1.
         22    1    1    0    0    0  0.12700418516E+01  0.20193286587E+02  0.19197860365E+02  0.27891569910E+02  0.00000000000E+00 0. -1.
</event>
<event>
 5    1  0.6978980E-004  0.9118800E+02  0.7818608E-02  0.1130116E+00
         25   -1    0    0    0    0  0.00000000000E+00  0.00000000000E+00  0.99999998245E-14  0.12500000000E+03  0.12500000000E+03 0.  0.
        -13    1    3    3    0    0 -0.25268188969E+02 -0.23917157854E+02  0.18730217568E+02  0.39513846026E+02  0.10566000000E+00 0.  1.
         23    2    1    0    0    0  0.85293106937E+01  0.23437388669E+02  0.89089735196E+01  0.98515473618E+02  0.94888715896E+02 0.  0.
         13    1    3    3    0    0  0.33797499662E+02  0.47354546523E+02 -0.98212440481E+01  0.59001627592E+02  0.10566000000E+00 0. -1.
         22    1    1    0    0    0 -0.85293106937E+01 -0.23437388669E+02 -0.89089735196E+01  0.26484526382E+02  0.00000000000E+00 0. -1.
</event>
<event>
 5    1  0.6978980E-004  0.9118800E+02  0.7818608E-02  0.1130116E+00
         25   -1    0    0    0    0  0.00000000000E+00  0.00000000000E+00  0.99999998245E-14  0.12500000000E+03  0.12500000000E+03 0.  0.
        -13    1    3    3    0    0 -0.11182228120E+02 -0.28632221235E+02  0.50505806462E+02  0.59124394027E+02  0.10566000000E+00 0.  1.
         23    2    1    0    0    0 -0.13723825147E+02 -0.11026414110E+01  0.23448033645E+02  0.97808650703E+02  0.93952981197E+02 0.  0.
         13    1    3    3    0    0 -0.25415970274E+01  0.27529579824E+02 -0.27057772817E+02  0.38684256676E+02  0.10566000000E+00 0. -1.
         22    1    1    0    0    0  0.13723825147E+02  0.11026414110E+01 -0.23448033645E+02  0.27191349297E+02  0.00000000000E+00 0.  1.
</event>
<event>
 5    1  0.6978980E-004  0.9118800E+02  0.7818608E-02  0.1130116E+00
         25   -1    0    0    0    0  0.00000000000E+00  0.00000000000E+00  0.99999998245E-14  0.12500000000E+03  0.12500000000E+03 0.  0.
        -13    1    3    3    0    0  0.17451691910E+02  0.24150242193E+02  0.21275183143E+02  0.36612024395E+02  0.10566000000E+00 0. -1.
         23    2    1    0    0    0  0.91325333874E+01 -0.20036295455E+02 -0.18190600355E+02  0.96438588219E+02  0.92112143905E+02 0.  0.
         13    1    3    3    0    0 -0.83191585222E+01 -0.44186537648E+02 -0.39465783498E+02  0.59826563824E+02  0.10566000000E+00 0.  1.
         22    1    1    0    0    0 -0.91325333874E+01  0.20036295455E+02  0.18190600355E+02  0.28561411781E+02  0.00000000000E+00 0.  1.
</event>
<event>
 5    1  0.6978980E-004  0.9118800E+02  0.7818608E-02  0.1130116E+00
         25   -1    0    0    0    0  0.00000000000E+00  0.00000000000E+00  0.99999998245E-14  0.12500000000E+03  0.12500000000E+03 0.  0.
        -13    1    3    3    0    0  0.42663500179E+01 -0.30920278912E+02  0.41026224747E+02  0.51550244146E+02  0.10566000000E+00 0. -1.
         23    2    1    0    0    0 -0.16708599319E+02  0.47424885181E+01  0.21671382761E+02  0.97227399846E+02  0.93176445315E+02 0.  0.
         13    1    3    3    0    0 -0.20974949336E+02  0.35662767430E+02 -0.19354841986E+02  0.45677155700E+02  0.10566000000E+00 0.  1.
         22    1    1    0    0    0  0.16708599319E+02 -0.47424885181E+01 -0.21671382761E+02  0.27772600154E+02  0.00000000000E+00 0. -1.
</event>
<event>
 5    1  0.6978980E-004  0.9118800E+02  0.7818608E-02  0.1130116E+00
         25   -1    0    0    0    0  0.00000000000E+00  0.00000000000E+00  0.99999998245E-14  0.12500000000E+03  0.12500000000E+03 0.  0.
        -13    1    3    3    0    0 -0.23785364091E+02 -0.14088509068E+02 -0.35135983755E+02  0.44707696778E+02  0.10566000000E+00 0.  1.
         23    2    1    0    0    0  0.23055863167E+02 -0.66691874760E+01 -0.17460273498E+02  0.95319837625E+02  0.90581230982E+02 0.  0.
         13    1    3    3    0    0  0.46841227258E+02  0.74193215923E+01  0.17675710258E+02  0.50612140847E+02  0.10566000000E+00 0. -1.
         22    1    1    0    0    0 -0.23055863167E+02  0.66691874760E+01  0.17460273498E+02  0.29680162375E+02  0.00000000000E+00 0. -1.
</event>
<event>
 5    1  0.6978980E-004  0.9118800E+02  0.7818608E-02  0.1130116E+00
         25   -1    0    0    0    0  0.00000000000E+00  0.00000000000E+00  0.99999998245E-14  0.12500000000E+03  0.12500000000E+03 0.  0.
        -13    1    3    3    0    0  0.33031377294E+01  0.22139285669E+01 -0.53126292665E+02  0.53275006663E+02  0.10566000000E+00 0. -1.
         23    2    1    0    0    0  0.20561396353E+02  0.13622492008E+02 -0.16548463301E+02  0.95298233283E+02  0.90551412583E+02 0.  0.
         13    1    3    3    0    0  0.17258258624E+02  0.11408563441E+02  0.36577829364E+02  0.42023226620E+02  0.10566000000E+00 0.  1.
         22    1    1    0    0    0 -0.20561396353E+02 -0.13622492008E+02  0.16548463301E+02  0.29701766717E+02  0.00000000000E+00 0. -1.
</event>
<event>
 5    1  0.6978980E-004  0.9118800E+02  0.7818608E-02  0.1130116E+00
         25   -1    0    0    0    0  0.00000000000E+00  0.00000000000E+00  0.99999998245E-14  0.12500000000E+03  0.12500000000E+03 0.  0.
        -13    1    3    3    0    0 -0.17416673776E+02  0.31023351584E+02 -0.24726942668E+02  0.43326916884E+02  0.10566000000E+00 0.  1.
         23    2    1    0    0    0  0.12818147146E+02 -0.12038525299E+02 -0.23099813279E+02  0.95968424755E+02  0.91471887424E+02 0.  0.
         13    1    3    3    0    0  0.30234820922E+02 -0.43061876883E+02  0.16271293885E+01  0.52641507871E+02  0.10566000000E+00 0. -1.
         22    1    1    0    0    0 -0.12818147146E+02  0.12038525299E+02  0.23099813279E+02  0.29031575245E+02  0.00000000000E+00 0. -1.
</event>
<event>
 5    1  0.6978980E-004  0.9118800E+02  0.7818608E-02  0.1130116E+00
         25   -1    0    0    0    0  0.00000000000E+00  0.00000000000E+00  0.99999998245E-14  0.12500000000E+03  0.12500000000E+03 0.  0.
        -13    1    3    3    0    0  0.16117426205E+02 -0.22725134705E+02 -0.50620697965E+02  0.57781220144E+02  0.10566000000E+00 0.  1.
         23    2    1    0    0    0  0.82158480810E+01  0.62712514203E+01 -0.27259755839E+02  0.95846560366E+02  0.91305202982E+02 0.  0.
         13    1    3    3    0    0 -0.79015781241E+01  0.28996386126E+02  0.23360942126E+02  0.38065340222E+02  0.10566000000E+00 0. -1.
         22    1    1    0    0    0 -0.82158480810E+01 -0.62712514203E+01  0.27259755839E+02  0.29153439634E+02  0.00000000000E+00 0.  1.
</event>
<event>
 5    1  0.6978980E-004  0.9118800E+02  0.7818608E-02  0.1130116E+00
         25   -1    0    0    0    0  0.00000000000E+00  0.00000000000E+00  0.99999998245E-14  0.12500000000E+03  0.12500000000E+03 0.  0.
        -13    1    3    3    0    0  0.22347057585E+02  0.21707586055E+01 -0.32253348104E+02  0.39298763385E+02  0.10566000000E+00 0. -1.
         23    2    1    0    0    0 -0.23072905804E+02 -0.16982538617E+02 -0.41176248342E+01  0.96056599467E+02  0.91592302443E+02 0.  0.
         13    1    3    3    0    0 -0.45419963389E+02 -0.19153297223E+02  0.28135723270E+02  0.56757836082E+02  0.10566000000E+00 0.  1.
         22    1    1    0    0    0  0.23072905804E+02  0.16982538617E+02  0.41176248342E+01  0.28943400533E+02  0.00000000000E+00 0.  1.
</event>
<event>
 5    1  0.6978980E-004  0.9118800E+02  0.7818608E-02  0.1130116E+00
         25   -1    0    0    0    0  0.00000000000E+00  0.00000000000E+00  0.99999998245E-14  0.12500000000E+03  0.12500000000E+03 0.  0.
        -13    1    3    3    0    0  0.25808104690E+02 -0.92900883641E+01  0.52673582150E+02  0.59387552821E+02  0.10566000000E+00 0.  1.
         23    2    1    0    0    0  0.24049725136E+02 -0.47505829728E+01  0.17540243153E+02  0.94856718036E+02  0.89939866072E+02 0.  0.
         13    1    3    3    0    0 -0.17583795538E+01  0.45395053914E+01 -0.35133338998E+02  0.35469165215E+02  0.10566000000E+00 0. -1.
         22    1    1    0    0    0 -0.24049725136E+02  0.47505829728E+01 -0.17540243153E+02  0.30143281964E+02  0.00000000000E+00 0.  1.
</event>
<event>
 5    1  0.6978980E-004  0.9118800E+02  0.7818608E-02  0.1130116E+00
         25   -1    0    0    0    0  0.00000000000E+00  0.00000000000E+00  0.99999998245E-14  0.12500000000E+03  0.12500000000E+03 0.  0.
        -13    1    3    3    0    0 -0.79325905798E+01  0.29815398548E+02 -0.30063740261E+02  0.43078110757E+02  0.10566000000E+00 0. -1.
         23    2    1    0    0    0 -0.14388342515E+02  0.16254305490E+02  0.20083785987E+02  0.95426611508E+02  0.90728456821E+02 0.  0.
         13    1    3    3    0    0 -0.64557519353E+01 -0.13561093058E+02  0.50147526249E+02  0.52348500751E+02  0.10566000000E+00 0.  1.
         22    1    1    0    0    0  0.14388342515E+02 -0.16254305490E+02 -0.20083785987E+02  0.29573388492E+02  0.00000000000E+00 0. -1.
</event>
<event>
 5    1  0.6978980E-004  0.9118800E+02  0.7818608E-02  0.1130116E+00
         25   -1    0    0    0    0  0.00000000000E+00  0.00000000000E+00  0.99999998245E-14  0.12500000000E+03  0.12500000000E+03 0.  0.
        -13    1    3    3    0    0 -0.21799096100E+02  0.24848004191E+01 -0.27537698906E+02  0.35209527816E+02  0.10566000000E+00 0.  1.
         23    2    1    0    0    0  0.10125737382E+02 -0.11197798561E+02  0.23573995585E+02  0.97006170002E+02  0.92879182277E+02 0.  0.
         13    1    3    3    0    0  0.31924833482E+02 -0.13682598980E+02  0.51111694491E+02  0.61796642186E+02  0.10566000000E+00 0. -1.
         22    1    1    0    0    0 -0.10125737382E+02  0.11197798561E+02 -0.23573995585E+02  0.27993829998E+02  0.00000000000E+00 0. -1.
</event>
<event>
 5    1  0.6978980E-004  0.9118800E+02  0.7818608E-02  0.1130116E+00
         25   -1    0    0    0    0  0.00000000000E+00  0.00000000000E+00  0.99999998245E-14  0.12500000000E+03  0.12500000000E+03 0.  0.
        -13    1    3    3    0    0  0.85251895514E+01 -0.59786826944E+02  0.63771372172E+01  0.60727444998E+02  0.10566000000E+00 0. -1.
         23    2    1    0    0    0 -0.40476714583E+01 -0.23579307615E+02 -0.46872296025E+01  0.10062096160E+03  0.97622950174E+02 0.  0.
         13    1    3    3    0    0 -0.12572861010E+02  0.36207519329E+02 -0.11064366820E+02  0.39893516605E+02  0.10566000000E+00 0.  1.
         22    1    1    0    0    0  0.40476714583E+01  0.23579307615E+02  0.46872296025E+01  0.24379038397E+02  0.00000000000E+00 0. -1.
</event>
<event>
 5    1  0.6978980E-004  0.9118800E+02  0.7818608E-02  0.1130116E+00
         25   -1    0    0    0    0  0.00000000000E+00  0.00000000000E+00  0.99999998245E-14  0.12500000000E+03  0.12500000000E+03 0.  0.
        -13    1    3    3    0    0  0.10029478674E+02  0.32705654664E+02 -0.23557424405E+02  0.41535691858E+02  0.10566000000E+00 0.  1.
         23    2    1    0    0    0 -0.24670744133E+02  0.10235838932E+02  0.11672446343E+02  0.95851003133E+02  0.91311285082E+02 0.  0.
         13    1    3    3    0    0 -0.34700222807E+02 -0.22469815732E+02  0.35229870748E+02  0.54315311275E+02  0.10566000000E+00 0. -1.
         22    1    1    0    0    0  0.24670744133E+02 -0.10235838932E+02 -0.11672446343E+02  0.29148996867E+02  0.00000000000E+00 0. -1.
</event>
<event>
 5    1  0.6978980E-004  0.9118800E+02  0.7818608E-02  0.1130116E+00
         25   -1    0    0    0    0  0.00000000000E+00  0.00000000000E+00  0.99999998245E-14  0.12500000000E+03  0.12500000000E+03 0.  0.
        -13    1    3    3    0    0 -0.15085674584E+02  0.59079421556E+02 -0.32729015952E+01  0.61062907545E+02  0.10566000000E+00 0.  1.
         23    2    1    0    0    0 -0.12395368622E+02  0.24743332478E+02 -0.88324476492E+01  0.95950218644E+02  0.91447004658E+02 0.  0.
         13    1    3    3    0    0  0.26903059624E+01 -0.34336089078E+02 -0.55595460540E+01  0.34887311098E+02  0.10566000000E+00 0. -1.
         22    1    1    0    0    0  0.12395368622E+02 -0.24743332478E+02  0.88324476492E+01  0.29049781356E+02  0.00000000000E+00 0.  1.
</event>
<event>
 5    1  0.6978980E-004  0.9118800E+02  0.7818608E-02  0.1130116E+00
         25   -1    0    0    0    0  0.00000000000E+00  0.00000000000E+00  0.99999998245E-14  0.12500000000E+03  0.12500000000E+03 0.  0.
        -13    1    3    3    0    0 -0.38684142511E+02  0.13067522859E+02  0.25021082514E+02  0.47888294704E+02  0.10566000000E+00 0.  1.
         23    2    1    0    0    0 -0.21019137112E+02 -0.20301858618E+02 -0.39932997190E+01  0.95505661036E+02  0.90837301033E+02 0.  0.
         13    1    3    3    0    0  0.17665005399E+02 -0.33369381477E+02 -0.29014382233E+02  0.47617366331E+02  0.10566000000E+00 0. -1.
         22    1    1    0    0    0  0.21019137112E+02  0.20301858618E+02  0.39932997190E+01  0.29494338964E+02  0.00000000000E+00 0. -1.
</event>
<event>
 5    1  0.6978980E-004  0.9118800E+02  0.7818608E-02  0.1130116E+00
         25   -1    0    0    0    0  0.00000000000E+00  0.00000000000E+00  0.99999998245E-14  0.12500000000E+03  0.12500000000E+03 0.  0.
        -13    1    3    3    0    0 -0.92226279369E+01 -0.28967103583E+02  0.41039097471E+02  0.51072190489E+02  0.10566000000E+00 0. -1.
         23    2    1    0    0    0 -0.27535694996E+02 -0.83747794132E+00  0.22589227853E+02  0.89374319892E+02  0.81966944392E+02 0.  0.
         13    1    3    3    0    0 -0.18313067059E+02  0.28129625642E+02 -0.18449869618E+02  0.38302129403E+02  0.10566000000E+00 0.  1.
         22    1    1    0    0    0  0.27535694996E+02  0.83747794132E+00 -0.22589227853E+02  0.35625680108E+02  0.00000000000E+00 0. -1.
</event>
<event>
 5    1  0.6978980E-004  0.9118800E+02  0.7818608E-02  0.1130116E+00
         25   -1    0    0    0    0  0.00000000000E+00  0.00000000000E+00  0.99999998245E-14  0.12500000000E+03  0.12500000000E+03 0.  0.
        -13    1    3    3    0    0  0.17968818148E+02  0.51793239608E+02  0.12931063679E+02  0.56326207636E+02  0.10566000000E+00 0.  1.
         23    2    1    0    0    0  0.77778277996E+01  0.14932754273E+02  0.23581202723E+02  0.96024926622E+02  0.91549066928E+02 0.  0.
         13    1    3    3    0    0 -0.10190990348E+02 -0.36860485335E+02  0.10650139044E+02  0.39698718986E+02  0.10566000000E+00 0. -1.
         22    1    1    0    0    0 -0.77778277996E+01 -0.14932754273E+02 -0.23581202723E+02  0.28975073378E+02  0.00000000000E+00 0.  1.
</event>
<event>
 5    1  0.6978980E-004  0.9118800E+02  0.7818608E-02  0.1130116E+00
         25   -1    0    0    0    0  0.00000000000E+00  0.00000000000E+00  0.99999998245E-14  0.12500000000E+03  0.12500000000E+03 0.  0.
        -13    1    3    3    0    0 -0.15608024067E+02 -0.34279749634E+02 -0.13524522330E+02  0.40020438760E+02  0.10566000000E+00 0.  1.
         23    2    1    0    0    0  0.17360415417E+02 -0.85362110104E+01  0.22572844280E+02  0.95271491448E+02  0.90514489790E+02 0.  0.
         13    1    3    3    0    0  0.32968439484E+02  0.25743538624E+02  0.36097366610E+02  0.55251052688E+02  0.10566000000E+00 0. -1.
         22    1    1    0    0    0 -0.17360415417E+02  0.85362110104E+01 -0.22572844280E+02  0.29728508552E+02  0.00000000000E+00 0. -1.
</event>
<event>
 5    1  0.6978980E-004  0.9118800E+02  0.7818608E-02  0.1130116E+00
         25   -1    0    0    0    0  0.00000000000E+00  0.00000000000E+00  0.99999998245E-14  0.12500000000E+03  0.12500000000E+03 0.  0.
        -13    1    3    3    0    0 -0.55615622930E+02  0.13469129526E+02 -0.15045333318E+02  0.59168303869E+02  0.10566000000E+00 0. -1.
         23    2    1    0    0    0 -0.35533761183E+02  0.72597455661E+01  0.52104621863E+01  0.88359844355E+02  0.80404981740E+02 0.  0.
         13    1    3    3    0    0  0.20081861747E+02 -0.62093839602E+01  0.20255795504E+02  0.29191540485E+02  0.10566000000E+00 0.  1.
         22    1    1    0    0    0  0.35533761183E+02 -0.72597455661E+01 -0.52104621863E+01  0.36640155645E+02  0.00000000000E+00 0. -1.
</event>
<event>
 5    1  0.6978980E-004  0.9118800E+02  0.7818608E-02  0.1130116E+00
         25   -1    0    0    0    0  0.00000000000E+00  0.00000000000E+00  0.99999998245E-14  0.12500000000E+03  0.12500000000E+03 0.  0.
        -13    1    3    3    0    0  0.11048597356E+02  0.40956715757E+02 -0.64168461399E+01  0.42903509734E+02  0.10566000000E+00 0.  1.
         23    2    1    0    0    0  0.30854304164E+02 -0.46685805994E+01  0.34265276802E+01  0.93606930348E+02  0.88185784495E+02 0.  0.
         13    1    3    3    0    0  0.19805706807E+02 -0.45625296356E+02  0.98433738201E+01  0.50703420614E+02  0.10566000000E+00 0. -1.
         22    1    1    0    0    0 -0.30854304164E+02  0.46685805994E+01 -0.34265276802E+01  0.31393069652E+02  0.00000000000E+00 0.  1.
</event>
<event>
 5    1  0.6978980E-004  0.9118800E+02  0.7818608E-02  0.1130116E+00
         25   -1    0    0    0    0  0.00000000000E+00  0.00000000000E+00  0.99999998245E-14  0.12500000000E+03  0.12500000000E+03 0.  0.
        -13    1    3    3    0    0 -0.27403348501E+02 -0.29352813510E+02  0.91123232078E+01  0.41177381756E+02  0.10566000000E+00 0. -1.
         23    2    1    0    0    0 -0.18080901021E-01  0.15230799155E+02  0.24883473764E+02  0.95825270586E+02  0.91276051879E+02 0.  0.
         13    1    3    3    0    0  0.27385267600E+02  0.44583612665E+02  0.15771150556E+02  0.54647888831E+02  0.10566000000E+00 0.  1.
         22    1    1    0    0    0  0.18080901021E-01 -0.15230799155E+02 -0.24883473764E+02  0.29174729414E+02  0.00000000000E+00 0.  1.
</event>
<event>
 5    1  0.6978980E-004  0.9118800E+02  0.7818608E-02  0.1130116E+00
         25   -1    0    0    0    0  0.00000000000E+00  0.00000000000E+00  0.99999998245E-14  0.12500000000E+03  0.12500000000E+03 0.  0.
        -13    1    3    3    0    0 -0.56135021468E+01  0.28769332805E+02  0.45687440477E+02  0.54282034760E+02  0.10566000000E+00 0. -1.
         23    2    1    0    0    0  0.63767058336E+01 -0.77361585074E+01  0.25313015129E+02  0.97773923149E+02  0.93906766462E+02 0.  0.
         13    1    3    3    0    0  0.11990207980E+02 -0.36505491312E+02 -0.20374425347E+02  0.43491888389E+02  0.10566000000E+00 0.  1.
         22    1    1    0    0    0 -0.63767058336E+01  0.77361585074E+01 -0.25313015129E+02  0.27226076851E+02  0.00000000000E+00 0. -1.
</event>
<event>
 5    1  0.6978980E-004  0.9118800E+02  0.7818608E-02  0.1130116E+00
         25   -1    0    0    0    0  0.00000000000E+00  0.00000000000E+00  0.99999998245E-14  0.12500000000E+03  0.12500000000E+03 0.  0.
        -13    1    3    3    0    0 -0.20554290555E+02  0.50565895041E+02 -0.74162593132E+01  0.55085394324E+02  0.10566000000E+00 0.  1.
         23    2    1    0    0    0  0.10301186015E+02  0.25936263787E+02  0.53628284323E+01  0.96582326954E+02  0.92306997235E+02 0.  0.
         13    1    3    3    0    0  0.30855476570E+02 -0.24629631254E+02  0.12779087746E+02  0.41496932631E+02  0.10566000000E+00 0. -1.
         22    1    1    0    0    0 -0.10301186015E+02 -0.25936263787E+02 -0.53628284323E+01  0.28417673046E+02  0.00000000000E+00 0.  1.
</event>
<event>
 5    1  0.6978980E-004  0.9118800E+02  0.7818608E-02  0.1130116E+00
         25   -1    0    0    0    0  0.00000000000E+00  0.00000000000E+00  0.99999998245E-14  0.12500000000E+03  0.12500000000E+03 0.  0.
        -13    1    3    3    0    0  0.34145324105E+02 -0.50154421616E+01  0.34249035630E+02  0.48621655915E+02  0.10566000000E+00 0.  1.
         23    2    1    0    0    0 -0.14289616341E+02 -0.55511545154E+01  0.21293278456E+02  0.98762390371E+02  0.95213431787E+02 0.  0.
         13    1    3    3    0    0 -0.48434940447E+02 -0.53571235375E+00 -0.12955757173E+02  0.50140734456E+02  0.10566000000E+00 0. -1.
         22    1    1    0    0    0  0.14289616341E+02  0.55511545154E+01 -0.21293278456E+02  0.26237609629E+02  0.00000000000E+00 0.  1.
</event>
<event>
 5    1  0.6978980E-004  0.9118800E+02  0.7818608E-02  0.1130116E+00
         25   -1    0    0    0    0  0.00000000000E+00  0.00000000000E+00  0.99999998245E-14  0.12500000000E+03  0.12500000000E+03 0.  0.
        -13    1    3    3    0    0 -0.10796121874E+01  0.12189158994E+01 -0.38252713026E+02  0.38287498434E+02  0.10566000000E+00 0. -1.
         23    2    1    0    0    0 -0.41274150470E+01  0.24273051660E+02  0.14841593264E+02  0.96251269898E+02  0.91857593450E+02 0.  0.
         13    1    3    3    0    0 -0.30478028595E+01  0.23054135761E+02  0.53094306290E+02  0.57963771464E+02  0.10566000000E+00 0.  1.
         22    1    1    0    0    0  0.41274150470E+01 -0.24273051660E+02 -0.14841593264E+02  0.28748730102E+02  0.00000000000E+00 0.  1.
</event>
<event>
 5    1  0.6978980E-004  0.9118800E+02  0.7818608E-02  0.1130116E+00
         25   -1    0    0    0    0  0.00000000000E+00  0.00000000000E+00  0.99999998245E-14  0.12500000000E+03  0.12500000000E+03 0.  0.
        -13    1    3    3    0    0 -0.52405775814E+02 -0.15575500145E+02  0.23771832071E+02  0.59616044044E+02  0.10566000000E+00 0. -1.
         23    2    1    0    0    0 -0.22501517540E+02 -0.20680401884E+02  0.12552310203E+02  0.91961268107E+02  0.85821425220E+02 0.  0.
         13    1    3    3    0    0  0.29904258275E+02 -0.51049017390E+01 -0.11219521868E+02  0.32345224063E+02  0.10566000000E+00 0.  1.
         22    1    1    0    0    0  0.22501517540E+02  0.20680401884E+02 -0.12552310203E+02  0.33038731893E+02  0.00000000000E+00 0. -1.
</event>
<event>
 5    1  0.6978980E-004  0.9118800E+02  0.7818608E-02  0.1130116E+00
         25   -1    0    0    0    0  0.00000000000E+00  0.00000000000E+00  0.99999998245E-14  0.12500000000E+03  0.12500000000E+03 0.  0.
        -13    1    3    3    0    0 -0.30240695222E+02  0.17767466451E+02 -0.71262398960E+01  0.35790738616E+02  0.10566000000E+00 0. -1.
         23    2    1    0    0    0  0.19699728705E+02 -0.14071682378E+02 -0.16427593648E+02  0.95743250538E+02  0.91163658519E+02 0.  0.
         13    1    3    3    0    0  0.49940423927E+02 -0.31839148829E+02 -0.93013537521E+01  0.59952511922E+02  0.10566000000E+00 0.  1.
         22    1    1    0    0    0 -0.19699728705E+02  0.14071682378E+02  0.16427593648E+02  0.29256749462E+02  0.00000000000E+00 0.  1.
</event>
<event>
 5    1  0.6978980E-004  0.9118800E+02  0.7818608E-02  0.1130116E+00
         25   -1    0    0    0    0  0.00000000000E+00  0.00000000000E+00  0.99999998245E-14  0.12500000000E+03  0.12500000000E+03 0.  0.
        -13    1    3    3    0    0 -0.20274057134E+02  0.21723220756E+01 -0.26135856529E+02  0.33148914559E+02  0.10566000000E+00 0. -1.
         23    2    1    0    0    0  0.25238310425E+02 -0.30028140690E+00  0.15913385143E+02  0.95162132973E+02  0.90363340151E+02 0.  0.
         13    1    3    3    0    0  0.45512367559E+02 -0.24726034825E+01  0.42049241672E+02  0.62013218414E+02  0.10566000000E+00 0.  1.
         22    1    1    0    0    0 -0.25238310425E+02  0.30028140690E+00 -0.15913385143E+02  0.29837867027E+02  0.00000000000E+00 0.  1.
</event>
<event>
 5    1  0.6978980E-004  0.9118800E+02  0.7818608E-02  0.1130116E+00
         25   -1    0    0    0    0  0.00000000000E+00  0.00000000000E+00  0.99999998245E-14  0.12500000000E+03  0.12500000000E+03 0.  0.
        -13    1    3    3    0    0 -0.50881829837E+02 -0.22443642221E+02 -0.25031926015E+02  0.60985950577E+02  0.10566000000E+00 0.  1.
         23    2    1    0    0    0 -0.21634343730E+02 -0.17200321694E+02 -0.47648668445E+01  0.96953612513E+02  0.92808421646E+02 0.  0.
         13    1    3    3    0    0  0.29247486107E+02  0.52433205266E+01  0.20267059170E+02  0.35967661937E+02  0.10566000000E+00 0. -1.
         22    1    1    0    0    0  0.21634343730E+02  0.17200321694E+02  0.47648668445E+01  0.28046387487E+02  0.00000000000E+00 0.  1.
</event>
<event>
 4    1  0.6978980E-004  0.9118800E+02  0.7818608E-02  0.1130116E+00
         25   -1    0    0    0    0  0.00000000000E+00  0.00000000000E+00  0.99999998245E-14  0.12500000000E+03  0.12500000000E+03 0.  0.
        -13    1    1    0    0    0 -0.36870836013E+02  0.18424142365E+02  0.12877266098E+02  0.43182666851E+02  0.10566000000E+00 0. -1.
         13    1    1    0    0    0 -0.34988388793E+01  0.12292712961E+02 -0.26389186022E+02  0.29321544441E+02  0.10566000000E+00 0.  1.
         22    1    1    0    0    0  0.40369674893E+02 -0.30716855325E+02  0.13511919925E+02  0.52495788708E+02  0.00000000000E+00 0.  1.
</event>
<event>
 5    1  0.6978980E-004  0.9118800E+02  0.7818608E-02  0.1130116E+00
         25   -1    0    0    0    0  0.00000000000E+00  0.00000000000E+00  0.99999998245E-14  0.12500000000E+03  0.12500000000E+03 0.  0.
        -13    1    3    3    0    0 -0.27281860865E+02  0.53080647149E+02  0.10950068847E+02  0.60677592288E+02  0.10566000000E+00 0.  1.
         23    2    1    0    0    0 -0.17171608151E+02  0.22664919506E+02 -0.44179034436E+01  0.96223610832E+02  0.91819947223E+02 0.  0.
         13    1    3    3    0    0  0.10110252714E+02 -0.30415727643E+02 -0.15367972290E+02  0.35546018544E+02  0.10566000000E+00 0. -1.
         22    1    1    0    0    0  0.17171608151E+02 -0.22664919506E+02  0.44179034436E+01  0.28776389168E+02  0.00000000000E+00 0.  1.
</event>
<event>
 5    1  0.6978980E-004  0.9118800E+02  0.7818608E-02  0.1130116E+00
         25   -1    0    0    0    0  0.00000000000E+00  0.00000000000E+00  0.99999998245E-14  0.12500000000E+03  0.12500000000E+03 0.  0.
        -13    1    3    3    0    0  0.16486283079E+02 -0.14609561759E+01  0.47989690469E+02  0.50763702368E+02  0.10566000000E+00 0. -1.
         23    2    1    0    0    0  0.15802879972E+02  0.22105603386E+02  0.89123967462E+01  0.96402455836E+02  0.92063097705E+02 0.  0.
         13    1    3    3    0    0 -0.68340310720E+00  0.23566559562E+02 -0.39077293723E+02  0.45638753468E+02  0.10566000000E+00 0.  1.
         22    1    1    0    0    0 -0.15802879972E+02 -0.22105603386E+02 -0.89123967462E+01  0.28597544164E+02  0.00000000000E+00 0. -1.
</event>
<event>
 5    1  0.6978980E-004  0.9118800E+02  0.7818608E-02  0.1130116E+00
         25   -1    0    0    0    0  0.00000000000E+00  0.00000000000E+00  0.99999998245E-14  0.12500000000E+03  0.12500000000E+03 0.  0.
        -13    1    3    3    0    0 -0.18763115107E+02 -0.80228901211E+01 -0.28252813548E+02  0.34851885054E+02  0.10566000000E+00 0. -1.
         23    2    1    0    0    0  0.26621372691E+02  0.17795295050E+02 -0.18654440379E+02  0.87941152801E+02  0.79751415035E+02 0.  0.
         13    1    3    3    0    0  0.45384487799E+02  0.25818185171E+02  0.95983731688E+01  0.53089267746E+02  0.10566000000E+00 0.  1.
         22    1    1    0    0    0 -0.26621372691E+02 -0.17795295050E+02  0.18654440379E+02  0.37058847199E+02  0.00000000000E+00 0.  1.
</event>
<event>
 5    1  0.6978980E-004  0.9118800E+02  0.7818608E-02  0.1130116E+00
         25   -1    0    0    0    0  0.00000000000E+00  0.00000000000E+00  0.99999998245E-14  0.12500000000E+03  0.12500000000E+03 0.  0.
        -13    1    3    3    0    0  0.24931764573E+02  0.22834246856E+02  0.13731840354E+02  0.36490688096E+02  0.10566000000E+00 0.  1.
         23    2    1    0    0    0 -0.93550689456E+01 -0.86573413384E+01 -0.24926659080E+02  0.97003478664E+02  0.92875560111E+02 0.  0.
         13    1    3    3    0    0 -0.34286833519E+02 -0.31491588195E+02 -0.38658499434E+02  0.60512790567E+02  0.10566000000E+00 0. -1.
         22    1    1    0    0    0  0.93550689456E+01  0.86573413384E+01  0.24926659080E+02  0.27996521336E+02  0.00000000000E+00 0. -1.
</event>
<event>
 5    1  0.6978980E-004  0.9118800E+02  0.7818608E-02  0.1130116E+00
         25   -1    0    0    0    0  0.00000000000E+00  0.00000000000E+00  0.99999998245E-14  0.12500000000E+03  0.12500000000E+03 0.  0.
        -13    1    3    3    0    0 -0.40403233687E+02 -0.45280431381E+01 -0.36734459001E+02  0.54793759764E+02  0.10566000000E+00 0.  1.
         23    2    1    0    0    0 -0.42446016650E+02  0.56426956864E+01 -0.13723666690E+02  0.80035087329E+02  0.66210058392E+02 0.  0.
         13    1    3    3    0    0 -0.20427829634E+01  0.10170738824E+02  0.23010792310E+02  0.25241327565E+02  0.10566000000E+00 0. -1.
         22    1    1    0    0    0  0.42446016650E+02 -0.56426956864E+01  0.13723666690E+02  0.44964912671E+02  0.00000000000E+00 0.  1.
</event>
<event>
 5    1  0.6978980E-004  0.9118800E+02  0.7818608E-02  0.1130116E+00
         25   -1    0    0    0    0  0.00000000000E+00  0.00000000000E+00  0.99999998245E-14  0.12500000000E+03  0.12500000000E+03 0.  0.
        -13    1    3    3    0    0  0.28092101299E+02  0.17023740711E+02 -0.12500745175E+02  0.35146176138E+02  0.10566000000E+00 0.  1.
         23    2    1    0    0    0 -0.27964360496E+02  0.65473660604E+01  0.70415332788E+01  0.95428786781E+02  0.90731453727E+02 0.  0.
         13    1    3    3    0    0 -0.56056461795E+02 -0.10476374650E+02  0.19542278454E+02  0.60282610643E+02  0.10566000000E+00 0. -1.
         22    1    1    0    0    0  0.27964360496E+02 -0.65473660604E+01 -0.70415332788E+01  0.29571213219E+02  0.00000000000E+00 0. -1.
</event>
<event>
 5    1  0.6978980E-004  0.9118800E+02  0.7818608E-02  0.1130116E+00
         25   -1    0    0    0    0  0.00000000000E+00  0.00000000000E+00  0.99999998245E-14  0.12500000000E+03  0.12500000000E+03 0.  0.
        -13    1    3    3    0    0 -0.41698054170E+01  0.33619904502E+02  0.11227848588E+02  0.35689788510E+02  0.10566000000E+00 0. -1.
         23    2    1    0    0    0 -0.11280783800E+02 -0.25311417919E+02 -0.40776335355E+01  0.96990161452E+02  0.92857634921E+02 0.  0.
         13    1    3    3    0    0 -0.71109783828E+01 -0.58931322421E+02 -0.15305482124E+02  0.61300372943E+02  0.10566000000E+00 0.  1.
         22    1    1    0    0    0  0.11280783800E+02  0.25311417919E+02  0.40776335355E+01  0.28009838548E+02  0.00000000000E+00 0.  1.
</event>
<event>
 5    1  0.6978980E-004  0.9118800E+02  0.7818608E-02  0.1130116E+00
         25   -1    0    0    0    0  0.00000000000E+00  0.00000000000E+00  0.99999998245E-14  0.12500000000E+03  0.12500000000E+03 0.  0.
        -13    1    3    3    0    0  0.32095508036E+02  0.20666293740E+02 -0.10466745548E+02  0.39582587831E+02  0.10566000000E+00 0.  1.
         23    2    1    0    0    0 -0.17000126707E+02 -0.97920444890E+00 -0.24612114376E+02  0.95071429645E+02  0.90237782615E+02 0.  0.
         13    1    3    3    0    0 -0.49095634742E+02 -0.21645498188E+02 -0.14145368829E+02  0.55488841814E+02  0.10566000000E+00 0. -1.
         22    1    1    0    0    0  0.17000126707E+02  0.97920444890E+00  0.24612114376E+02  0.29928570355E+02  0.00000000000E+00 0. -1.
</event>
<event>
 5    1  0.6978980E-004  0.9118800E+02  0.7818608E-02  0.1130116E+00
         25   -1    0    0    0    0  0.00000000000E+00  0.00000000000E+00  0.99999998245E-14  0.12500000000E+03  0.12500000000E+03 0.  0.
        -13    1    3    3    0    0 -0.36252324586E+02  0.10636876329E+02 -0.26390923836E+02  0.46085422867E+02  0.10566000000E+00 0. -1.
         23    2    1    0    0    0  0.90263631732E+01  0.17825679629E+02 -0.26349646559E+02  0.91931374989E+02  0.85777874462E+02 0.  0.
         13    1    3    3    0    0  0.45278687759E+02  0.71888032996E+01  0.41277277315E-01  0.45845952121E+02  0.10566000000E+00 0.  1.
         22    1    1    0    0    0 -0.90263631732E+01 -0.17825679629E+02  0.26349646559E+02  0.33068625011E+02  0.00000000000E+00 0.  1.
</event>
<event>
 5    1  0.6978980E-004  0.9118800E+02  0.7818608E-02  0.1130116E+00
         25   -1    0    0    0    0  0.00000000000E+00  0.00000000000E+00  0.99999998245E-14  0.12500000000E+03  0.12500000000E+03 0.  0.
        -13    1    3    3    0    0  0.14946166364E+02 -0.22469651568E+02 -0.21354848968E+02  0.34413861583E+02  0.10566000000E+00 0. -1.
         23    2    1    0    0    0 -0.10926544405E+02  0.16304081842E+02  0.20181549268E+02  0.96848492257E+02  0.92666731162E+02 0.  0.
         13    1    3    3    0    0 -0.25872710769E+02  0.38773733410E+02  0.41536398236E+02  0.62434630675E+02  0.10566000000E+00 0.  1.
         22    1    1    0    0    0  0.10926544405E+02 -0.16304081842E+02 -0.20181549268E+02  0.28151507743E+02  0.00000000000E+00 0.  1.
</event>
<event>
 5    1  0.6978980E-004  0.9118800E+02  0.7818608E-02  0.1130116E+00
         25   -1    0    0    0    0  0.00000000000E+00  0.00000000000E+00  0.99999998245E-14  0.12500000000E+03  0.12500000000E+03 0.  0.
        -13    1    3    3    0    0  0.30995824881E+02 -0.40592456873E+02  0.96145601079E+01  0.51970565181E+02  0.10566000000E+00 0.  1.
         23    2    1    0    0    0  0.23632988725E+02  0.63283724074E+01  0.70678856448E+01  0.99533915478E+02  0.96220989755E+02 0.  0.
         13    1    3    3    0    0 -0.73628361566E+01  0.46920829281E+02 -0.25466744631E+01  0.47563350297E+02  0.10566000000E+00 0. -1.
         22    1    1    0    0    0 -0.23632988725E+02 -0.63283724074E+01 -0.70678856448E+01  0.25466084522E+02  0.00000000000E+00 0.  1.
</event>
<event>
 5    1  0.6978980E-004  0.9118800E+02  0.7818608E-02  0.1130116E+00
         25   -1    0    0    0    0  0.00000000000E+00  0.00000000000E+00  0.99999998245E-14  0.12500000000E+03  0.12500000000E+03 0.  0.
        -13    1    3    3    0    0  0.36222154604E+02 -0.99626469514E+01  0.47147728426E+01  0.37862105930E+02  0.10566000000E+00 0. -1.
         23    2    1    0    0    0 -0.15086638977E+02 -0.21605555776E+02 -0.15732858662E+02  0.94309129082E+02  0.89175569920E+02 0.  0.
         13    1    3    3    0    0 -0.51308793581E+02 -0.11642908825E+02 -0.20447631504E+02  0.56447023153E+02  0.10566000000E+00 0.  1.
         22    1    1    0    0    0  0.15086638977E+02  0.21605555776E+02  0.15732858662E+02  0.30690870918E+02  0.00000000000E+00 0.  1.
</event>
<event>
 5    1  0.6978980E-004  0.9118800E+02  0.7818608E-02  0.1130116E+00
         25   -1    0    0    0    0  0.00000000000E+00  0.00000000000E+00  0.99999998245E-14  0.12500000000E+03  0.12500000000E+03 0.  0.
        -13    1    3    3    0    0 -0.27924578330E+02  0.32525812771E+02  0.20305955440E+02  0.47434729489E+02  0.10566000000E+00 0. -1.
         23    2    1    0    0    0 -0.13613928344E+02  0.36496460020E+02 -0.13026895695E+02  0.83926521326E+02  0.73189004170E+02 0.  0.
         13    1    3    3    0    0  0.14310649986E+02  0.39706472498E+01 -0.33332851136E+02  0.36491791837E+02  0.10566000000E+00 0.  1.
         22    1    1    0    0    0  0.13613928344E+02 -0.36496460020E+02  0.13026895695E+02  0.41073478674E+02  0.00000000000E+00 0.  1.
</event>
<event>
 5    1  0.6978980E-004  0.9118800E+02  0.7818608E-02  0.1130116E+00
         25   -1    0    0    0    0  0.00000000000E+00  0.00000000000E+00  0.99999998245E-14  0.12500000000E+03  0.12500000000E+03 0.  0.
        -13    1    3    3    0    0  0.10917249147E+02 -0.35184686611E+02  0.29491399803E+02  0.47190065981E+02  0.10566000000E+00 0. -1.
         23    2    1    0    0    0  0.24457554389E+02  0.85154687235E+01  0.14419484384E+02  0.95358699351E+02  0.90634843398E+02 0.  0.
         13    1    3    3    0    0  0.13540305241E+02  0.43700155335E+02 -0.15071915420E+02  0.48168633370E+02  0.10566000000E+00 0.  1.
         22    1    1    0    0    0 -0.24457554389E+02 -0.85154687235E+01 -0.14419484384E+02  0.29641300649E+02  0.00000000000E+00 0.  1.
</event>
<event>
 5    1  0.6978980E-004  0.9118800E+02  0.7818608E-02  0.1130116E+00
         25   -1    0    0    0    0  0.00000000000E+00  0.00000000000E+00  0.99999998245E-14  0.12500000000E+03  0.12500000000E+03 0.  0.
        -13    1    3    3    0    0  0.20449993808E+01 -0.10043127435E+02  0.46430550850E+02  0.47548434753E+02  0.10566000000E+00 0.  1.
         23    2    1    0    0    0  0.95463772032E+01  0.24133719441E+02  0.12874005943E+02  0.96029156713E+02  0.91554842462E+02 0.  0.
         13    1    3    3    0    0  0.75013778224E+01  0.34176846876E+02 -0.33556544907E+02  0.48480721960E+02  0.10566000000E+00 0. -1.
         22    1    1    0    0    0 -0.95463772032E+01 -0.24133719441E+02 -0.12874005943E+02  0.28970843287E+02  0.00000000000E+00 0. -1.
</event>
<event>
 5    1  0.6978980E-004  0.9118800E+02  0.7818608E-02  0.1130116E+00
         25   -1    0    0    0    0  0.00000000000E+00  0.00000000000E+00  0.99999998245E-14  0.12500000000E+03  0.12500000000E+03 0.  0.
        -13    1    3    3    0    0  0.35539381653E+02  0.45037679220E+02 -0.24263600842E+02  0.62291040188E+02  0.10566000000E+00 0.  1.
         23    2    1    0    0    0  0.16935570304E+02  0.19586253302E+02 -0.14649196140E+02  0.95250482231E+02  0.90485471529E+02 0.  0.
         13    1    3    3    0    0 -0.18603811350E+02 -0.25451425918E+02  0.96144047019E+01  0.32959442043E+02  0.10566000000E+00 0. -1.
         22    1    1    0    0    0 -0.16935570304E+02 -0.19586253302E+02  0.14649196140E+02  0.29749517769E+02  0.00000000000E+00 0.  1.
</event>
<event>
 5    1  0.6978980E-004  0.9118800E+02  0.7818608E-02  0.1130116E+00
         25   -1    0    0    0    0  0.00000000000E+00  0.00000000000E+00  0.99999998245E-14  0.12500000000E+03  0.12500000000E+03 0.  0.
        -13    1    3    3    0    0  0.46006115465E+02  0.50264217297E+01  0.39885991437E+02  0.61096080500E+02  0.10566000000E+00 0.  1.
         23    2    1    0    0    0  0.15904829812E+02  0.72904015760E+01  0.24265460703E+02  0.95084683695E+02  0.90256140643E+02 0.  0.
         13    1    3    3    0    0 -0.30101285653E+02  0.22639798463E+01 -0.15620530734E+02  0.33988603195E+02  0.10566000000E+00 0. -1.
         22    1    1    0    0    0 -0.15904829812E+02 -0.72904015760E+01 -0.24265460703E+02  0.29915316305E+02  0.00000000000E+00 0.  1.
</event>
<event>
 5    1  0.6978980E-004  0.9118800E+02  0.7818608E-02  0.1130116E+00
         25   -1    0    0    0    0  0.00000000000E+00  0.00000000000E+00  0.99999998245E-14  0.12500000000E+03  0.12500000000E+03 0.  0.
        -13    1    3    3    0    0 -0.46402888660E+02  0.23632222782E+02  0.26442628464E+02  0.58403200202E+02  0.10566000000E+00 0.  1.
         23    2    1    0    0    0 -0.14790951744E+02  0.22390395373E+02  0.25574777078E+01  0.98043688110E+02  0.94265168687E+02 0.  0.
         13    1    3    3    0    0  0.31611936916E+02 -0.12418274090E+01 -0.23885150757E+02  0.39640487908E+02  0.10566000000E+00 0. -1.
         22    1    1    0    0    0  0.14790951744E+02 -0.22390395373E+02 -0.25574777078E+01  0.26956311890E+02  0.00000000000E+00 0.  1.
</event>
<event>
 5    1  0.6978980E-004  0.9118800E+02  0.7818608E-02  0.1130116E+00
         25   -1    0    0    0    0  0.00000000000E+00  0.00000000000E+00  0.99999998245E-14  0.12500000000E+03  0.12500000000E+03 0.  0.
        -13    1    3    3    0    0 -0.46463120468E+02 -0.32458661907E+02  0.39220280207E+01  0.56813552646E+02  0.10566000000E+00 0. -1.
         23    2    1    0    0    0 -0.12500322770E+02 -0.20862179379E+02  0.17343008213E+02  0.95129135739E+02  0.90317683401E+02 0.  0.
         13    1    3    3    0    0  0.33962797697E+02  0.11596482528E+02  0.13420980193E+02  0.38315583094E+02  0.10566000000E+00 0.  1.
         22    1    1    0    0    0  0.12500322770E+02  0.20862179379E+02 -0.17343008213E+02  0.29870864261E+02  0.00000000000E+00 0. -1.
</event>
<event>
 5    1  0.6978980E-004  0.9118800E+02  0.7818608E-02  0.1130116E+00
         25   -1    0    0    0    0  0.00000000000E+00  0.00000000000E+00  0.99999998245E-14  0.12500000000E+03  0.12500000000E+03 0.  0.
        -13    1    3    3    0    0  0.67609361180E+01  0.28410914772E+02 -0.10295636283E+02  0.30966136761E+02  0.10566000000E+00 0.  1.
         23    2    1    0    0    0 -0.10506894577E+01 -0.31804719017E+02  0.27069097163E+01  0.93063007964E+02  0.87411395087E+02 0.  0.
         13    1    3    3    0    0 -0.78116255757E+01 -0.60215633789E+02  0.13002545999E+02  0.62096871203E+02  0.10566000000E+00 0. -1.
         22    1    1    0    0    0  0.10506894577E+01  0.31804719017E+02 -0.27069097163E+01  0.31936992036E+02  0.00000000000E+00 0. -1.
</event>
<event>
 5    1  0.6978980E-004  0.9118800E+02  0.7818608E-02  0.1130116E+00
         25   -1    0    0    0    0  0.00000000000E+00  0.00000000000E+00  0.99999998245E-14  0.12500000000E+03  0.12500000000E+03 0.  0.
        -13    1    3    3    0    0 -0.22372660855E+02  0.26603614890E+02  0.17565138478E+01  0.34804953439E+02  0.10566000000E+00 0. -1.
         23    2    1    0    0    0  0.12359704232E+02 -0.20008779938E+02 -0.17106160751E+02  0.95918488709E+02  0.91403622342E+02 0.  0.
         13    1    3    3    0    0  0.34732365087E+02 -0.46612394828E+02 -0.18862674599E+02  0.61113535270E+02  0.10566000000E+00 0.  1.
         22    1    1    0    0    0 -0.12359704232E+02  0.20008779938E+02  0.17106160751E+02  0.29081511291E+02  0.00000000000E+00 0.  1.
</event>
<event>
 5    1  0.6978980E-004  0.9118800E+02  0.7818608E-02  0.1130116E+00
         25   -1    0    0    0    0  0.00000000000E+00  0.00000000000E+00  0.99999998245E-14  0.12500000000E+03  0.12500000000E+03 0.  0.
        -13    1    3    3    0    0  0.32757418710E+02  0.71991779768E+01  0.22154126786E+02  0.40195685611E+02  0.10566000000E+00 0. -1.
         23    2    1    0    0    0  0.37377773476E+01  0.65397685300E+01 -0.26828984541E+02  0.97133641009E+02  0.93050579000E+02 0.  0.
         13    1    3    3    0    0 -0.29019641362E+02 -0.65940944684E+00 -0.48983111327E+02  0.56937955398E+02  0.10566000000E+00 0.  1.
         22    1    1    0    0    0 -0.37377773476E+01 -0.65397685300E+01  0.26828984541E+02  0.27866358991E+02  0.00000000000E+00 0.  1.
</event>
<event>
 5    1  0.6978980E-004  0.9118800E+02  0.7818608E-02  0.1130116E+00
         25   -1    0    0    0    0  0.00000000000E+00  0.00000000000E+00  0.99999998245E-14  0.12500000000E+03  0.12500000000E+03 0.  0.
        -13    1    3    3    0    0 -0.23897707839E+02 -0.44341266216E+02 -0.32254753170E+02  0.59813281098E+02  0.10566000000E+00 0.  1.
         23    2    1    0    0    0 -0.21669586855E+02 -0.18936368611E+02 -0.77128702684E+01  0.95206621232E+02  0.90424860011E+02 0.  0.
         13    1    3    3    0    0  0.22281209833E+01  0.25404897605E+02  0.24541882902E+02  0.35393340134E+02  0.10566000000E+00 0. -1.
         22    1    1    0    0    0  0.21669586855E+02  0.18936368611E+02  0.77128702684E+01  0.29793378768E+02  0.00000000000E+00 0.  1.
</event>
<event>
 5    1  0.6978980E-004  0.9118800E+02  0.7818608E-02  0.1130116E+00
         25   -1    0    0    0    0  0.00000000000E+00  0.00000000000E+00  0.99999998245E-14  0.12500000000E+03  0.12500000000E+03 0.  0.
        -13    1    3    3    0    0  0.62823878570E+01  0.17776150837E+02 -0.58770866951E+02  0.61721032898E+02  0.10566000000E+00 0. -1.
         23    2    1    0    0    0  0.45109544782E+01  0.30315543583E+01 -0.33732942177E+02  0.90832026398E+02  0.84160600042E+02 0.  0.
         13    1    3    3    0    0 -0.17714333787E+01 -0.14744596479E+02  0.25037924774E+02  0.29110993500E+02  0.10566000000E+00 0.  1.
         22    1    1    0    0    0 -0.45109544782E+01 -0.30315543583E+01  0.33732942177E+02  0.34167973602E+02  0.00000000000E+00 0. -1.
</event>
<event>
 5    1  0.6978980E-004  0.9118800E+02  0.7818608E-02  0.1130116E+00
         25   -1    0    0    0    0  0.00000000000E+00  0.00000000000E+00  0.99999998245E-14  0.12500000000E+03  0.12500000000E+03 0.  0.
        -13    1    3    3    0    0 -0.95178079152E+01 -0.21398371445E+02  0.12757457798E+02  0.26669136872E+02  0.10566000000E+00 0.  1.
         23    2    1    0    0    0  0.18224461279E+02 -0.11252280883E+02 -0.35669261289E+02  0.83394218973E+02  0.72274163732E+02 0.  0.
         13    1    3    3    0    0  0.27742269194E+02  0.10146090562E+02 -0.48426719087E+02  0.56725082100E+02  0.10566000000E+00 0. -1.
         22    1    1    0    0    0 -0.18224461279E+02  0.11252280883E+02  0.35669261289E+02  0.41605781027E+02  0.00000000000E+00 0. -1.
</event>
<event>
 5    1  0.6978980E-004  0.9118800E+02  0.7818608E-02  0.1130116E+00
         25   -1    0    0    0    0  0.00000000000E+00  0.00000000000E+00  0.99999998245E-14  0.12500000000E+03  0.12500000000E+03 0.  0.
        -13    1    3    3    0    0  0.18731267648E+02 -0.31144799127E+01 -0.20902155704E+02  0.28239540541E+02  0.10566000000E+00 0.  1.
         23    2    1    0    0    0 -0.33055001025E+02 -0.21008836613E+02 -0.37394544377E+01  0.85655523538E+02  0.76084695468E+02 0.  0.
         13    1    3    3    0    0 -0.51786268673E+02 -0.17894356700E+02  0.17162701267E+02  0.57415982997E+02  0.10566000000E+00 0. -1.
         22    1    1    0    0    0  0.33055001025E+02  0.21008836613E+02  0.37394544377E+01  0.39344476462E+02  0.00000000000E+00 0. -1.
</event>
<event>
 5    1  0.6978980E-004  0.9118800E+02  0.7818608E-02  0.1130116E+00
         25   -1    0    0    0    0  0.00000000000E+00  0.00000000000E+00  0.99999998245E-14  0.12500000000E+03  0.12500000000E+03 0.  0.
        -13    1    3    3    0    0 -0.38612926823E+02 -0.35446864775E+02  0.28786036393E+02  0.59800379559E+02  0.10566000000E+00 0.  1.
         23    2    1    0    0    0 -0.83766647442E+01 -0.25119614002E+02  0.14635175006E+02  0.94745217447E+02  0.89784766870E+02 0.  0.
         13    1    3    3    0    0  0.30236262078E+02  0.10327250773E+02 -0.14150861387E+02  0.34944837888E+02  0.10566000000E+00 0. -1.
         22    1    1    0    0    0  0.83766647442E+01  0.25119614002E+02 -0.14635175006E+02  0.30254782553E+02  0.00000000000E+00 0.  1.
</event>
<event>
 5    1  0.6978980E-004  0.9118800E+02  0.7818608E-02  0.1130116E+00
         25   -1    0    0    0    0  0.00000000000E+00  0.00000000000E+00  0.99999998245E-14  0.12500000000E+03  0.12500000000E+03 0.  0.
        -13    1    3    3    0    0  0.29231717123E+02  0.17509704566E+02 -0.30225915909E+02  0.45548877006E+02  0.10566000000E+00 0. -1.
         23    2    1    0    0    0  0.75337815945E+01 -0.24801322843E+02 -0.11164319469E+02  0.96777570816E+02  0.92571014383E+02 0.  0.
         13    1    3    3    0    0 -0.21697935529E+02 -0.42311027408E+02  0.19061596440E+02  0.51228693810E+02  0.10566000000E+00 0.  1.
         22    1    1    0    0    0 -0.75337815945E+01  0.24801322843E+02  0.11164319469E+02  0.28222429184E+02  0.00000000000E+00 0.  1.
</event>
<event>
 5    1  0.6978980E-004  0.9118800E+02  0.7818608E-02  0.1130116E+00
         25   -1    0    0    0    0  0.00000000000E+00  0.00000000000E+00  0.99999998245E-14  0.12500000000E+03  0.12500000000E+03 0.  0.
        -13    1    3    3    0    0  0.10754923360E+02  0.41376474975E+02  0.18281812492E+02  0.46496418032E+02  0.10566000000E+00 0.  1.
         23    2    1    0    0    0 -0.16124956339E+02  0.16986491448E+02 -0.16169444737E+02  0.96539394740E+02  0.92248841104E+02 0.  0.
         13    1    3    3    0    0 -0.26879879699E+02 -0.24389983527E+02 -0.34451257230E+02  0.50042976708E+02  0.10566000000E+00 0. -1.
         22    1    1    0    0    0  0.16124956339E+02 -0.16986491448E+02  0.16169444737E+02  0.28460605260E+02  0.00000000000E+00 0. -1.
</event>
<event>
 5    1  0.6978980E-004  0.9118800E+02  0.7818608E-02  0.1130116E+00
         25   -1    0    0    0    0  0.00000000000E+00  0.00000000000E+00  0.99999998245E-14  0.12500000000E+03  0.12500000000E+03 0.  0.
        -13    1    3    3    0    0 -0.12446873787E+02 -0.10848330486E+02  0.57434804751E+02  0.59761014903E+02  0.10566000000E+00 0.  1.
         23    2    1    0    0    0 -0.16176952606E+02 -0.11182147162E+02  0.21609142010E+02  0.95782039270E+02  0.91216828587E+02 0.  0.
         13    1    3    3    0    0 -0.37300788194E+01 -0.33381667577E+00 -0.35825662741E+02  0.36021024367E+02  0.10566000000E+00 0. -1.
         22    1    1    0    0    0  0.16176952606E+02  0.11182147162E+02 -0.21609142010E+02  0.29217960730E+02  0.00000000000E+00 0.  1.
</event>
<event>
 5    1  0.6978980E-004  0.9118800E+02  0.7818608E-02  0.1130116E+00
         25   -1    0    0    0    0  0.00000000000E+00  0.00000000000E+00  0.99999998245E-14  0.12500000000E+03  0.12500000000E+03 0.  0.
        -13    1    3    3    0    0 -0.27859693904E+02  0.24650213188E+02 -0.35410331440E+01  0.37367708445E+02  0.10566000000E+00 0.  1.
         23    2    1    0    0    0 -0.13950690657E+02 -0.26399761654E+02  0.12460235389E+02  0.92645299397E+02  0.86812008669E+02 0.  0.
         13    1    3    3    0    0  0.13909003247E+02 -0.51049974842E+02  0.16001268533E+02  0.55277590951E+02  0.10566000000E+00 0. -1.
         22    1    1    0    0    0  0.13950690657E+02  0.26399761654E+02 -0.12460235389E+02  0.32354700603E+02  0.00000000000E+00 0. -1.
</event>
<event>
 5    1  0.6978980E-004  0.9118800E+02  0.7818608E-02  0.1130116E+00
         25   -1    0    0    0    0  0.00000000000E+00  0.00000000000E+00  0.99999998245E-14  0.12500000000E+03  0.12500000000E+03 0.  0.
        -13    1    3    3    0    0 -0.10667975544E+02 -0.42574334403E+02  0.27985467601E+02  0.52053599424E+02  0.10566000000E+00 0. -1.
         23    2    1    0    0    0 -0.22295544218E+02 -0.77861469780E+00  0.17395189797E+02  0.96710599849E+02  0.92480538289E+02 0.  0.
         13    1    3    3    0    0 -0.11627568674E+02  0.41795719706E+02 -0.10590277804E+02  0.44657000425E+02  0.10566000000E+00 0.  1.
         22    1    1    0    0    0  0.22295544218E+02  0.77861469780E+00 -0.17395189797E+02  0.28289400151E+02  0.00000000000E+00 0.  1.
</event>
<event>
 5    1  0.6978980E-004  0.9118800E+02  0.7818608E-02  0.1130116E+00
         25   -1    0    0    0    0  0.00000000000E+00  0.00000000000E+00  0.99999998245E-14  0.12500000000E+03  0.12500000000E+03 0.  0.
        -13    1    3    3    0    0  0.34168118701E+02 -0.39753308857E+01  0.23781685543E+02  0.41819174101E+02  0.10566000000E+00 0. -1.
         23    2    1    0    0    0 -0.32924650897E+01  0.27596112566E+02 -0.19194571378E+01  0.97141965776E+02  0.93061761449E+02 0.  0.
         13    1    3    3    0    0 -0.37460583790E+02  0.31571443452E+02 -0.25701142681E+02  0.55322791675E+02  0.10566000000E+00 0.  1.
         22    1    1    0    0    0  0.32924650897E+01 -0.27596112566E+02  0.19194571378E+01  0.27858034224E+02  0.00000000000E+00 0.  1.
</event>
<event>
 5    1  0.6978980E-004  0.9118800E+02  0.7818608E-02  0.1130116E+00
         25   -1    0    0    0    0  0.00000000000E+00  0.00000000000E+00  0.99999998245E-14  0.12500000000E+03  0.12500000000E+03 0.  0.
        -13    1    3    3    0    0  0.58425268747E+02  0.64800844001E+01 -0.69621112209E+01  0.59194473380E+02  0.10566000000E+00 0.  1.
         23    2    1    0    0    0  0.29408583967E+02  0.16182382870E+02  0.28166964102E+01  0.91315165060E+02  0.84875151045E+02 0.  0.
         13    1    3    3    0    0 -0.29016684781E+02  0.97022984700E+01  0.97788076311E+01  0.32120691680E+02  0.10566000000E+00 0. -1.
         22    1    1    0    0    0 -0.29408583967E+02 -0.16182382870E+02 -0.28166964102E+01  0.33684834940E+02  0.00000000000E+00 0.  1.
</event>
<event>
 5    1  0.6978980E-004  0.9118800E+02  0.7818608E-02  0.1130116E+00
         25   -1    0    0    0    0  0.00000000000E+00  0.00000000000E+00  0.99999998245E-14  0.12500000000E+03  0.12500000000E+03 0.  0.
        -13    1    3    3    0    0 -0.30822224878E+01  0.45322303228E+02 -0.18416213485E+02  0.49018153254E+02  0.10566000000E+00 0.  1.
         23    2    1    0    0    0  0.26202289984E+02  0.11054516603E+02 -0.44031318817E+01  0.96222406145E+02  0.91818307195E+02 0.  0.
         13    1    3    3    0    0  0.29284512472E+02 -0.34267786625E+02  0.14013081603E+02  0.47204252890E+02  0.10566000000E+00 0. -1.
         22    1    1    0    0    0 -0.26202289984E+02 -0.11054516603E+02  0.44031318817E+01  0.28777593855E+02  0.00000000000E+00 0. -1.
</event>
<event>
 5    1  0.6978980E-004  0.9118800E+02  0.7818608E-02  0.1130116E+00
         25   -1    0    0    0    0  0.00000000000E+00  0.00000000000E+00  0.99999998245E-14  0.12500000000E+03  0.12500000000E+03 0.  0.
        -13    1    3    3    0    0 -0.62626458510E+01  0.22520639584E+02 -0.21759619498E+02  0.31935750266E+02  0.10566000000E+00 0.  1.
         23    2    1    0    0    0  0.31952591121E+02 -0.15495101929E+02 -0.17104147907E+01  0.89447337907E+02  0.82078221696E+02 0.  0.
         13    1    3    3    0    0  0.38215236972E+02 -0.38015741514E+02  0.20049204707E+02  0.57511587641E+02  0.10566000000E+00 0. -1.
         22    1    1    0    0    0 -0.31952591121E+02  0.15495101929E+02  0.17104147907E+01  0.35552662093E+02  0.00000000000E+00 0. -1.
</event>
<event>
 5    1  0.6978980E-004  0.9118800E+02  0.7818608E-02  0.1130116E+00
         25   -1    0    0    0    0  0.00000000000E+00  0.00000000000E+00  0.99999998245E-14  0.12500000000E+03  0.12500000000E+03 0.  0.
        -13    1    3    3    0    0 -0.28919304233E+02  0.46908330981E+02 -0.28532428088E+02  0.62055042417E+02  0.10566000000E+00 0.  1.
         23    2    1    0    0    0 -0.13412392534E+02  0.19899719708E+02 -0.18245572620E+02  0.94853822163E+02  0.89935841246E+02 0.  0.
         13    1    3    3    0    0  0.15506911699E+02 -0.27008611273E+02  0.10286855468E+02  0.32798779745E+02  0.10566000000E+00 0. -1.
         22    1    1    0    0    0  0.13412392534E+02 -0.19899719708E+02  0.18245572620E+02  0.30146177837E+02  0.00000000000E+00 0.  1.
</event>
<event>
 5    1  0.6978980E-004  0.9118800E+02  0.7818608E-02  0.1130116E+00
         25   -1    0    0    0    0  0.00000000000E+00  0.00000000000E+00  0.99999998245E-14  0.12500000000E+03  0.12500000000E+03 0.  0.
        -13    1    3    3    0    0  0.27761176427E+02  0.40885475902E+02 -0.23876789807E+02  0.54885492727E+02  0.10566000000E+00 0. -1.
         23    2    1    0    0    0 -0.19666804786E+01  0.12975324632E+02 -0.26167106676E+02  0.95726388108E+02  0.91140534489E+02 0.  0.
         13    1    3    3    0    0 -0.29727856905E+02 -0.27910151271E+02 -0.22903168689E+01  0.40840895381E+02  0.10566000000E+00 0.  1.
         22    1    1    0    0    0  0.19666804786E+01 -0.12975324632E+02  0.26167106676E+02  0.29273611892E+02  0.00000000000E+00 0. -1.
</event>
<event>
 5    1  0.6978980E-004  0.9118800E+02  0.7818608E-02  0.1130116E+00
         25   -1    0    0    0    0  0.00000000000E+00  0.00000000000E+00  0.99999998245E-14  0.12500000000E+03  0.12500000000E+03 0.  0.
        -13    1    3    3    0    0 -0.97212474812E+01  0.31106334319E+02  0.53098201556E+02  0.62301981187E+02  0.10566000000E+00 0.  1.
         23    2    1    0    0    0 -0.14723724020E+01  0.16041999304E+02  0.23881308096E+02  0.96193221309E+02  0.91778566819E+02 0.  0.
         13    1    3    3    0    0  0.82488750792E+01 -0.15064335016E+02 -0.29216893460E+02  0.33891240122E+02  0.10566000000E+00 0. -1.
         22    1    1    0    0    0  0.14723724020E+01 -0.16041999304E+02 -0.23881308096E+02  0.28806778691E+02  0.00000000000E+00 0.  1.
</event>
<event>
 5    1  0.6978980E-004  0.9118800E+02  0.7818608E-02  0.1130116E+00
         25   -1    0    0    0    0  0.00000000000E+00  0.00000000000E+00  0.99999998245E-14  0.12500000000E+03  0.12500000000E+03 0.  0.
        -13    1    3    3    0    0 -0.29943112093E+02 -0.37916391304E+01 -0.34450332642E+02  0.45801780231E+02  0.10566000000E+00 0.  1.
         23    2    1    0    0    0 -0.23780769447E+02 -0.13303699990E+00  0.15727327905E+02  0.96488747180E+02  0.92180186564E+02 0.  0.
         13    1    3    3    0    0  0.61623426458E+01  0.36586021305E+01  0.50177660547E+02  0.50686966949E+02  0.10566000000E+00 0. -1.
         22    1    1    0    0    0  0.23780769447E+02  0.13303699990E+00 -0.15727327905E+02  0.28511252820E+02  0.00000000000E+00 0. -1.
</event>
<event>
 5    1  0.6978980E-004  0.9118800E+02  0.7818608E-02  0.1130116E+00
         25   -1    0    0    0    0  0.00000000000E+00  0.00000000000E+00  0.99999998245E-14  0.12500000000E+03  0.12500000000E+03 0.  0.
        -13    1    3    3    0    0 -0.29893699493E+02 -0.91514373794E+01 -0.16338373039E+02  0.35275142425E+02  0.10566000000E+00 0.  1.
         23    2    1    0    0    0  0.14414647890E+02  0.26162822346E+02  0.25995878530E+01  0.95016117598E+02  0.90161130202E+02 0.  0.
         13    1    3    3    0    0  0.44308347383E+02  0.35314259726E+02  0.18937960892E+02  0.59740975173E+02  0.10566000000E+00 0. -1.
         22    1    1    0    0    0 -0.14414647890E+02 -0.26162822346E+02 -0.25995878530E+01  0.29983882402E+02  0.00000000000E+00 0. -1.
</event>
<event>
 5    1  0.6978980E-004  0.9118800E+02  0.7818608E-02  0.1130116E+00
         25   -1    0    0    0    0  0.00000000000E+00  0.00000000000E+00  0.99999998245E-14  0.12500000000E+03  0.12500000000E+03 0.  0.
        -13    1    3    3    0    0 -0.26815687967E+02  0.26903372045E+02  0.93966268657E+01  0.39130299118E+02  0.10566000000E+00 0. -1.
         23    2    1    0    0    0 -0.93221943850E+01 -0.16886548626E+02 -0.21969511925E+02  0.95764434555E+02  0.91192700578E+02 0.  0.
         13    1    3    3    0    0  0.17493493582E+02 -0.43789920671E+02 -0.31366138791E+02  0.56634135438E+02  0.10566000000E+00 0.  1.
         22    1    1    0    0    0  0.93221943850E+01  0.16886548626E+02  0.21969511925E+02  0.29235565445E+02  0.00000000000E+00 0.  1.
</event>
<event>
 5    1  0.6978980E-004  0.9118800E+02  0.7818608E-02  0.1130116E+00
         25   -1    0    0    0    0  0.00000000000E+00  0.00000000000E+00  0.99999998245E-14  0.12500000000E+03  0.12500000000E+03 0.  0.
        -13    1    3    3    0    0 -0.16208376066E+02 -0.23238287759E+02 -0.27636578464E+02  0.39579301484E+02  0.10566000000E+00 0.  1.
         23    2    1    0    0    0 -0.17226324073E+02  0.71418615560E+01  0.20988496937E+02  0.96923863670E+02  0.92768345450E+02 0.  0.
         13    1    3    3    0    0 -0.10179480071E+01  0.30380149315E+02  0.48625075401E+02  0.57344562187E+02  0.10566000000E+00 0. -1.
         22    1    1    0    0    0  0.17226324073E+02 -0.71418615560E+01 -0.20988496937E+02  0.28076136330E+02  0.00000000000E+00 0. -1.
</event>
<event>
 5    1  0.6978980E-004  0.9118800E+02  0.7818608E-02  0.1130116E+00
         25   -1    0    0    0    0  0.00000000000E+00  0.00000000000E+00  0.99999998245E-14  0.12500000000E+03  0.12500000000E+03 0.  0.
        -13    1    3    3    0    0  0.85769011810E+01  0.16355313161E+02 -0.44339075767E+02  0.48031492860E+02  0.10566000000E+00 0.  1.
         23    2    1    0    0    0 -0.54884373207E+01  0.29487740080E+02 -0.15299460855E+01  0.94966843418E+02  0.90092790247E+02 0.  0.
         13    1    3    3    0    0 -0.14065338502E+02  0.13132426919E+02  0.42809129681E+02  0.46935350558E+02  0.10566000000E+00 0. -1.
         22    1    1    0    0    0  0.54884373207E+01 -0.29487740080E+02  0.15299460855E+01  0.30033156582E+02  0.00000000000E+00 0. -1.
</event>
<event>
 5    1  0.6978980E-004  0.9118800E+02  0.7818608E-02  0.1130116E+00
         25   -1    0    0    0    0  0.00000000000E+00  0.00000000000E+00  0.99999998245E-14  0.12500000000E+03  0.12500000000E+03 0.  0.
        -13    1    3    3    0    0  0.35256664673E+02 -0.25929096102E+02  0.13708626141E+02  0.45861618192E+02  0.10566000000E+00 0.  1.
         23    2    1    0    0    0  0.14643212599E+02  0.17979067257E+02  0.19487483131E+02  0.94710851226E+02  0.89736908831E+02 0.  0.
         13    1    3    3    0    0 -0.20613452073E+02  0.43908163358E+02  0.57788569905E+01  0.48849233034E+02  0.10566000000E+00 0. -1.
         22    1    1    0    0    0 -0.14643212599E+02 -0.17979067257E+02 -0.19487483131E+02  0.30289148774E+02  0.00000000000E+00 0. -1.
</event>
<event>
 4    1  0.6978980E-004  0.9118800E+02  0.7818608E-02  0.1130116E+00
         25   -1    0    0    0    0  0.00000000000E+00  0.00000000000E+00  0.99999998245E-14  0.12500000000E+03  0.12500000000E+03 0.  0.
        -13    1    1    0    0    0  0.11820566741E+02 -0.13879218322E+02 -0.24344590685E+02  0.30414285442E+02  0.10566000000E+00 0. -1.
         13    1    1    0    0    0  0.23573088737E+02 -0.27266867343E+02  0.16877959320E+02  0.39800116107E+02  0.10566000000E+00 0.  1.
         22    1    1    0    0    0 -0.35393655479E+02  0.41146085664E+02  0.74666313647E+01  0.54785598451E+02  0.00000000000E+00 0. -1.
</event>
<event>
 5    1  0.6978980E-004  0.9118800E+02  0.7818608E-02  0.1130116E+00
         25   -1    0    0    0    0  0.00000000000E+00  0.00000000000E+00  0.99999998245E-14  0.12500000000E+03  0.12500000000E+03 0.  0.
        -13    1    3    3    0    0  0.51443298445E+02 -0.12820486555E+02 -0.27611405462E+01  0.53088726596E+02  0.10566000000E+00 0. -1.
         23    2    1    0    0    0  0.12184252859E+02 -0.21080866727E+02 -0.16604227225E+02  0.95528669500E+02  0.90868957159E+02 0.  0.
         13    1    3    3    0    0 -0.39259045586E+02 -0.82603801717E+01 -0.13843086679E+02  0.42439942905E+02  0.10566000000E+00 0.  1.
         22    1    1    0    0    0 -0.12184252859E+02  0.21080866727E+02  0.16604227225E+02  0.29471330500E+02  0.00000000000E+00 0. -1.
</event>
<event>
 5    1  0.6978980E-004  0.9118800E+02  0.7818608E-02  0.1130116E+00
         25   -1    0    0    0    0  0.00000000000E+00  0.00000000000E+00  0.99999998245E-14  0.12500000000E+03  0.12500000000E+03 0.  0.
        -13    1    3    3    0    0 -0.11441251889E+02  0.34008222626E+02 -0.13296670516E+02  0.38265834132E+02  0.10566000000E+00 0.  1.
         23    2    1    0    0    0  0.27453973509E+02 -0.20831771208E+01  0.93015671884E+01  0.95938351036E+02  0.91430781244E+02 0.  0.
         13    1    3    3    0    0  0.38895225399E+02 -0.36091399747E+02  0.22598237705E+02  0.57672516903E+02  0.10566000000E+00 0. -1.
         22    1    1    0    0    0 -0.27453973509E+02  0.20831771208E+01 -0.93015671884E+01  0.29061648964E+02  0.00000000000E+00 0. -1.
</event>
<event>
 5    1  0.6978980E-004  0.9118800E+02  0.7818608E-02  0.1130116E+00
         25   -1    0    0    0    0  0.00000000000E+00  0.00000000000E+00  0.99999998245E-14  0.12500000000E+03  0.12500000000E+03 0.  0.
        -13    1    3    3    0    0  0.14925336415E+02  0.10796242811E+02 -0.33879957629E+02  0.38564066421E+02  0.10566000000E+00 0.  1.
         23    2    1    0    0    0 -0.25274711067E+02 -0.15880648942E+02 -0.51718884651E+01  0.94705537459E+02  0.89729506657E+02 0.  0.
         13    1    3    3    0    0 -0.40200047482E+02 -0.26676891753E+02  0.28708069164E+02  0.56141471038E+02  0.10566000000E+00 0. -1.
         22    1    1    0    0    0  0.25274711067E+02  0.15880648942E+02  0.51718884651E+01  0.30294462541E+02  0.00000000000E+00 0. -1.
</event>
<event>
 5    1  0.6978980E-004  0.9118800E+02  0.7818608E-02  0.1130116E+00
         25   -1    0    0    0    0  0.00000000000E+00  0.00000000000E+00  0.99999998245E-14  0.12500000000E+03  0.12500000000E+03 0.  0.
        -13    1    3    3    0    0 -0.23861484874E+01 -0.36016336570E+02  0.13018278935E+02  0.38371303795E+02  0.10566000000E+00 0. -1.
         23    2    1    0    0    0  0.26945013408E+02  0.82008351524E+01  0.17854299133E+02  0.91652384759E+02  0.85370347250E+02 0.  0.
         13    1    3    3    0    0  0.29331161895E+02  0.44217171722E+02  0.48360201986E+01  0.53281080963E+02  0.10566000000E+00 0.  1.
         22    1    1    0    0    0 -0.26945013408E+02 -0.82008351524E+01 -0.17854299133E+02  0.33347615241E+02  0.00000000000E+00 0.  1.
</event>
<event>
 5    1  0.6978980E-004  0.9118800E+02  0.7818608E-02  0.1130116E+00
         25   -1    0    0    0    0  0.00000000000E+00  0.00000000000E+00  0.99999998245E-14  0.12500000000E+03  0.12500000000E+03 0.  0.
        -13    1    3    3    0    0 -0.14080797748E+02  0.38749358610E+02 -0.44876346457E+02  0.60939964664E+02  0.10566000000E+00 0.  1.
         23    2    1    0    0    0 -0.16111527752E+02  0.18702068779E+02 -0.18400442180E+02  0.94211609728E+02  0.89038769263E+02 0.  0.
         13    1    3    3    0    0 -0.20307300040E+01 -0.20047289831E+02  0.26475904277E+02  0.33271645063E+02  0.10566000000E+00 0. -1.
         22    1    1    0    0    0  0.16111527752E+02 -0.18702068779E+02  0.18400442180E+02  0.30788390272E+02  0.00000000000E+00 0.  1.
</event>
<event>
 5    1  0.6978980E-004  0.9118800E+02  0.7818608E-02  0.1130116E+00
         25   -1    0    0    0    0  0.00000000000E+00  0.00000000000E+00  0.99999998245E-14  0.12500000000E+03  0.12500000000E+03 0.  0.
        -13    1    3    3    0    0 -0.44579491432E+02  0.18368424546E+02  0.15926850636E+02  0.50778005198E+02  0.10566000000E+00 0.  1.
         23    2    1    0    0    0 -0.25439012645E+02 -0.72913833570E+01 -0.14398149347E+02  0.94873361618E+02  0.89962994639E+02 0.  0.
         13    1    3    3    0    0  0.19140478787E+02 -0.25659807903E+02 -0.30324999983E+02  0.44095356420E+02  0.10566000000E+00 0. -1.
         22    1    1    0    0    0  0.25439012645E+02  0.72913833570E+01  0.14398149347E+02  0.30126638382E+02  0.00000000000E+00 0.  1.
</event>
<event>
 5    1  0.6978980E-004  0.9118800E+02  0.7818608E-02  0.1130116E+00
         25   -1    0    0    0    0  0.00000000000E+00  0.00000000000E+00  0.99999998245E-14  0.12500000000E+03  0.12500000000E+03 0.  0.
        -13    1    3    3    0    0  0.39240756239E+02  0.61130703967E+01  0.15274123406E+02  0.42550165567E+02  0.10566000000E+00 0. -1.
         23    2    1    0    0    0 -0.13582263343E+02  0.21039225235E+02  0.11123081914E+02  0.97598360865E+02  0.93672782687E+02 0.  0.
         13    1    3    3    0    0 -0.52823019582E+02  0.14926154839E+02 -0.41510414924E+01  0.55048195298E+02  0.10566000000E+00 0.  1.
         22    1    1    0    0    0  0.13582263343E+02 -0.21039225235E+02 -0.11123081914E+02  0.27401639135E+02  0.00000000000E+00 0.  1.
</event>
<event>
 5    1  0.6978980E-004  0.9118800E+02  0.7818608E-02  0.1130116E+00
         25   -1    0    0    0    0  0.00000000000E+00  0.00000000000E+00  0.99999998245E-14  0.12500000000E+03  0.12500000000E+03 0.  0.
        -13    1    3    3    0    0  0.57360180351E+01 -0.36193152579E+02 -0.81442673551E+01  0.37539132266E+02  0.10566000000E+00 0.  1.
         23    2    1    0    0    0  0.19310403175E+02  0.19885767930E+02 -0.10683623069E+02  0.95293515206E+02  0.90544899368E+02 0.  0.
         13    1    3    3    0    0  0.13574385140E+02  0.56078920508E+02 -0.25393557140E+01  0.57754382940E+02  0.10566000000E+00 0. -1.
         22    1    1    0    0    0 -0.19310403175E+02 -0.19885767930E+02  0.10683623069E+02  0.29706484794E+02  0.00000000000E+00 0. -1.
</event>
<event>
 5    1  0.6978980E-004  0.9118800E+02  0.7818608E-02  0.1130116E+00
         25   -1    0    0    0    0  0.00000000000E+00  0.00000000000E+00  0.99999998245E-14  0.12500000000E+03  0.12500000000E+03 0.  0.
        -13    1    3    3    0    0 -0.39030925469E+02  0.29279483606E+01 -0.12232782486E+01  0.39159846760E+02  0.10566000000E+00 0. -1.
         23    2    1    0    0    0  0.21864269851E+01  0.31872342836E+02  0.11394425766E+02  0.91081573749E+02  0.84530429061E+02 0.  0.
         13    1    3    3    0    0  0.41217352454E+02  0.28944394475E+02  0.12617704014E+02  0.51921726989E+02  0.10566000000E+00 0.  1.
         22    1    1    0    0    0 -0.21864269851E+01 -0.31872342836E+02 -0.11394425766E+02  0.33918426251E+02  0.00000000000E+00 0.  1.
</event>
<event>
 5    1  0.6978980E-004  0.9118800E+02  0.7818608E-02  0.1130116E+00
         25   -1    0    0    0    0  0.00000000000E+00  0.00000000000E+00  0.99999998245E-14  0.12500000000E+03  0.12500000000E+03 0.  0.
        -13    1    3    3    0    0  0.12941001680E+02  0.48362145443E+01  0.29427137315E+02  0.32508861410E+02  0.10566000000E+00 0.  1.
         23    2    1    0    0    0 -0.13346598622E+02  0.49796139749E+01 -0.26839900649E+02  0.94614007882E+02  0.89601908298E+02 0.  0.
         13    1    3    3    0    0 -0.26287600302E+02  0.14339943057E+00 -0.56267037964E+02  0.62105146472E+02  0.10566000000E+00 0. -1.
         22    1    1    0    0    0  0.13346598622E+02 -0.49796139749E+01  0.26839900649E+02  0.30385992118E+02  0.00000000000E+00 0. -1.
</event>
<event>
 5    1  0.6978980E-004  0.9118800E+02  0.7818608E-02  0.1130116E+00
         25   -1    0    0    0    0  0.00000000000E+00  0.00000000000E+00  0.99999998245E-14  0.12500000000E+03  0.12500000000E+03 0.  0.
        -13    1    3    3    0    0  0.23559445526E+02  0.34895745964E+02 -0.16775742910E+02  0.45323253127E+02  0.10566000000E+00 0. -1.
         23    2    1    0    0    0  0.23413501505E+02 -0.16612138826E+01  0.17722642560E+02  0.95588374006E+02  0.90951050030E+02 0.  0.
         13    1    3    3    0    0 -0.14594402082E+00 -0.36556959846E+02  0.34498385470E+02  0.50265120879E+02  0.10566000000E+00 0.  1.
         22    1    1    0    0    0 -0.23413501505E+02  0.16612138826E+01 -0.17722642560E+02  0.29411625994E+02  0.00000000000E+00 0.  1.
</event>
<event>
 5    1  0.6978980E-004  0.9118800E+02  0.7818608E-02  0.1130116E+00
         25   -1    0    0    0    0  0.00000000000E+00  0.00000000000E+00  0.99999998245E-14  0.12500000000E+03  0.12500000000E+03 0.  0.
        -13    1    3    3    0    0 -0.82544191008E+01 -0.75071918826E+01 -0.32781486125E+02  0.34628461722E+02  0.10566000000E+00 0. -1.
         23    2    1    0    0    0 -0.12260854939E+02  0.71562527929E+01  0.26017861627E+02  0.95361011463E+02  0.90638032115E+02 0.  0.
         13    1    3    3    0    0 -0.40064358382E+01  0.14663444676E+02  0.58799347752E+02  0.60732549740E+02  0.10566000000E+00 0.  1.
         22    1    1    0    0    0  0.12260854939E+02 -0.71562527929E+01 -0.26017861627E+02  0.29638988537E+02  0.00000000000E+00 0.  1.
</event>
<event>
 5    1  0.6978980E-004  0.9118800E+02  0.7818608E-02  0.1130116E+00
         25   -1    0    0    0    0  0.00000000000E+00  0.00000000000E+00  0.99999998245E-14  0.12500000000E+03  0.12500000000E+03 0.  0.
        -13    1    3    3    0    0 -0.33274674019E+02 -0.25725651778E+02 -0.11563446555E+02  0.43620379993E+02  0.10566000000E+00 0.  1.
         23    2    1    0    0    0  0.17649666629E+02 -0.23588398858E+02 -0.64158601797E+01  0.94848937752E+02  0.89929052247E+02 0.  0.
         13    1    3    3    0    0  0.50924340649E+02  0.21372529193E+01  0.51475863753E+01  0.51228557759E+02  0.10566000000E+00 0. -1.
         22    1    1    0    0    0 -0.17649666629E+02  0.23588398858E+02  0.64158601797E+01  0.30151062248E+02  0.00000000000E+00 0. -1.
</event>
<event>
 5    1  0.6978980E-004  0.9118800E+02  0.7818608E-02  0.1130116E+00
         25   -1    0    0    0    0  0.00000000000E+00  0.00000000000E+00  0.99999998245E-14  0.12500000000E+03  0.12500000000E+03 0.  0.
        -13    1    3    3    0    0  0.37442460136E+02 -0.89428131878E+01  0.20860391331E+01  0.38552230183E+02  0.10566000000E+00 0.  1.
         23    2    1    0    0    0 -0.79402552210E+01  0.23514550783E+02  0.15238174529E+02  0.95876406223E+02  0.91346053860E+02 0.  0.
         13    1    3    3    0    0 -0.45382715357E+02  0.32457363971E+02  0.13152135396E+02  0.57324176040E+02  0.10566000000E+00 0. -1.
         22    1    1    0    0    0  0.79402552210E+01 -0.23514550783E+02 -0.15238174529E+02  0.29123593777E+02  0.00000000000E+00 0. -1.
</event>
<event>
 5    1  0.6978980E-004  0.9118800E+02  0.7818608E-02  0.1130116E+00
         25   -1    0    0    0    0  0.00000000000E+00  0.00000000000E+00  0.99999998245E-14  0.12500000000E+03  0.12500000000E+03 0.  0.
        -13    1    3    3    0    0 -0.31302729897E+02  0.10390601687E+02 -0.49228369128E+02  0.59255961671E+02  0.10566000000E+00 0. -1.
         23    2    1    0    0    0 -0.34461312196E+00  0.67348116392E+01 -0.26021023337E+02  0.98119335918E+02  0.94365427882E+02 0.  0.
         13    1    3    3    0    0  0.30958116775E+02 -0.36557900479E+01  0.23207345792E+02  0.38863374247E+02  0.10566000000E+00 0.  1.
         22    1    1    0    0    0  0.34461312196E+00 -0.67348116392E+01  0.26021023337E+02  0.26880664082E+02  0.00000000000E+00 0. -1.
</event>
<event>
 5    1  0.6978980E-004  0.9118800E+02  0.7818608E-02  0.1130116E+00
         25   -1    0    0    0    0  0.00000000000E+00  0.00000000000E+00  0.99999998245E-14  0.12500000000E+03  0.12500000000E+03 0.  0.
        -13    1    3    3    0    0 -0.71239247424E+01 -0.29024788891E+02  0.41040880636E+01  0.30166925213E+02  0.10566000000E+00 0.  1.
         23    2    1    0    0    0 -0.98800021920E+01  0.28701555967E+02 -0.15140489010E+02  0.91079089551E+02  0.84526755455E+02 0.  0.
         13    1    3    3    0    0 -0.27560774496E+01  0.57726344858E+02 -0.19244577074E+02  0.60912164338E+02  0.10566000000E+00 0. -1.
         22    1    1    0    0    0  0.98800021920E+01 -0.28701555967E+02  0.15140489010E+02  0.33920910449E+02  0.00000000000E+00 0. -1.
</event>
<event>
 5    1  0.6978980E-004  0.9118800E+02  0.7818608E-02  0.1130116E+00
         25   -1    0    0    0    0  0.00000000000E+00  0.00000000000E+00  0.99999998245E-14  0.12500000000E+03  0.12500000000E+03 0.  0.
        -13    1    3    3    0    0  0.65974097188E+01 -0.43089631229E+02 -0.27700042693E+02  0.51648288100E+02  0.10566000000E+00 0. -1.
         23    2    1    0    0    0  0.12129892417E+02  0.68970219839E+00 -0.26562747008E+02  0.95790592136E+02  0.91228548350E+02 0.  0.
         13    1    3    3    0    0  0.55324826977E+01  0.43779333427E+02  0.11372956850E+01  0.44142304037E+02  0.10566000000E+00 0.  1.
         22    1    1    0    0    0 -0.12129892417E+02 -0.68970219839E+00  0.26562747008E+02  0.29209407864E+02  0.00000000000E+00 0.  1.
</event>
<event>
 5    1  0.6978980E-004  0.9118800E+02  0.7818608E-02  0.1130116E+00
         25   -1    0    0    0    0  0.00000000000E+00  0.00000000000E+00  0.99999998245E-14  0.12500000000E+03  0.12500000000E+03 0.  0.
        -13    1    3    3    0    0  0.24914938618E+02  0.48278164470E+02  0.41075149934E+01  0.54483191669E+02  0.10566000000E+00 0. -1.
         23    2    1    0    0    0  0.27782049517E+02  0.87371505426E+01 -0.57015290310E+01  0.95323620364E+02  0.90586450924E+02 0.  0.
         13    1    3    3    0    0  0.28671108998E+01 -0.39541013928E+02 -0.98090440244E+01  0.40840428696E+02  0.10566000000E+00 0.  1.
         22    1    1    0    0    0 -0.27782049517E+02 -0.87371505426E+01  0.57015290310E+01  0.29676379636E+02  0.00000000000E+00 0. -1.
</event>
<event>
 5    1  0.6978980E-004  0.9118800E+02  0.7818608E-02  0.1130116E+00
         25   -1    0    0    0    0  0.00000000000E+00  0.00000000000E+00  0.99999998245E-14  0.12500000000E+03  0.12500000000E+03 0.  0.
        -13    1    3    3    0    0 -0.12508326855E+02  0.13239944130E+02 -0.41661484963E+02  0.45469163777E+02  0.10566000000E+00 0. -1.
         23    2    1    0    0    0 -0.32237068127E+02 -0.89877622048E+01 -0.75864232607E+01  0.90684373112E+02  0.83941010703E+02 0.  0.
         13    1    3    3    0    0 -0.19728741272E+02 -0.22227706335E+02  0.34075061702E+02  0.45215209334E+02  0.10566000000E+00 0.  1.
         22    1    1    0    0    0  0.32237068127E+02  0.89877622048E+01  0.75864232607E+01  0.34315626888E+02  0.00000000000E+00 0.  1.
</event>
<event>
 5    1  0.6978980E-004  0.9118800E+02  0.7818608E-02  0.1130116E+00
         25   -1    0    0    0    0  0.00000000000E+00  0.00000000000E+00  0.99999998245E-14  0.12500000000E+03  0.12500000000E+03 0.  0.
        -13    1    3    3    0    0 -0.34841939403E+02 -0.11094695595E+02 -0.23215802282E+02  0.43313250298E+02  0.10566000000E+00 0.  1.
         23    2    1    0    0    0 -0.17769886599E+02  0.10356921687E+02  0.21170202529E+02  0.95483696511E+02  0.90807070912E+02 0.  0.
         13    1    3    3    0    0  0.17072052804E+02  0.21451617282E+02  0.44386004811E+02  0.52170446213E+02  0.10566000000E+00 0. -1.
         22    1    1    0    0    0  0.17769886599E+02 -0.10356921687E+02 -0.21170202529E+02  0.29516303489E+02  0.00000000000E+00 0. -1.
</event>
<event>
 5    1  0.6978980E-004  0.9118800E+02  0.7818608E-02  0.1130116E+00
         25   -1    0    0    0    0  0.00000000000E+00  0.00000000000E+00  0.99999998245E-14  0.12500000000E+03  0.12500000000E+03 0.  0.
        -13    1    3    3    0    0  0.86113858150E+01 -0.31745935416E+02 -0.17945410751E+02  0.37470112252E+02  0.10566000000E+00 0.  1.
         23    2    1    0    0    0 -0.29764798876E+02  0.13544041346E+01  0.76385851786E+01  0.94240844514E+02  0.89079802023E+02 0.  0.
         13    1    3    3    0    0 -0.38376184691E+02  0.33100339551E+02  0.25583995930E+02  0.56770732262E+02  0.10566000000E+00 0. -1.
         22    1    1    0    0    0  0.29764798876E+02 -0.13544041346E+01 -0.76385851786E+01  0.30759155486E+02  0.00000000000E+00 0.  1.
</event>
<event>
 5    1  0.6978980E-004  0.9118800E+02  0.7818608E-02  0.1130116E+00
         25   -1    0    0    0    0  0.00000000000E+00  0.00000000000E+00  0.99999998245E-14  0.12500000000E+03  0.12500000000E+03 0.  0.
        -13    1    3    3    0    0  0.15212843337E+02  0.28571187549E+02 -0.13349242908E+01  0.32396551472E+02  0.10566000000E+00 0. -1.
         23    2    1    0    0    0 -0.31571310572E+01 -0.28586935897E+02  0.11898221373E+02  0.93875282293E+02  0.88565346345E+02 0.  0.
         13    1    3    3    0    0 -0.18369974395E+02 -0.57158123446E+02  0.13233145664E+02  0.61478730821E+02  0.10566000000E+00 0.  1.
         22    1    1    0    0    0  0.31571310572E+01  0.28586935897E+02 -0.11898221373E+02  0.31124717707E+02  0.00000000000E+00 0.  1.
</event>
<event>
 5    1  0.6978980E-004  0.9118800E+02  0.7818608E-02  0.1130116E+00
         25   -1    0    0    0    0  0.00000000000E+00  0.00000000000E+00  0.99999998245E-14  0.12500000000E+03  0.12500000000E+03 0.  0.
        -13    1    3    3    0    0 -0.27731704554E+02  0.83981281289E+01  0.53795232700E+01  0.29470772440E+02  0.10566000000E+00 0. -1.
         23    2    1    0    0    0  0.22598618820E+02 -0.19844059517E+02 -0.15899128011E+02  0.90981379479E+02  0.84382135963E+02 0.  0.
         13    1    3    3    0    0  0.50330323374E+02 -0.28242187646E+02 -0.21278651281E+02  0.61510607039E+02  0.10566000000E+00 0.  1.
         22    1    1    0    0    0 -0.22598618820E+02  0.19844059517E+02  0.15899128011E+02  0.34018620521E+02  0.00000000000E+00 0.  1.
</event>
<event>
 5    1  0.6978980E-004  0.9118800E+02  0.7818608E-02  0.1130116E+00
         25   -1    0    0    0    0  0.00000000000E+00  0.00000000000E+00  0.99999998245E-14  0.12500000000E+03  0.12500000000E+03 0.  0.
        -13    1    3    3    0    0 -0.95472868495E+01 -0.22614361489E+02 -0.51404698856E+02  0.56965026641E+02  0.10566000000E+00 0. -1.
         23    2    1    0    0    0  0.86662541059E+01  0.24779903233E+01 -0.27335620146E+02  0.96216662372E+02  0.91810487380E+02 0.  0.
         13    1    3    3    0    0  0.18213540955E+02  0.25092351812E+02  0.24069078710E+02  0.39251635731E+02  0.10566000000E+00 0.  1.
         22    1    1    0    0    0 -0.86662541059E+01 -0.24779903233E+01  0.27335620146E+02  0.28783337628E+02  0.00000000000E+00 0. -1.
</event>
<event>
 5    1  0.6978980E-004  0.9118800E+02  0.7818608E-02  0.1130116E+00
         25   -1    0    0    0    0  0.00000000000E+00  0.00000000000E+00  0.99999998245E-14  0.12500000000E+03  0.12500000000E+03 0.  0.
        -13    1    3    3    0    0 -0.11815757187E+02  0.58359286535E+02 -0.60693438371E+01  0.59852038741E+02  0.10566000000E+00 0.  1.
         23    2    1    0    0    0 -0.67793219446E+01  0.25486737802E+02 -0.15486904485E+02  0.94416062707E+02  0.89325336142E+02 0.  0.
         13    1    3    3    0    0  0.50364352423E+01 -0.32872548733E+02 -0.94175606478E+01  0.34564023967E+02  0.10566000000E+00 0. -1.
         22    1    1    0    0    0  0.67793219446E+01 -0.25486737802E+02  0.15486904485E+02  0.30583937293E+02  0.00000000000E+00 0.  1.
</event>
<event>
 5    1  0.6978980E-004  0.9118800E+02  0.7818608E-02  0.1130116E+00
         25   -1    0    0    0    0  0.00000000000E+00  0.00000000000E+00  0.99999998245E-14  0.12500000000E+03  0.12500000000E+03 0.  0.
        -13    1    3    3    0    0  0.89004604906E+01 -0.15567981302E+02 -0.32426645644E+02  0.37055077257E+02  0.10566000000E+00 0.  1.
         23    2    1    0    0    0 -0.21677880993E+02 -0.19167872768E+01  0.17432635073E+02  0.97116288565E+02  0.93027265580E+02 0.  0.
         13    1    3    3    0    0 -0.30578341483E+02  0.13651194025E+02  0.49859280717E+02  0.60061211308E+02  0.10566000000E+00 0. -1.
         22    1    1    0    0    0  0.21677880993E+02  0.19167872768E+01 -0.17432635073E+02  0.27883711435E+02  0.00000000000E+00 0. -1.
</event>
<event>
 5    1  0.6978980E-004  0.9118800E+02  0.7818608E-02  0.1130116E+00
         25   -1    0    0    0    0  0.00000000000E+00  0.00000000000E+00  0.99999998245E-14  0.12500000000E+03  0.12500000000E+03 0.  0.
        -13    1    3    3    0    0  0.49904902159E+02 -0.10630924339E+02 -0.16731920932E+02  0.53698083335E+02  0.10566000000E+00 0.  1.
         23    2    1    0    0    0  0.14951349584E+02 -0.24295223280E+02  0.33736672259E+01  0.96274012478E+02  0.91888536387E+02 0.  0.
         13    1    3    3    0    0 -0.34953552575E+02 -0.13664298940E+02  0.20105588158E+02  0.42575929143E+02  0.10566000000E+00 0. -1.
         22    1    1    0    0    0 -0.14951349584E+02  0.24295223280E+02 -0.33736672259E+01  0.28725987522E+02  0.00000000000E+00 0.  1.
</event>
<event>
 5    1  0.6978980E-004  0.9118800E+02  0.7818608E-02  0.1130116E+00
         25   -1    0    0    0    0  0.00000000000E+00  0.00000000000E+00  0.99999998245E-14  0.12500000000E+03  0.12500000000E+03 0.  0.
        -13    1    3    3    0    0  0.65376982879E+01  0.13899374245E+02 -0.35231350264E+02  0.38434272580E+02  0.10566000000E+00 0. -1.
         23    2    1    0    0    0  0.24351257678E+02  0.38610844858E+01  0.17350218657E+02  0.94851669841E+02  0.89932849728E+02 0.  0.
         13    1    3    3    0    0  0.17813559390E+02 -0.10038289759E+02  0.52581568921E+02  0.56417397261E+02  0.10566000000E+00 0.  1.
         22    1    1    0    0    0 -0.24351257678E+02 -0.38610844858E+01 -0.17350218657E+02  0.30148330159E+02  0.00000000000E+00 0.  1.
</event>
<event>
 4    1  0.6978980E-004  0.9118800E+02  0.7818608E-02  0.1130116E+00
         25   -1    0    0    0    0  0.00000000000E+00  0.00000000000E+00  0.99999998245E-14  0.12500000000E+03  0.12500000000E+03 0.  0.
        -13    1    1    0    0    0  0.10968231892E+02  0.14532466844E+02 -0.84418419229E-01  0.18207498288E+02  0.10566000000E+00 0.  1.
         13    1    1    0    0    0 -0.37878389224E+02  0.26047151959E+02 -0.24668322559E+02  0.52170526136E+02  0.10566000000E+00 0. -1.
         22    1    1    0    0    0  0.26910157332E+02 -0.40579618803E+02  0.24752740978E+02  0.54621975576E+02  0.00000000000E+00 0. -1.
</event>
<event>
 5    1  0.6978980E-004  0.9118800E+02  0.7818608E-02  0.1130116E+00
         25   -1    0    0    0    0  0.00000000000E+00  0.00000000000E+00  0.99999998245E-14  0.12500000000E+03  0.12500000000E+03 0.  0.
        -13    1    3    3    0    0  0.16998500335E+02  0.45964977628E+01 -0.29476143944E+02  0.34335565106E+02  0.10566000000E+00 0. -1.
         23    2    1    0    0    0 -0.47597370004E+01 -0.32503708091E+02  0.77834086468E+01  0.91240148310E+02  0.84764598020E+02 0.  0.
         13    1    3    3    0    0 -0.21758237335E+02 -0.37100205854E+02  0.37259552591E+02  0.56904583204E+02  0.10566000000E+00 0.  1.
         22    1    1    0    0    0  0.47597370004E+01  0.32503708091E+02 -0.77834086468E+01  0.33759851690E+02  0.00000000000E+00 0.  1.
</event>
<event>
 5    1  0.6978980E-004  0.9118800E+02  0.7818608E-02  0.1130116E+00
         25   -1    0    0    0    0  0.00000000000E+00  0.00000000000E+00  0.99999998245E-14  0.12500000000E+03  0.12500000000E+03 0.  0.
        -13    1    3    3    0    0 -0.93526708189E+01 -0.17692161058E+02  0.36757403749E+02  0.41852155366E+02  0.10566000000E+00 0.  1.
         23    2    1    0    0    0  0.10649127739E+02  0.25123991861E+02  0.12210234916E+02  0.95105038462E+02  0.90284326522E+02 0.  0.
         13    1    3    3    0    0  0.20001798558E+02  0.42816152919E+02 -0.24547168833E+02  0.53252883097E+02  0.10566000000E+00 0. -1.
         22    1    1    0    0    0 -0.10649127739E+02 -0.25123991861E+02 -0.12210234916E+02  0.29894961538E+02  0.00000000000E+00 0. -1.
</event>
<event>
 5    1  0.6978980E-004  0.9118800E+02  0.7818608E-02  0.1130116E+00
         25   -1    0    0    0    0  0.00000000000E+00  0.00000000000E+00  0.99999998245E-14  0.12500000000E+03  0.12500000000E+03 0.  0.
        -13    1    3    3    0    0 -0.21981818284E+02 -0.14198912313E+02 -0.23918087797E+02  0.35452722516E+02  0.10566000000E+00 0.  1.
         23    2    1    0    0    0  0.24708626228E+02  0.11610267843E+02 -0.23769332505E+02  0.88801993188E+02  0.81089446274E+02 0.  0.
         13    1    3    3    0    0  0.46690444512E+02  0.25809180155E+02  0.14875529228E+00  0.53349270671E+02  0.10566000000E+00 0. -1.
         22    1    1    0    0    0 -0.24708626228E+02 -0.11610267843E+02  0.23769332505E+02  0.36198006812E+02  0.00000000000E+00 0. -1.
</event>
<event>
 5    1  0.6978980E-004  0.9118800E+02  0.7818608E-02  0.1130116E+00
         25   -1    0    0    0    0  0.00000000000E+00  0.00000000000E+00  0.99999998245E-14  0.12500000000E+03  0.12500000000E+03 0.  0.
        -13    1    3    3    0    0  0.50123427594E+02 -0.19674244270E+02 -0.45828295641E+01  0.54041163683E+02  0.10566000000E+00 0.  1.
         23    2    1    0    0    0  0.14672664577E+02 -0.12697764265E+02 -0.23255920648E+02  0.94712079168E+02  0.89738619290E+02 0.  0.
         13    1    3    3    0    0 -0.35450763017E+02  0.69764800050E+01 -0.18673091084E+02  0.40670915485E+02  0.10566000000E+00 0. -1.
         22    1    1    0    0    0 -0.14672664577E+02  0.12697764265E+02  0.23255920648E+02  0.30287920832E+02  0.00000000000E+00 0.  1.
</event>
<event>
 5    1  0.6978980E-004  0.9118800E+02  0.7818608E-02  0.1130116E+00
         25   -1    0    0    0    0  0.00000000000E+00  0.00000000000E+00  0.99999998245E-14  0.12500000000E+03  0.12500000000E+03 0.  0.
        -13    1    3    3    0    0  0.14083515965E+02 -0.38537702874E+01 -0.29757027582E+02  0.33146475256E+02  0.10566000000E+00 0. -1.
         23    2    1    0    0    0 -0.35886442355E+01  0.82405795087E+01  0.28447968677E+02  0.95165918149E+02  0.90368576049E+02 0.  0.
         13    1    3    3    0    0 -0.17672160200E+02  0.12094349796E+02  0.58204996259E+02  0.62019442892E+02  0.10566000000E+00 0.  1.
         22    1    1    0    0    0  0.35886442355E+01 -0.82405795087E+01 -0.28447968677E+02  0.29834081851E+02  0.00000000000E+00 0.  1.
</event>
<event>
 5    1  0.6978980E-004  0.9118800E+02  0.7818608E-02  0.1130116E+00
         25   -1    0    0    0    0  0.00000000000E+00  0.00000000000E+00  0.99999998245E-14  0.12500000000E+03  0.12500000000E+03 0.  0.
        -13    1    3    3    0    0  0.19003092928E+02  0.34723123632E+01 -0.20096721992E+02  0.27875865777E+02  0.10566000000E+00 0.  1.
         23    2    1    0    0    0 -0.22694089613E+02 -0.31870600982E+02 -0.16130988271E+02  0.82680197390E+02  0.71028510808E+02 0.  0.
         13    1    3    3    0    0 -0.41697182540E+02 -0.35342913345E+02  0.39657337210E+01  0.54804331613E+02  0.10566000000E+00 0. -1.
         22    1    1    0    0    0  0.22694089613E+02  0.31870600982E+02  0.16130988271E+02  0.42319802610E+02  0.00000000000E+00 0. -1.
</event>
<event>
 5    1  0.6978980E-004  0.9118800E+02  0.7818608E-02  0.1130116E+00
         25   -1    0    0    0    0  0.00000000000E+00  0.00000000000E+00  0.99999998245E-14  0.12500000000E+03  0.12500000000E+03 0.  0.
        -13    1    3    3    0    0  0.43319218996E+01  0.55779632424E+02 -0.89340988755E+01  0.56656528551E+02  0.10566000000E+00 0. -1.
         23    2    1    0    0    0 -0.99928783418E+01  0.20025940003E+02 -0.18062045873E+02  0.96240073163E+02  0.91842355647E+02 0.  0.
         13    1    3    3    0    0 -0.14324800241E+02 -0.35753692421E+02 -0.91279469973E+01  0.39583544613E+02  0.10566000000E+00 0.  1.
         22    1    1    0    0    0  0.99928783418E+01 -0.20025940003E+02  0.18062045873E+02  0.28759926837E+02  0.00000000000E+00 0. -1.
</event>
<event>
 5    1  0.6978980E-004  0.9118800E+02  0.7818608E-02  0.1130116E+00
         25   -1    0    0    0    0  0.00000000000E+00  0.00000000000E+00  0.99999998245E-14  0.12500000000E+03  0.12500000000E+03 0.  0.
        -13    1    3    3    0    0 -0.51652431995E+01 -0.58182293903E+01 -0.33298737129E+02  0.34195739340E+02  0.10566000000E+00 0. -1.
         23    2    1    0    0    0  0.13931778591E+02  0.96101586851E+01  0.23480532387E+02  0.96055484011E+02  0.91590780118E+02 0.  0.
         13    1    3    3    0    0  0.19097021791E+02  0.15428388075E+02  0.56779269517E+02  0.61859744671E+02  0.10566000000E+00 0.  1.
         22    1    1    0    0    0 -0.13931778591E+02 -0.96101586851E+01 -0.23480532387E+02  0.28944515989E+02  0.00000000000E+00 0.  1.
</event>
<event>
 5    1  0.6978980E-004  0.9118800E+02  0.7818608E-02  0.1130116E+00
         25   -1    0    0    0    0  0.00000000000E+00  0.00000000000E+00  0.99999998245E-14  0.12500000000E+03  0.12500000000E+03 0.  0.
        -13    1    3    3    0    0  0.35378270574E+02 -0.38612797982E+02  0.24885575024E+02  0.57981662662E+02  0.10566000000E+00 0.  1.
         23    2    1    0    0    0  0.14093320415E+02 -0.82971742251E+01  0.25121327993E+02  0.95024244787E+02  0.90172397089E+02 0.  0.
         13    1    3    3    0    0 -0.21284950159E+02  0.30315623756E+02  0.23575296939E+00  0.37042582125E+02  0.10566000000E+00 0. -1.
         22    1    1    0    0    0 -0.14093320415E+02  0.82971742251E+01 -0.25121327993E+02  0.29975755213E+02  0.00000000000E+00 0.  1.
</event>
<event>
 5    1  0.6978980E-004  0.9118800E+02  0.7818608E-02  0.1130116E+00
         25   -1    0    0    0    0  0.00000000000E+00  0.00000000000E+00  0.99999998245E-14  0.12500000000E+03  0.12500000000E+03 0.  0.
        -13    1    3    3    0    0  0.23483666112E+02 -0.33128345517E+02 -0.32691948369E+02  0.52131991166E+02  0.10566000000E+00 0. -1.
         23    2    1    0    0    0 -0.58569573450E+01 -0.38540446484E+01 -0.30573076344E+02  0.93633288240E+02  0.88223137895E+02 0.  0.
         13    1    3    3    0    0 -0.29340623457E+02  0.29274300868E+02  0.21188720250E+01  0.41501297075E+02  0.10566000000E+00 0.  1.
         22    1    1    0    0    0  0.58569573450E+01  0.38540446484E+01  0.30573076344E+02  0.31366711760E+02  0.00000000000E+00 0. -1.
</event>
<event>
 5    1  0.6978980E-004  0.9118800E+02  0.7818608E-02  0.1130116E+00
         25   -1    0    0    0    0  0.00000000000E+00  0.00000000000E+00  0.99999998245E-14  0.12500000000E+03  0.12500000000E+03 0.  0.
        -13    1    3    3    0    0  0.18985082446E+02  0.13443932463E+02 -0.54380539661E+02  0.59147501498E+02  0.10566000000E+00 0. -1.
         23    2    1    0    0    0  0.12280531196E+02  0.18944006107E+02 -0.19255233005E+02  0.95327608591E+02  0.90591954101E+02 0.  0.
         13    1    3    3    0    0 -0.67045512500E+01  0.55000736444E+01  0.35125306656E+02  0.36180107093E+02  0.10566000000E+00 0.  1.
         22    1    1    0    0    0 -0.12280531196E+02 -0.18944006107E+02  0.19255233005E+02  0.29672391409E+02  0.00000000000E+00 0. -1.
</event>
<event>
 5    1  0.6978980E-004  0.9118800E+02  0.7818608E-02  0.1130116E+00
         25   -1    0    0    0    0  0.00000000000E+00  0.00000000000E+00  0.99999998245E-14  0.12500000000E+03  0.12500000000E+03 0.  0.
        -13    1    3    3    0    0 -0.56026150995E+02  0.12061129912E+02  0.33285252208E+00  0.57310752961E+02  0.10566000000E+00 0. -1.
         23    2    1    0    0    0 -0.24653018133E+02 -0.62788368666E+00  0.17012545619E+02  0.95040156051E+02  0.90194451120E+02 0.  0.
         13    1    3    3    0    0  0.31373132862E+02 -0.12689013598E+02  0.16679693097E+02  0.37729403090E+02  0.10566000000E+00 0.  1.
         22    1    1    0    0    0  0.24653018133E+02  0.62788368666E+00 -0.17012545619E+02  0.29959843949E+02  0.00000000000E+00 0. -1.
</event>
<event>
 5    1  0.6978980E-004  0.9118800E+02  0.7818608E-02  0.1130116E+00
         25   -1    0    0    0    0  0.00000000000E+00  0.00000000000E+00  0.99999998245E-14  0.12500000000E+03  0.12500000000E+03 0.  0.
        -13    1    3    3    0    0 -0.44181357333E+02  0.18813624941E+02  0.34879473710E+02  0.59350936551E+02  0.10566000000E+00 0. -1.
         23    2    1    0    0    0 -0.23329019263E+02  0.15338708469E+02  0.39684899058E+01  0.96799503029E+02  0.92600625037E+02 0.  0.
         13    1    3    3    0    0  0.20852338070E+02 -0.34749164717E+01 -0.30910983804E+02  0.37448566478E+02  0.10566000000E+00 0.  1.
         22    1    1    0    0    0  0.23329019263E+02 -0.15338708469E+02 -0.39684899058E+01  0.28200496971E+02  0.00000000000E+00 0. -1.
</event>
<event>
 5    1  0.6978980E-004  0.9118800E+02  0.7818608E-02  0.1130116E+00
         25   -1    0    0    0    0  0.00000000000E+00  0.00000000000E+00  0.99999998245E-14  0.12500000000E+03  0.12500000000E+03 0.  0.
        -13    1    3    3    0    0  0.20531156036E+02  0.48544632194E+02 -0.19880138420E+02  0.56332412967E+02  0.10566000000E+00 0. -1.
         23    2    1    0    0    0 -0.46455492576E+01  0.30448774383E+02  0.17691042012E+01  0.94148116444E+02  0.88949587469E+02 0.  0.
         13    1    3    3    0    0 -0.25176705293E+02 -0.18095857811E+02  0.21649242621E+02  0.37815703477E+02  0.10566000000E+00 0.  1.
         22    1    1    0    0    0  0.46455492576E+01 -0.30448774383E+02 -0.17691042012E+01  0.30851883556E+02  0.00000000000E+00 0. -1.
</event>
<event>
 5    1  0.6978980E-004  0.9118800E+02  0.7818608E-02  0.1130116E+00
         25   -1    0    0    0    0  0.00000000000E+00  0.00000000000E+00  0.99999998245E-14  0.12500000000E+03  0.12500000000E+03 0.  0.
        -13    1    3    3    0    0 -0.15105177393E+02 -0.26677677937E+02  0.16553415920E+02  0.34840947559E+02  0.10566000000E+00 0.  1.
         23    2    1    0    0    0  0.10079336908E+01  0.14883040872E+02 -0.25069642801E+02  0.95827961571E+02  0.91279737033E+02 0.  0.
         13    1    3    3    0    0  0.16113111084E+02  0.41560718809E+02 -0.41623058721E+02  0.60987014012E+02  0.10566000000E+00 0. -1.
         22    1    1    0    0    0 -0.10079336908E+01 -0.14883040872E+02  0.25069642801E+02  0.29172038429E+02  0.00000000000E+00 0. -1.
</event>
<event>
 5    1  0.6978980E-004  0.9118800E+02  0.7818608E-02  0.1130116E+00
         25   -1    0    0    0    0  0.00000000000E+00  0.00000000000E+00  0.99999998245E-14  0.12500000000E+03  0.12500000000E+03 0.  0.
        -13    1    3    3    0    0  0.38784759449E+01 -0.22473931053E+02  0.48030958646E+02  0.53170521016E+02  0.10566000000E+00 0. -1.
         23    2    1    0    0    0 -0.20255530472E+02 -0.18080734680E+02  0.16108619819E+02  0.93429648185E+02  0.87934134704E+02 0.  0.
         13    1    3    3    0    0 -0.24134006417E+02  0.43931963726E+01 -0.31922338828E+02  0.40259127168E+02  0.10566000000E+00 0.  1.
         22    1    1    0    0    0  0.20255530472E+02  0.18080734680E+02 -0.16108619819E+02  0.31570351815E+02  0.00000000000E+00 0.  1.
</event>
<event>
 5    1  0.6978980E-004  0.9118800E+02  0.7818608E-02  0.1130116E+00
         25   -1    0    0    0    0  0.00000000000E+00  0.00000000000E+00  0.99999998245E-14  0.12500000000E+03  0.12500000000E+03 0.  0.
        -13    1    3    3    0    0 -0.15262760902E+02 -0.27904040495E+02  0.11876717076E+02  0.33950771991E+02  0.10566000000E+00 0. -1.
         23    2    1    0    0    0  0.27295371733E+02  0.13878847030E+02  0.46496013962E+01  0.94027778477E+02  0.88780316621E+02 0.  0.
         13    1    3    3    0    0  0.42558132634E+02  0.41782887525E+02 -0.72271156794E+01  0.60077006486E+02  0.10566000000E+00 0.  1.
         22    1    1    0    0    0 -0.27295371733E+02 -0.13878847030E+02 -0.46496013962E+01  0.30972221523E+02  0.00000000000E+00 0.  1.
</event>
<event>
 5    1  0.6978980E-004  0.9118800E+02  0.7818608E-02  0.1130116E+00
         25   -1    0    0    0    0  0.00000000000E+00  0.00000000000E+00  0.99999998245E-14  0.12500000000E+03  0.12500000000E+03 0.  0.
        -13    1    3    3    0    0  0.21583654190E+02 -0.26164329574E+02 -0.18692359981E+02  0.38727790487E+02  0.10566000000E+00 0. -1.
         23    2    1    0    0    0 -0.18745974521E+02  0.79565032771E+01  0.13477601879E+02  0.10057945010E+03  0.97569782844E+02 0.  0.
         13    1    3    3    0    0 -0.40329628712E+02  0.34120832851E+02  0.32169961860E+02  0.61851659611E+02  0.10566000000E+00 0.  1.
         22    1    1    0    0    0  0.18745974521E+02 -0.79565032771E+01 -0.13477601879E+02  0.24420549903E+02  0.00000000000E+00 0.  1.
</event>
<event>
 5    1  0.6978980E-004  0.9118800E+02  0.7818608E-02  0.1130116E+00
         25   -1    0    0    0    0  0.00000000000E+00  0.00000000000E+00  0.99999998245E-14  0.12500000000E+03  0.12500000000E+03 0.  0.
        -13    1    3    3    0    0  0.14341278340E+02  0.43209524488E+02 -0.24113656639E+02  0.51519072890E+02  0.10566000000E+00 0.  1.
         23    2    1    0    0    0 -0.19652064911E+02  0.20223544843E+02 -0.72564601509E+01  0.95882107988E+02  0.91353855951E+02 0.  0.
         13    1    3    3    0    0 -0.33993343251E+02 -0.22985979645E+02  0.16857196488E+02  0.44363035098E+02  0.10566000000E+00 0. -1.
         22    1    1    0    0    0  0.19652064911E+02 -0.20223544843E+02  0.72564601509E+01  0.29117892012E+02  0.00000000000E+00 0.  1.
</event>
<event>
 5    1  0.6978980E-004  0.9118800E+02  0.7818608E-02  0.1130116E+00
         25   -1    0    0    0    0  0.00000000000E+00  0.00000000000E+00  0.99999998245E-14  0.12500000000E+03  0.12500000000E+03 0.  0.
        -13    1    3    3    0    0 -0.47691208250E+02  0.33011365529E+02  0.14160710230E+02  0.59705430881E+02  0.10566000000E+00 0.  1.
         23    2    1    0    0    0 -0.23839567066E+02  0.50108245865E+01  0.14805092120E+02  0.96493438060E+02  0.92186547365E+02 0.  0.
         13    1    3    3    0    0  0.23851641183E+02 -0.28000540942E+02  0.64438188993E+00  0.36788007180E+02  0.10566000000E+00 0. -1.
         22    1    1    0    0    0  0.23839567066E+02 -0.50108245865E+01 -0.14805092120E+02  0.28506561940E+02  0.00000000000E+00 0.  1.
</event>
<event>
 5    1  0.6978980E-004  0.9118800E+02  0.7818608E-02  0.1130116E+00
         25   -1    0    0    0    0  0.00000000000E+00  0.00000000000E+00  0.99999998245E-14  0.12500000000E+03  0.12500000000E+03 0.  0.
        -13    1    3    3    0    0  0.15692748461E+02  0.60003459511E+01 -0.32119801398E+02  0.36248576685E+02  0.10566000000E+00 0.  1.
         23    2    1    0    0    0 -0.22567892897E+02 -0.24862260271E+02 -0.12806071081E+02  0.89063427652E+02  0.81491453006E+02 0.  0.
         13    1    3    3    0    0 -0.38260641358E+02 -0.30862606222E+02  0.19313730316E+02  0.52814850967E+02  0.10566000000E+00 0. -1.
         22    1    1    0    0    0  0.22567892897E+02  0.24862260271E+02  0.12806071081E+02  0.35936572348E+02  0.00000000000E+00 0. -1.
</event>
<event>
 5    1  0.6978980E-004  0.9118800E+02  0.7818608E-02  0.1130116E+00
         25   -1    0    0    0    0  0.00000000000E+00  0.00000000000E+00  0.99999998245E-14  0.12500000000E+03  0.12500000000E+03 0.  0.
        -13    1    3    3    0    0 -0.80178059451E+01 -0.29245031277E+02 -0.22451947200E+02  0.37731394934E+02  0.10566000000E+00 0. -1.
         23    2    1    0    0    0 -0.50992453376E+01  0.25646517862E+02 -0.18747463465E+02  0.92825265070E+02  0.87070754376E+02 0.  0.
         13    1    3    3    0    0  0.29185606076E+01  0.54891549138E+02  0.37044837355E+01  0.55093870136E+02  0.10566000000E+00 0.  1.
         22    1    1    0    0    0  0.50992453376E+01 -0.25646517862E+02  0.18747463465E+02  0.32174734930E+02  0.00000000000E+00 0.  1.
</event>
<event>
 5    1  0.6978980E-004  0.9118800E+02  0.7818608E-02  0.1130116E+00
         25   -1    0    0    0    0  0.00000000000E+00  0.00000000000E+00  0.99999998245E-14  0.12500000000E+03  0.12500000000E+03 0.  0.
        -13    1    3    3    0    0  0.46625991136E+02 -0.21420886135E+02 -0.31190652317E+02  0.60047525913E+02  0.10566000000E+00 0. -1.
         23    2    1    0    0    0  0.27729035986E+02 -0.79101999214E+01 -0.38747966265E+01  0.95905589052E+02  0.91385979575E+02 0.  0.
         13    1    3    3    0    0 -0.18896955150E+02  0.13510686213E+02  0.27315855691E+02  0.35858063139E+02  0.10566000000E+00 0.  1.
         22    1    1    0    0    0 -0.27729035986E+02  0.79101999214E+01  0.38747966265E+01  0.29094410948E+02  0.00000000000E+00 0. -1.
</event>
<event>
 5    1  0.6978980E-004  0.9118800E+02  0.7818608E-02  0.1130116E+00
         25   -1    0    0    0    0  0.00000000000E+00  0.00000000000E+00  0.99999998245E-14  0.12500000000E+03  0.12500000000E+03 0.  0.
        -13    1    3    3    0    0 -0.30694878269E+02  0.94190327074E+01 -0.52313822130E+02  0.61381111745E+02  0.10566000000E+00 0.  1.
         23    2    1    0    0    0 -0.13684883383E+02 -0.35567768154E+01 -0.26973550754E+02  0.94545129539E+02  0.89505767327E+02 0.  0.
         13    1    3    3    0    0  0.17009994886E+02 -0.12975809523E+02  0.25340271377E+02  0.33164017794E+02  0.10566000000E+00 0. -1.
         22    1    1    0    0    0  0.13684883383E+02  0.35567768154E+01  0.26973550754E+02  0.30454870461E+02  0.00000000000E+00 0.  1.
</event>
<event>
 5    1  0.6978980E-004  0.9118800E+02  0.7818608E-02  0.1130116E+00
         25   -1    0    0    0    0  0.00000000000E+00  0.00000000000E+00  0.99999998245E-14  0.12500000000E+03  0.12500000000E+03 0.  0.
        -13    1    3    3    0    0 -0.67220586825E+01  0.38890599684E+02 -0.16215743596E+02  0.42668797980E+02  0.10566000000E+00 0. -1.
         23    2    1    0    0    0 -0.24768530484E+02 -0.10730408751E+02 -0.11432171811E+02  0.95685902255E+02  0.91084990881E+02 0.  0.
         13    1    3    3    0    0 -0.18046471801E+02 -0.49621008435E+02  0.47835717852E+01  0.53017104274E+02  0.10566000000E+00 0.  1.
         22    1    1    0    0    0  0.24768530484E+02  0.10730408751E+02  0.11432171811E+02  0.29314097745E+02  0.00000000000E+00 0.  1.
</event>
<event>
 5    1  0.6978980E-004  0.9118800E+02  0.7818608E-02  0.1130116E+00
         25   -1    0    0    0    0  0.00000000000E+00  0.00000000000E+00  0.99999998245E-14  0.12500000000E+03  0.12500000000E+03 0.  0.
        -13    1    3    3    0    0  0.51070642046E+02 -0.27494026064E+02  0.20393936644E+02  0.61482158096E+02  0.10566000000E+00 0.  1.
         23    2    1    0    0    0  0.24510889983E+02 -0.14223289350E+02  0.16107762988E+01  0.96615492114E+02  0.92351897806E+02 0.  0.
         13    1    3    3    0    0 -0.26559752063E+02  0.13270736715E+02 -0.18783160345E+02  0.35133334018E+02  0.10566000000E+00 0. -1.
         22    1    1    0    0    0 -0.24510889983E+02  0.14223289350E+02 -0.16107762988E+01  0.28384507886E+02  0.00000000000E+00 0.  1.
</event>
<event>
 5    1  0.6978980E-004  0.9118800E+02  0.7818608E-02  0.1130116E+00
         25   -1    0    0    0    0  0.00000000000E+00  0.00000000000E+00  0.99999998245E-14  0.12500000000E+03  0.12500000000E+03 0.  0.
        -13    1    3    3    0    0 -0.16487068835E+02  0.32340657669E+02  0.93843017732E+01  0.37494237705E+02  0.10566000000E+00 0. -1.
         23    2    1    0    0    0 -0.48195069608E+01 -0.14555159505E+02 -0.24205669041E+02  0.96346994411E+02  0.91987763331E+02 0.  0.
         13    1    3    3    0    0  0.11667561874E+02 -0.46895817174E+02 -0.33589970815E+02  0.58852756706E+02  0.10566000000E+00 0.  1.
         22    1    1    0    0    0  0.48195069608E+01  0.14555159505E+02  0.24205669041E+02  0.28653005589E+02  0.00000000000E+00 0.  1.
</event>
<event>
 5    1  0.6978980E-004  0.9118800E+02  0.7818608E-02  0.1130116E+00
         25   -1    0    0    0    0  0.00000000000E+00  0.00000000000E+00  0.99999998245E-14  0.12500000000E+03  0.12500000000E+03 0.  0.
        -13    1    3    3    0    0  0.70006204293E+01 -0.60876164584E+01  0.37866673684E+02  0.38986714410E+02  0.10566000000E+00 0.  1.
         23    2    1    0    0    0  0.17075370654E+02 -0.15091814905E+02 -0.17682380639E+02  0.96155628883E+02  0.91727352631E+02 0.  0.
         13    1    3    3    0    0  0.10074750225E+02 -0.90041984463E+01 -0.55549054323E+02  0.57168914473E+02  0.10566000000E+00 0. -1.
         22    1    1    0    0    0 -0.17075370654E+02  0.15091814905E+02  0.17682380639E+02  0.28844371117E+02  0.00000000000E+00 0. -1.
</event>
<event>
 5    1  0.6978980E-004  0.9118800E+02  0.7818608E-02  0.1130116E+00
         25   -1    0    0    0    0  0.00000000000E+00  0.00000000000E+00  0.99999998245E-14  0.12500000000E+03  0.12500000000E+03 0.  0.
        -13    1    3    3    0    0 -0.17999088247E+02 -0.32784190771E+02 -0.43738087532E+02  0.57548256335E+02  0.10566000000E+00 0.  1.
         23    2    1    0    0    0 -0.23536043109E+02 -0.32019428698E+02 -0.22874821847E+02  0.79147556075E+02  0.64512704320E+02 0.  0.
         13    1    3    3    0    0 -0.55369548623E+01  0.76476207249E+00  0.20863265685E+02  0.21599299740E+02  0.10566000000E+00 0. -1.
         22    1    1    0    0    0  0.23536043109E+02  0.32019428698E+02  0.22874821847E+02  0.45852443925E+02  0.00000000000E+00 0.  1.
</event>
<event>
 5    1  0.6978980E-004  0.9118800E+02  0.7818608E-02  0.1130116E+00
         25   -1    0    0    0    0  0.00000000000E+00  0.00000000000E+00  0.99999998245E-14  0.12500000000E+03  0.12500000000E+03 0.  0.
        -13    1    3    3    0    0  0.37356889094E+02 -0.66869662050E+01  0.14656131251E+02  0.40682502714E+02  0.10566000000E+00 0.  1.
         23    2    1    0    0    0  0.36868885839E+01 -0.35370625210E+02 -0.50055463248E+01  0.89087192129E+02  0.81527897264E+02 0.  0.
         13    1    3    3    0    0 -0.33670000510E+02 -0.28683659005E+02 -0.19661677576E+02  0.48404689415E+02  0.10566000000E+00 0. -1.
         22    1    1    0    0    0 -0.36868885839E+01  0.35370625210E+02  0.50055463248E+01  0.35912807871E+02  0.00000000000E+00 0. -1.
</event>
<event>
 5    1  0.6978980E-004  0.9118800E+02  0.7818608E-02  0.1130116E+00
         25   -1    0    0    0    0  0.00000000000E+00  0.00000000000E+00  0.99999998245E-14  0.12500000000E+03  0.12500000000E+03 0.  0.
        -13    1    3    3    0    0 -0.42218263297E+02 -0.39963340072E+02 -0.16714481027E+02  0.60488307511E+02  0.10566000000E+00 0. -1.
         23    2    1    0    0    0 -0.15704434548E+02 -0.16515968205E+02 -0.18079556546E+02  0.95909162351E+02  0.91390867091E+02 0.  0.
         13    1    3    3    0    0  0.26513828749E+02  0.23447371867E+02 -0.13650755195E+01  0.35420854840E+02  0.10566000000E+00 0.  1.
         22    1    1    0    0    0  0.15704434548E+02  0.16515968205E+02  0.18079556546E+02  0.29090837649E+02  0.00000000000E+00 0. -1.
</event>
<event>
 5    1  0.6978980E-004  0.9118800E+02  0.7818608E-02  0.1130116E+00
         25   -1    0    0    0    0  0.00000000000E+00  0.00000000000E+00  0.99999998245E-14  0.12500000000E+03  0.12500000000E+03 0.  0.
        -13    1    3    3    0    0  0.15240415586E+02 -0.41670583298E+02 -0.16167255683E+02  0.47223925080E+02  0.10566000000E+00 0. -1.
         23    2    1    0    0    0  0.26634131166E+02 -0.29332408889E+01  0.11152960021E+02  0.95976399908E+02  0.91482785140E+02 0.  0.
         13    1    3    3    0    0  0.11393715580E+02  0.38737342409E+02  0.27320215704E+02  0.48752474827E+02  0.10566000000E+00 0.  1.
         22    1    1    0    0    0 -0.26634131166E+02  0.29332408889E+01 -0.11152960021E+02  0.29023600092E+02  0.00000000000E+00 0. -1.
</event>
<event>
 5    1  0.6978980E-004  0.9118800E+02  0.7818608E-02  0.1130116E+00
         25   -1    0    0    0    0  0.00000000000E+00  0.00000000000E+00  0.99999998245E-14  0.12500000000E+03  0.12500000000E+03 0.  0.
        -13    1    3    3    0    0 -0.23611880275E+02  0.24795607324E+02  0.52876349375E+00  0.34243740852E+02  0.10566000000E+00 0.  1.
         23    2    1    0    0    0  0.26422250960E+02 -0.92692772824E+01 -0.91491092512E+01  0.95542215846E+02  0.90887589701E+02 0.  0.
         13    1    3    3    0    0  0.50034131235E+02 -0.34064884607E+02 -0.96778727449E+01  0.61298474994E+02  0.10566000000E+00 0. -1.
         22    1    1    0    0    0 -0.26422250960E+02  0.92692772824E+01  0.91491092512E+01  0.29457784154E+02  0.00000000000E+00 0. -1.
</event>
<event>
 5    1  0.6978980E-004  0.9118800E+02  0.7818608E-02  0.1130116E+00
         25   -1    0    0    0    0  0.00000000000E+00  0.00000000000E+00  0.99999998245E-14  0.12500000000E+03  0.12500000000E+03 0.  0.
        -13    1    3    3    0    0  0.45202358483E+02 -0.26600906763E+02 -0.40629843122E+01  0.52605897565E+02  0.10566000000E+00 0.  1.
         23    2    1    0    0    0  0.48959120951E+01 -0.31078754061E+02  0.12861118024E+01  0.93511700700E+02  0.88050696619E+02 0.  0.
         13    1    3    3    0    0 -0.40306446388E+02 -0.44778472979E+01  0.53490961146E+01  0.40905803135E+02  0.10566000000E+00 0. -1.
         22    1    1    0    0    0 -0.48959120951E+01  0.31078754061E+02 -0.12861118024E+01  0.31488299300E+02  0.00000000000E+00 0.  1.
</event>
<event>
 5    1  0.6978980E-004  0.9118800E+02  0.7818608E-02  0.1130116E+00
         25   -1    0    0    0    0  0.00000000000E+00  0.00000000000E+00  0.99999998245E-14  0.12500000000E+03  0.12500000000E+03 0.  0.
        -13    1    3    3    0    0 -0.18364238428E+02 -0.20574927424E+02  0.24788107512E+02  0.37081455333E+02  0.10566000000E+00 0. -1.
         23    2    1    0    0    0 -0.99102338180E+01  0.30351857321E+02  0.15397491755E+02  0.89552422798E+02  0.82238103696E+02 0.  0.
         13    1    3    3    0    0  0.84540046101E+01  0.50926784745E+02 -0.93906157572E+01  0.52470967465E+02  0.10566000000E+00 0.  1.
         22    1    1    0    0    0  0.99102338180E+01 -0.30351857321E+02 -0.15397491755E+02  0.35447577202E+02  0.00000000000E+00 0. -1.
</event>
<event>
 5    1  0.6978980E-004  0.9118800E+02  0.7818608E-02  0.1130116E+00
         25   -1    0    0    0    0  0.00000000000E+00  0.00000000000E+00  0.99999998245E-14  0.12500000000E+03  0.12500000000E+03 0.  0.
        -13    1    3    3    0    0 -0.28145931692E+02  0.83618379539E+01 -0.52627244468E+02  0.60264017698E+02  0.10566000000E+00 0. -1.
         23    2    1    0    0    0 -0.79576562367E+01  0.48016614104E+01 -0.39065922245E+02  0.84843723705E+02  0.74739085666E+02 0.  0.
         13    1    3    3    0    0  0.20188275456E+02 -0.35601765435E+01  0.13561322223E+02  0.24579706007E+02  0.10566000000E+00 0.  1.
         22    1    1    0    0    0  0.79576562367E+01 -0.48016614104E+01  0.39065922245E+02  0.40156276295E+02  0.00000000000E+00 0. -1.
</event>
<event>
 5    1  0.6978980E-004  0.9118800E+02  0.7818608E-02  0.1130116E+00
         25   -1    0    0    0    0  0.00000000000E+00  0.00000000000E+00  0.99999998245E-14  0.12500000000E+03  0.12500000000E+03 0.  0.
        -13    1    3    3    0    0  0.24285017554E+02  0.38602441890E+02 -0.13819298852E+02  0.47653906264E+02  0.10566000000E+00 0.  1.
         23    2    1    0    0    0 -0.18524528314E+02  0.24279295249E+02 -0.16084754123E+01  0.94418477471E+02  0.89328715248E+02 0.  0.
         13    1    3    3    0    0 -0.42809545867E+02 -0.14323146641E+02  0.12210823440E+02  0.46764571207E+02  0.10566000000E+00 0. -1.
         22    1    1    0    0    0  0.18524528314E+02 -0.24279295249E+02  0.16084754123E+01  0.30581522529E+02  0.00000000000E+00 0.  1.
</event>
<event>
 5    1  0.6978980E-004  0.9118800E+02  0.7818608E-02  0.1130116E+00
         25   -1    0    0    0    0  0.00000000000E+00  0.00000000000E+00  0.99999998245E-14  0.12500000000E+03  0.12500000000E+03 0.  0.
        -13    1    3    3    0    0  0.83117145471E+00 -0.58258829446E+02 -0.16807649062E+02  0.60640665279E+02  0.10566000000E+00 0. -1.
         23    2    1    0    0    0  0.72082056143E+01 -0.24287463023E+02 -0.15642933238E+02  0.95225170890E+02  0.90450498741E+02 0.  0.
         13    1    3    3    0    0  0.63770341596E+01  0.33971366423E+02  0.11647158248E+01  0.34584505611E+02  0.10566000000E+00 0.  1.
         22    1    1    0    0    0 -0.72082056143E+01  0.24287463023E+02  0.15642933238E+02  0.29774829110E+02  0.00000000000E+00 0. -1.
</event>
<event>
 5    1  0.6978980E-004  0.9118800E+02  0.7818608E-02  0.1130116E+00
         25   -1    0    0    0    0  0.00000000000E+00  0.00000000000E+00  0.99999998245E-14  0.12500000000E+03  0.12500000000E+03 0.  0.
        -13    1    3    3    0    0  0.24490522629E+02 -0.27277786429E+02 -0.12049159534E+02  0.38588297975E+02  0.10566000000E+00 0. -1.
         23    2    1    0    0    0 -0.27744021104E+01  0.23102554128E+02 -0.17141573078E+02  0.96099154997E+02  0.91650361424E+02 0.  0.
         13    1    3    3    0    0 -0.27264924739E+02  0.50380340557E+02 -0.50924135434E+01  0.57510857022E+02  0.10566000000E+00 0.  1.
         22    1    1    0    0    0  0.27744021104E+01 -0.23102554128E+02  0.17141573078E+02  0.28900845003E+02  0.00000000000E+00 0.  1.
</event>
<event>
 5    1  0.6978980E-004  0.9118800E+02  0.7818608E-02  0.1130116E+00
         25   -1    0    0    0    0  0.00000000000E+00  0.00000000000E+00  0.99999998245E-14  0.12500000000E+03  0.12500000000E+03 0.  0.
        -13    1    3    3    0    0  0.45398439385E+02 -0.99172433896E+01 -0.40695361373E+02  0.61769682016E+02  0.10566000000E+00 0. -1.
         23    2    1    0    0    0  0.22185449762E+02  0.20309212598E+01 -0.18169038520E+02  0.96252256035E+02  0.91858935378E+02 0.  0.
         13    1    3    3    0    0 -0.23212989623E+02  0.11948164649E+02  0.22526322853E+02  0.34482574020E+02  0.10566000000E+00 0.  1.
         22    1    1    0    0    0 -0.22185449762E+02 -0.20309212598E+01  0.18169038520E+02  0.28747743965E+02  0.00000000000E+00 0. -1.
</event>
<event>
 5    1  0.6978980E-004  0.9118800E+02  0.7818608E-02  0.1130116E+00
         25   -1    0    0    0    0  0.00000000000E+00  0.00000000000E+00  0.99999998245E-14  0.12500000000E+03  0.12500000000E+03 0.  0.
        -13    1    3    3    0    0 -0.33920398052E+02 -0.10470514146E+01  0.67461449976E+01  0.34600742145E+02  0.10566000000E+00 0.  1.
         23    2    1    0    0    0  0.26729780024E+02  0.93017955711E+01 -0.13935873442E+01  0.96663687138E+02  0.92417107639E+02 0.  0.
         13    1    3    3    0    0  0.60650178075E+02  0.10348846986E+02 -0.81397323419E+01  0.62062944992E+02  0.10566000000E+00 0. -1.
         22    1    1    0    0    0 -0.26729780024E+02 -0.93017955711E+01  0.13935873442E+01  0.28336312862E+02  0.00000000000E+00 0. -1.
</event>
<event>
 5    1  0.6978980E-004  0.9118800E+02  0.7818608E-02  0.1130116E+00
         25   -1    0    0    0    0  0.00000000000E+00  0.00000000000E+00  0.99999998245E-14  0.12500000000E+03  0.12500000000E+03 0.  0.
        -13    1    3    3    0    0 -0.43444229459E+02 -0.32784253726E+02 -0.28103272314E+02  0.61253681068E+02  0.10566000000E+00 0. -1.
         23    2    1    0    0    0 -0.14987136300E+02 -0.14830418655E+02 -0.20164995074E+02  0.95824966182E+02  0.91275635004E+02 0.  0.
         13    1    3    3    0    0  0.28457093159E+02  0.17953835071E+02  0.79382772396E+01  0.34571285113E+02  0.10566000000E+00 0.  1.
         22    1    1    0    0    0  0.14987136300E+02  0.14830418655E+02  0.20164995074E+02  0.29175033818E+02  0.00000000000E+00 0. -1.
</event>
<event>
 5    1  0.6978980E-004  0.9118800E+02  0.7818608E-02  0.1130116E+00
         25   -1    0    0    0    0  0.00000000000E+00  0.00000000000E+00  0.99999998245E-14  0.12500000000E+03  0.12500000000E+03 0.  0.
        -13    1    3    3    0    0 -0.20705943725E+02 -0.32207970469E+02 -0.25490307880E+02  0.45998439399E+02  0.10566000000E+00 0.  1.
         23    2    1    0    0    0 -0.23596025981E+01 -0.18225614391E+02  0.20511500449E+02  0.97459804012E+02  0.93487705091E+02 0.  0.
         13    1    3    3    0    0  0.18346341127E+02  0.13982356078E+02  0.46001808330E+02  0.51461364613E+02  0.10566000000E+00 0. -1.
         22    1    1    0    0    0  0.23596025981E+01  0.18225614391E+02 -0.20511500449E+02  0.27540195988E+02  0.00000000000E+00 0.  1.
</event>
<event>
 5    1  0.6978980E-004  0.9118800E+02  0.7818608E-02  0.1130116E+00
         25   -1    0    0    0    0  0.00000000000E+00  0.00000000000E+00  0.99999998245E-14  0.12500000000E+03  0.12500000000E+03 0.  0.
        -13    1    3    3    0    0  0.11149826147E+02  0.32365000377E+02  0.27394556776E+02  0.43843868186E+02  0.10566000000E+00 0.  1.
         23    2    1    0    0    0 -0.27270869046E+02  0.18595518260E+01  0.97839185145E+01  0.95967547589E+02  0.91470688732E+02 0.  0.
         13    1    3    3    0    0 -0.38420695193E+02 -0.30505448551E+02 -0.17610638262E+02  0.52123679403E+02  0.10566000000E+00 0. -1.
         22    1    1    0    0    0  0.27270869046E+02 -0.18595518260E+01 -0.97839185145E+01  0.29032452411E+02  0.00000000000E+00 0. -1.
</event>
<event>
 5    1  0.6978980E-004  0.9118800E+02  0.7818608E-02  0.1130116E+00
         25   -1    0    0    0    0  0.00000000000E+00  0.00000000000E+00  0.99999998245E-14  0.12500000000E+03  0.12500000000E+03 0.  0.
        -13    1    3    3    0    0 -0.31289637459E+02 -0.48836379214E+02  0.15168924124E+02  0.59951153202E+02  0.10566000000E+00 0.  1.
         23    2    1    0    0    0 -0.28417914723E+01 -0.25065131270E+02  0.11722987478E+02  0.97183367929E+02  0.93117355967E+02 0.  0.
         13    1    3    3    0    0  0.28447845987E+02  0.23771247944E+02 -0.34459366463E+01  0.37232214727E+02  0.10566000000E+00 0. -1.
         22    1    1    0    0    0  0.28417914723E+01  0.25065131270E+02 -0.11722987478E+02  0.27816632071E+02  0.00000000000E+00 0.  1.
</event>
<event>
 5    1  0.6978980E-004  0.9118800E+02  0.7818608E-02  0.1130116E+00
         25   -1    0    0    0    0  0.00000000000E+00  0.00000000000E+00  0.99999998245E-14  0.12500000000E+03  0.12500000000E+03 0.  0.
        -13    1    3    3    0    0 -0.78427189246E+01 -0.31886106439E+02  0.15757996065E+02  0.36421938827E+02  0.10566000000E+00 0.  1.
         23    2    1    0    0    0 -0.26340378312E+02  0.19219726768E+02  0.88767819981E+01  0.91206351406E+02  0.84714744003E+02 0.  0.
         13    1    3    3    0    0 -0.18497659388E+02  0.51105833206E+02 -0.68812140664E+01  0.54784412579E+02  0.10566000000E+00 0. -1.
         22    1    1    0    0    0  0.26340378312E+02 -0.19219726768E+02 -0.88767819981E+01  0.33793648594E+02  0.00000000000E+00 0. -1.
</event>
<event>
 5    1  0.6978980E-004  0.9118800E+02  0.7818608E-02  0.1130116E+00
         25   -1    0    0    0    0  0.00000000000E+00  0.00000000000E+00  0.99999998245E-14  0.12500000000E+03  0.12500000000E+03 0.  0.
        -13    1    3    3    0    0  0.74290614950E+01  0.35891151960E+02  0.12606236343E+02  0.38759438883E+02  0.10566000000E+00 0. -1.
         23    2    1    0    0    0 -0.14051927441E+02 -0.17356578633E+02  0.17843239229E+02  0.96415237051E+02  0.92080449948E+02 0.  0.
         13    1    3    3    0    0 -0.21480988936E+02 -0.53247730594E+02  0.52370028859E+01  0.57655798168E+02  0.10566000000E+00 0.  1.
         22    1    1    0    0    0  0.14051927441E+02  0.17356578633E+02 -0.17843239229E+02  0.28584762949E+02  0.00000000000E+00 0.  1.
</event>
<event>
 5    1  0.6978980E-004  0.9118800E+02  0.7818608E-02  0.1130116E+00
         25   -1    0    0    0    0  0.00000000000E+00  0.00000000000E+00  0.99999998245E-14  0.12500000000E+03  0.12500000000E+03 0.  0.
        -13    1    3    3    0    0 -0.11427257053E+02 -0.58695488340E+02 -0.14061072465E+02  0.61428555885E+02  0.10566000000E+00 0.  1.
         23    2    1    0    0    0  0.11504163518E+01 -0.24118725926E+02 -0.11342938087E+02  0.98322319394E+02  0.94633925463E+02 0.  0.
         13    1    3    3    0    0  0.12577673405E+02  0.34576762414E+02  0.27181343781E+01  0.36893763509E+02  0.10566000000E+00 0. -1.
         22    1    1    0    0    0 -0.11504163518E+01  0.24118725926E+02  0.11342938087E+02  0.26677680606E+02  0.00000000000E+00 0.  1.
</event>
<event>
 5    1  0.6978980E-004  0.9118800E+02  0.7818608E-02  0.1130116E+00
         25   -1    0    0    0    0  0.00000000000E+00  0.00000000000E+00  0.99999998245E-14  0.12500000000E+03  0.12500000000E+03 0.  0.
        -13    1    3    3    0    0  0.21701290197E+02 -0.29945708865E+02 -0.16632231743E+02  0.40550385601E+02  0.10566000000E+00 0. -1.
         23    2    1    0    0    0  0.25332941270E+02  0.20224743259E+02 -0.47353879842E+01  0.92239932042E+02  0.86226347542E+02 0.  0.
         13    1    3    3    0    0  0.36316510729E+01  0.50170452123E+02  0.11896843759E+02  0.51689546440E+02  0.10566000000E+00 0.  1.
         22    1    1    0    0    0 -0.25332941270E+02 -0.20224743259E+02  0.47353879842E+01  0.32760067958E+02  0.00000000000E+00 0.  1.
</event>
<event>
 5    1  0.6978980E-004  0.9118800E+02  0.7818608E-02  0.1130116E+00
         25   -1    0    0    0    0  0.00000000000E+00  0.00000000000E+00  0.99999998245E-14  0.12500000000E+03  0.12500000000E+03 0.  0.
        -13    1    3    3    0    0  0.36636046789E+02 -0.18341693915E+02 -0.53455877193E+01  0.41318326830E+02  0.10566000000E+00 0. -1.
         23    2    1    0    0    0 -0.15893987466E+02 -0.23181713493E+02  0.80837437614E+01  0.95753502924E+02  0.91177715101E+02 0.  0.
         13    1    3    3    0    0 -0.52530034255E+02 -0.48400195780E+01  0.13429331481E+02  0.54435176094E+02  0.10566000000E+00 0.  1.
         22    1    1    0    0    0  0.15893987466E+02  0.23181713493E+02 -0.80837437614E+01  0.29246497076E+02  0.00000000000E+00 0.  1.
</event>
<event>
 5    1  0.6978980E-004  0.9118800E+02  0.7818608E-02  0.1130116E+00
         25   -1    0    0    0    0  0.00000000000E+00  0.00000000000E+00  0.99999998245E-14  0.12500000000E+03  0.12500000000E+03 0.  0.
        -13    1    3    3    0    0  0.27593846635E+02 -0.14418023549E+02  0.13056008209E+02  0.33760484143E+02  0.10566000000E+00 0. -1.
         23    2    1    0    0    0 -0.12167968672E+02  0.21826080958E+02 -0.16411792145E+02  0.95103776276E+02  0.90282578989E+02 0.  0.
         13    1    3    3    0    0 -0.39761815307E+02  0.36244104507E+02 -0.29467800354E+02  0.61343292133E+02  0.10566000000E+00 0.  1.
         22    1    1    0    0    0  0.12167968672E+02 -0.21826080958E+02  0.16411792145E+02  0.29896223724E+02  0.00000000000E+00 0.  1.
</event>
<event>
 5    1  0.6978980E-004  0.9118800E+02  0.7818608E-02  0.1130116E+00
         25   -1    0    0    0    0  0.00000000000E+00  0.00000000000E+00  0.99999998245E-14  0.12500000000E+03  0.12500000000E+03 0.  0.
        -13    1    3    3    0    0  0.42587580943E+02 -0.28588351777E+02  0.62498350838E+01  0.51672695987E+02  0.10566000000E+00 0.  1.
         23    2    1    0    0    0  0.71717673326E-01 -0.26515867696E+02  0.14117279984E+02  0.94960126877E+02  0.90083470844E+02 0.  0.
         13    1    3    3    0    0 -0.42515863270E+02  0.20724840812E+01  0.78674448999E+01  0.43287430891E+02  0.10566000000E+00 0. -1.
         22    1    1    0    0    0 -0.71717673326E-01  0.26515867696E+02 -0.14117279984E+02  0.30039873123E+02  0.00000000000E+00 0.  1.
</event>
<event>
 5    1  0.6978980E-004  0.9118800E+02  0.7818608E-02  0.1130116E+00
         25   -1    0    0    0    0  0.00000000000E+00  0.00000000000E+00  0.99999998245E-14  0.12500000000E+03  0.12500000000E+03 0.  0.
        -13    1    3    3    0    0 -0.13756996386E+02  0.87977480333E+01 -0.51087692746E+02  0.53634120055E+02  0.10566000000E+00 0.  1.
         23    2    1    0    0    0  0.13498727495E+02 -0.88660790782E+01 -0.24734919318E+02  0.95459532234E+02  0.90773801608E+02 0.  0.
         13    1    3    3    0    0  0.27255723881E+02 -0.17663827112E+02  0.26352773428E+02  0.41825412178E+02  0.10566000000E+00 0. -1.
         22    1    1    0    0    0 -0.13498727495E+02  0.88660790782E+01  0.24734919318E+02  0.29540467766E+02  0.00000000000E+00 0.  1.
</event>
<event>
 5    1  0.6978980E-004  0.9118800E+02  0.7818608E-02  0.1130116E+00
         25   -1    0    0    0    0  0.00000000000E+00  0.00000000000E+00  0.99999998245E-14  0.12500000000E+03  0.12500000000E+03 0.  0.
        -13    1    3    3    0    0  0.21927679205E+02  0.37831400624E+02  0.30618581347E+02  0.53381145325E+02  0.10566000000E+00 0. -1.
         23    2    1    0    0    0 -0.11394271423E+02  0.24207111396E+02  0.44720592464E+01  0.97874127160E+02  0.94040054179E+02 0.  0.
         13    1    3    3    0    0 -0.33321950628E+02 -0.13624289228E+02 -0.26146522100E+02  0.44492981835E+02  0.10566000000E+00 0.  1.
         22    1    1    0    0    0  0.11394271423E+02 -0.24207111396E+02 -0.44720592464E+01  0.27125872840E+02  0.00000000000E+00 0. -1.
</event>
<event>
 5    1  0.6978980E-004  0.9118800E+02  0.7818608E-02  0.1130116E+00
         25   -1    0    0    0    0  0.00000000000E+00  0.00000000000E+00  0.99999998245E-14  0.12500000000E+03  0.12500000000E+03 0.  0.
        -13    1    3    3    0    0  0.15258789543E+02  0.31753441543E+02  0.79952054729E+01  0.36125422942E+02  0.10566000000E+00 0.  1.
         23    2    1    0    0    0 -0.26129812107E+01 -0.20183250560E+02 -0.18849462677E+02  0.97260253837E+02  0.93220509864E+02 0.  0.
         13    1    3    3    0    0 -0.17871770753E+02 -0.51936692103E+02 -0.26844668150E+02  0.61134830895E+02  0.10566000000E+00 0. -1.
         22    1    1    0    0    0  0.26129812107E+01  0.20183250560E+02  0.18849462677E+02  0.27739746163E+02  0.00000000000E+00 0. -1.
</event>
<event>
 5    1  0.6978980E-004  0.9118800E+02  0.7818608E-02  0.1130116E+00
         25   -1    0    0    0    0  0.00000000000E+00  0.00000000000E+00  0.99999998245E-14  0.12500000000E+03  0.12500000000E+03 0.  0.
        -13    1    3    3    0    0 -0.52859222740E+02  0.22426572779E+02  0.22038860644E+01  0.57462308282E+02  0.10566000000E+00 0.  1.
         23    2    1    0    0    0 -0.29454652291E+02 -0.63713145056E+01 -0.19368923002E+01  0.94801957979E+02  0.89863727358E+02 0.  0.
         13    1    3    3    0    0  0.23404570449E+02 -0.28797887285E+02 -0.41407783646E+01  0.37339649697E+02  0.10566000000E+00 0. -1.
         22    1    1    0    0    0  0.29454652291E+02  0.63713145056E+01  0.19368923002E+01  0.30198042021E+02  0.00000000000E+00 0.  1.
</event>
<event>
 5    1  0.6978980E-004  0.9118800E+02  0.7818608E-02  0.1130116E+00
         25   -1    0    0    0    0  0.00000000000E+00  0.00000000000E+00  0.99999998245E-14  0.12500000000E+03  0.12500000000E+03 0.  0.
        -13    1    3    3    0    0 -0.11030818734E+02 -0.32142930373E+02 -0.27185495456E+00  0.33984290548E+02  0.10566000000E+00 0. -1.
         23    2    1    0    0    0  0.76829817023E+01  0.24605857649E+02  0.14343610269E+02  0.95500583158E+02  0.90830313164E+02 0.  0.
         13    1    3    3    0    0  0.18713800436E+02  0.56748788022E+02  0.14615465223E+02  0.61516292610E+02  0.10566000000E+00 0.  1.
         22    1    1    0    0    0 -0.76829817023E+01 -0.24605857649E+02 -0.14343610269E+02  0.29499416842E+02  0.00000000000E+00 0.  1.
</event>
<event>
 5    1  0.6978980E-004  0.9118800E+02  0.7818608E-02  0.1130116E+00
         25   -1    0    0    0    0  0.00000000000E+00  0.00000000000E+00  0.99999998245E-14  0.12500000000E+03  0.12500000000E+03 0.  0.
        -13    1    3    3    0    0  0.30423019832E+02 -0.21276744440E+02 -0.25564487551E+02  0.45075649495E+02  0.10566000000E+00 0. -1.
         23    2    1    0    0    0 -0.19263445341E+02 -0.14702704643E+02 -0.15610128613E+02  0.96174213531E+02  0.91752675071E+02 0.  0.
         13    1    3    3    0    0 -0.49686465173E+02  0.65740397971E+01  0.99543589375E+01  0.51098564036E+02  0.10566000000E+00 0.  1.
         22    1    1    0    0    0  0.19263445341E+02  0.14702704643E+02  0.15610128613E+02  0.28825786469E+02  0.00000000000E+00 0.  1.
</event>
<event>
 5    1  0.6978980E-004  0.9118800E+02  0.7818608E-02  0.1130116E+00
         25   -1    0    0    0    0  0.00000000000E+00  0.00000000000E+00  0.99999998245E-14  0.12500000000E+03  0.12500000000E+03 0.  0.
        -13    1    3    3    0    0 -0.25229954120E+00 -0.18217394877E+02  0.51793655654E+02  0.54904745343E+02  0.10566000000E+00 0.  1.
         23    2    1    0    0    0  0.14732795440E+02  0.78178565812E+01  0.23588646617E+02  0.96110583387E+02  0.91665947041E+02 0.  0.
         13    1    3    3    0    0  0.14985094981E+02  0.26035251458E+02 -0.28205009037E+02  0.41205838044E+02  0.10566000000E+00 0. -1.
         22    1    1    0    0    0 -0.14732795440E+02 -0.78178565812E+01 -0.23588646617E+02  0.28889416613E+02  0.00000000000E+00 0.  1.
</event>
<event>
 5    1  0.6978980E-004  0.9118800E+02  0.7818608E-02  0.1130116E+00
         25   -1    0    0    0    0  0.00000000000E+00  0.00000000000E+00  0.99999998245E-14  0.12500000000E+03  0.12500000000E+03 0.  0.
        -13    1    3    3    0    0 -0.38495344737E+02  0.25824132527E+02  0.32306624704E+02  0.56502270317E+02  0.10566000000E+00 0.  1.
         23    2    1    0    0    0 -0.13067611830E+02  0.25748858264E+02  0.20108032651E+01  0.96055060708E+02  0.91590202407E+02 0.  0.
         13    1    3    3    0    0  0.25427732907E+02 -0.75274262545E-01 -0.30295821439E+02  0.39552790391E+02  0.10566000000E+00 0. -1.
         22    1    1    0    0    0  0.13067611830E+02 -0.25748858264E+02 -0.20108032651E+01  0.28944939292E+02  0.00000000000E+00 0.  1.
</event>
<event>
 5    1  0.6978980E-004  0.9118800E+02  0.7818608E-02  0.1130116E+00
         25   -1    0    0    0    0  0.00000000000E+00  0.00000000000E+00  0.99999998245E-14  0.12500000000E+03  0.12500000000E+03 0.  0.
        -13    1    3    3    0    0  0.31587344638E+02  0.36587869693E+02  0.10982121179E+01  0.48349248017E+02  0.10566000000E+00 0.  1.
         23    2    1    0    0    0 -0.69103867135E+01  0.17606108617E+02  0.21913289777E+02  0.96053138789E+02  0.91587579383E+02 0.  0.
         13    1    3    3    0    0 -0.38497731351E+02 -0.18981761076E+02  0.20815077659E+02  0.47703890772E+02  0.10566000000E+00 0. -1.
         22    1    1    0    0    0  0.69103867135E+01 -0.17606108617E+02 -0.21913289777E+02  0.28946861211E+02  0.00000000000E+00 0. -1.
</event>
<event>
 5    1  0.6978980E-004  0.9118800E+02  0.7818608E-02  0.1130116E+00
         25   -1    0    0    0    0  0.00000000000E+00  0.00000000000E+00  0.99999998245E-14  0.12500000000E+03  0.12500000000E+03 0.  0.
        -13    1    3    3    0    0 -0.14355279714E+02 -0.24705716757E+02 -0.41209242983E+02  0.50146379405E+02  0.10566000000E+00 0.  1.
         23    2    1    0    0    0 -0.30385858987E+02 -0.41140449505E+01 -0.63586547479E+01  0.93684536049E+02  0.88295719106E+02 0.  0.
         13    1    3    3    0    0 -0.16030579274E+02  0.20591671807E+02  0.34850588235E+02  0.43538156645E+02  0.10566000000E+00 0. -1.
         22    1    1    0    0    0  0.30385858987E+02  0.41140449505E+01  0.63586547479E+01  0.31315463951E+02  0.00000000000E+00 0. -1.
</event>
<event>
 5    1  0.6978980E-004  0.9118800E+02  0.7818608E-02  0.1130116E+00
         25   -1    0    0    0    0  0.00000000000E+00  0.00000000000E+00  0.99999998245E-14  0.12500000000E+03  0.12500000000E+03 0.  0.
        -13    1    3    3    0    0  0.27240595193E+01  0.44981914953E+02 -0.15996396020E+02  0.47819337331E+02  0.10566000000E+00 0. -1.
         23    2    1    0    0    0 -0.11849461251E+02  0.18065977214E+02  0.20338180292E+02  0.95327945096E+02  0.90592418414E+02 0.  0.
         13    1    3    3    0    0 -0.14573520770E+02 -0.26915937739E+02  0.36334576312E+02  0.47508607766E+02  0.10566000000E+00 0.  1.
         22    1    1    0    0    0  0.11849461251E+02 -0.18065977214E+02 -0.20338180292E+02  0.29672054904E+02  0.00000000000E+00 0. -1.
</event>
<event>
 5    1  0.6978980E-004  0.9118800E+02  0.7818608E-02  0.1130116E+00
         25   -1    0    0    0    0  0.00000000000E+00  0.00000000000E+00  0.99999998245E-14  0.12500000000E+03  0.12500000000E+03 0.  0.
        -13    1    3    3    0    0  0.58087680696E+02 -0.68022039320E+01  0.30221658927E+01  0.58562729425E+02  0.10566000000E+00 0.  1.
         23    2    1    0    0    0  0.27456720534E+02  0.12492524660E+02  0.16177640894E+01  0.94791527091E+02  0.89849216873E+02 0.  0.
         13    1    3    3    0    0 -0.30630960162E+02  0.19294728592E+02 -0.14044018034E+01  0.36228797666E+02  0.10566000000E+00 0. -1.
         22    1    1    0    0    0 -0.27456720534E+02 -0.12492524660E+02 -0.16177640894E+01  0.30208472909E+02  0.00000000000E+00 0.  1.
</event>
<event>
 5    1  0.6978980E-004  0.9118800E+02  0.7818608E-02  0.1130116E+00
         25   -1    0    0    0    0  0.00000000000E+00  0.00000000000E+00  0.99999998245E-14  0.12500000000E+03  0.12500000000E+03 0.  0.
        -13    1    3    3    0    0  0.19687624246E+02 -0.44235753988E+01 -0.39587492126E+02  0.44433672644E+02  0.10566000000E+00 0.  1.
         23    2    1    0    0    0 -0.25159370548E+02 -0.13514970966E+01 -0.13261789577E+02  0.96527284401E+02  0.92232429764E+02 0.  0.
         13    1    3    3    0    0 -0.44846994794E+02  0.30720783022E+01  0.26325702549E+02  0.52093611757E+02  0.10566000000E+00 0. -1.
         22    1    1    0    0    0  0.25159370548E+02  0.13514970966E+01  0.13261789577E+02  0.28472715599E+02  0.00000000000E+00 0. -1.
</event>
<event>
 5    1  0.6978980E-004  0.9118800E+02  0.7818608E-02  0.1130116E+00
         25   -1    0    0    0    0  0.00000000000E+00  0.00000000000E+00  0.99999998245E-14  0.12500000000E+03  0.12500000000E+03 0.  0.
        -13    1    3    3    0    0  0.60864076600E+02  0.11932274384E+02 -0.64372538774E+00  0.62026127871E+02  0.10566000000E+00 0. -1.
         23    2    1    0    0    0  0.28682239714E+02  0.73278651592E+01  0.48653439641E+01  0.94999332429E+02  0.90137856128E+02 0.  0.
         13    1    3    3    0    0 -0.32181836886E+02 -0.46044092252E+01  0.55090693519E+01  0.32973204558E+02  0.10566000000E+00 0.  1.
         22    1    1    0    0    0 -0.28682239714E+02 -0.73278651592E+01 -0.48653439641E+01  0.30000667571E+02  0.00000000000E+00 0. -1.
</event>
<event>
 5    1  0.6978980E-004  0.9118800E+02  0.7818608E-02  0.1130116E+00
         25   -1    0    0    0    0  0.00000000000E+00  0.00000000000E+00  0.99999998245E-14  0.12500000000E+03  0.12500000000E+03 0.  0.
        -13    1    3    3    0    0  0.10516368389E+02  0.33122343551E+02  0.51068116489E+02  0.61770926269E+02  0.10566000000E+00 0.  1.
         23    2    1    0    0    0  0.82280349645E+01  0.19725735109E+02  0.19800150618E+02  0.95864949812E+02  0.91330375303E+02 0.  0.
         13    1    3    3    0    0 -0.22883334244E+01 -0.13396608442E+02 -0.31267965871E+02  0.34094023543E+02  0.10566000000E+00 0. -1.
         22    1    1    0    0    0 -0.82280349645E+01 -0.19725735109E+02 -0.19800150618E+02  0.29135050188E+02  0.00000000000E+00 0.  1.
</event>
<event>
 5    1  0.6978980E-004  0.9118800E+02  0.7818608E-02  0.1130116E+00
         25   -1    0    0    0    0  0.00000000000E+00  0.00000000000E+00  0.99999998245E-14  0.12500000000E+03  0.12500000000E+03 0.  0.
        -13    1    3    3    0    0 -0.50093900821E+02 -0.22347572514E+02 -0.30133981240E+01  0.54935458758E+02  0.10566000000E+00 0. -1.
         23    2    1    0    0    0 -0.27288798717E+02  0.10677149423E+02 -0.56552365511E+01  0.95156043230E+02  0.90354915791E+02 0.  0.
         13    1    3    3    0    0  0.22805102103E+02  0.33024721937E+02 -0.26418384271E+01  0.40220584472E+02  0.10566000000E+00 0.  1.
         22    1    1    0    0    0  0.27288798717E+02 -0.10677149423E+02  0.56552365511E+01  0.29843956770E+02  0.00000000000E+00 0. -1.
</event>
<event>
 5    1  0.6978980E-004  0.9118800E+02  0.7818608E-02  0.1130116E+00
         25   -1    0    0    0    0  0.00000000000E+00  0.00000000000E+00  0.99999998245E-14  0.12500000000E+03  0.12500000000E+03 0.  0.
        -13    1    3    3    0    0 -0.13267831823E+02  0.42002184457E+02  0.23396687431E+02  0.49876196800E+02  0.10566000000E+00 0.  1.
         23    2    1    0    0    0 -0.86792239734E+01 -0.34138342293E+01  0.27744235319E+02  0.95730121518E+02  0.91145654748E+02 0.  0.
         13    1    3    3    0    0  0.45886078496E+01 -0.45416018687E+02  0.43475478880E+01  0.45853924718E+02  0.10566000000E+00 0. -1.
         22    1    1    0    0    0  0.86792239734E+01  0.34138342293E+01 -0.27744235319E+02  0.29269878482E+02  0.00000000000E+00 0. -1.
</event>
<event>
 5    1  0.6978980E-004  0.9118800E+02  0.7818608E-02  0.1130116E+00
         25   -1    0    0    0    0  0.00000000000E+00  0.00000000000E+00  0.99999998245E-14  0.12500000000E+03  0.12500000000E+03 0.  0.
        -13    1    3    3    0    0  0.26802646959E+02 -0.54400971103E+02 -0.11788687782E+02  0.61780513631E+02  0.10566000000E+00 0. -1.
         23    2    1    0    0    0  0.83589981702E+01 -0.28652647441E+02 -0.13746313388E+01  0.95121300779E+02  0.90306839136E+02 0.  0.
         13    1    3    3    0    0 -0.18443648789E+02  0.25748323661E+02  0.10414056443E+02  0.33340787148E+02  0.10566000000E+00 0.  1.
         22    1    1    0    0    0 -0.83589981702E+01  0.28652647441E+02  0.13746313388E+01  0.29878699221E+02  0.00000000000E+00 0. -1.
</event>
<event>
 5    1  0.6978980E-004  0.9118800E+02  0.7818608E-02  0.1130116E+00
         25   -1    0    0    0    0  0.00000000000E+00  0.00000000000E+00  0.99999998245E-14  0.12500000000E+03  0.12500000000E+03 0.  0.
        -13    1    3    3    0    0  0.28745040364E+02  0.27140298735E+02 -0.12774843154E+02  0.41546130296E+02  0.10566000000E+00 0.  1.
         23    2    1    0    0    0 -0.23325876074E+02  0.17023093389E+02 -0.91216294435E+01  0.94716566792E+02  0.89744870037E+02 0.  0.
         13    1    3    3    0    0 -0.52070916438E+02 -0.10117205347E+02  0.36532137105E+01  0.53170436496E+02  0.10566000000E+00 0. -1.
         22    1    1    0    0    0  0.23325876074E+02 -0.17023093389E+02  0.91216294435E+01  0.30283433208E+02  0.00000000000E+00 0. -1.
</event>
<event>
 5    1  0.6978980E-004  0.9118800E+02  0.7818608E-02  0.1130116E+00
         25   -1    0    0    0    0  0.00000000000E+00  0.00000000000E+00  0.99999998245E-14  0.12500000000E+03  0.12500000000E+03 0.  0.
        -13    1    3    3    0    0  0.96832952090E+01 -0.42785800082E+02  0.25590949359E+02  0.50786796984E+02  0.10566000000E+00 0. -1.
         23    2    1    0    0    0  0.25208001145E+02 -0.19960003502E+01  0.14627429726E+02  0.95787176797E+02  0.91223868583E+02 0.  0.
         13    1    3    3    0    0  0.15524705936E+02  0.40789799732E+02 -0.10963519633E+02  0.45000379813E+02  0.10566000000E+00 0.  1.
         22    1    1    0    0    0 -0.25208001145E+02  0.19960003502E+01 -0.14627429726E+02  0.29212823203E+02  0.00000000000E+00 0. -1.
</event>
<event>
 5    1  0.6978980E-004  0.9118800E+02  0.7818608E-02  0.1130116E+00
         25   -1    0    0    0    0  0.00000000000E+00  0.00000000000E+00  0.99999998245E-14  0.12500000000E+03  0.12500000000E+03 0.  0.
        -13    1    3    3    0    0 -0.39200693193E+02  0.22567399153E+01 -0.15290785610E+02  0.42137946206E+02  0.10566000000E+00 0.  1.
         23    2    1    0    0    0 -0.50007771569E+01 -0.20931748499E+02  0.19351195515E+02  0.96058427215E+02  0.91594796816E+02 0.  0.
         13    1    3    3    0    0  0.34199916036E+02 -0.23188488415E+02  0.34641981125E+02  0.53920481008E+02  0.10566000000E+00 0. -1.
         22    1    1    0    0    0  0.50007771569E+01  0.20931748499E+02 -0.19351195515E+02  0.28941572785E+02  0.00000000000E+00 0. -1.
</event>
<event>
 5    1  0.6978980E-004  0.9118800E+02  0.7818608E-02  0.1130116E+00
         25   -1    0    0    0    0  0.00000000000E+00  0.00000000000E+00  0.99999998245E-14  0.12500000000E+03  0.12500000000E+03 0.  0.
        -13    1    3    3    0    0  0.98241137955E+01 -0.69743326473E+01 -0.45877223699E+02  0.47432956329E+02  0.10566000000E+00 0.  1.
         23    2    1    0    0    0  0.29379006248E+02 -0.40402214469E+01 -0.23376514101E+01  0.95252495709E+02  0.90488252979E+02 0.  0.
         13    1    3    3    0    0  0.19554892452E+02  0.29341112003E+01  0.43539572289E+02  0.47819539380E+02  0.10566000000E+00 0. -1.
         22    1    1    0    0    0 -0.29379006248E+02  0.40402214469E+01  0.23376514101E+01  0.29747504291E+02  0.00000000000E+00 0. -1.
</event>
<event>
 5    1  0.6978980E-004  0.9118800E+02  0.7818608E-02  0.1130116E+00
         25   -1    0    0    0    0  0.00000000000E+00  0.00000000000E+00  0.99999998245E-14  0.12500000000E+03  0.12500000000E+03 0.  0.
        -13    1    3    3    0    0 -0.84703631898E+01 -0.17884285900E+02 -0.43162016920E+02  0.47482266199E+02  0.10566000000E+00 0. -1.
         23    2    1    0    0    0 -0.22308401204E+02  0.15334325768E+02 -0.10883068992E+02  0.95823853892E+02  0.91274111735E+02 0.  0.
         13    1    3    3    0    0 -0.13838038015E+02  0.33218611668E+02  0.32278947929E+02  0.48341587693E+02  0.10566000000E+00 0.  1.
         22    1    1    0    0    0  0.22308401204E+02 -0.15334325768E+02  0.10883068992E+02  0.29176146108E+02  0.00000000000E+00 0.  1.
</event>
<event>
 5    1  0.6978980E-004  0.9118800E+02  0.7818608E-02  0.1130116E+00
         25   -1    0    0    0    0  0.00000000000E+00  0.00000000000E+00  0.99999998245E-14  0.12500000000E+03  0.12500000000E+03 0.  0.
        -13    1    3    3    0    0  0.42105716593E+01 -0.42366563961E+02  0.12771760655E+02  0.44449788411E+02  0.10566000000E+00 0. -1.
         23    2    1    0    0    0  0.17914532260E+02  0.67177020597E+01  0.21572318082E+02  0.96165595298E+02  0.91740933201E+02 0.  0.
         13    1    3    3    0    0  0.13703960601E+02  0.49084266021E+02  0.88005574272E+01  0.51715806887E+02  0.10566000000E+00 0.  1.
         22    1    1    0    0    0 -0.17914532260E+02 -0.67177020597E+01 -0.21572318082E+02  0.28834404702E+02  0.00000000000E+00 0.  1.
</event>
<event>
 5    1  0.6978980E-004  0.9118800E+02  0.7818608E-02  0.1130116E+00
         25   -1    0    0    0    0  0.00000000000E+00  0.00000000000E+00  0.99999998245E-14  0.12500000000E+03  0.12500000000E+03 0.  0.
        -13    1    3    3    0    0  0.23348684472E+02  0.96628873110E+01 -0.24071832740E+02  0.34899810218E+02  0.10566000000E+00 0. -1.
         23    2    1    0    0    0 -0.36111715059E+01 -0.96456440819E+01  0.27174274469E+02  0.95939370235E+02  0.91432174637E+02 0.  0.
         13    1    3    3    0    0 -0.26959855977E+02 -0.19308531393E+02  0.51246107210E+02  0.61039560017E+02  0.10566000000E+00 0.  1.
         22    1    1    0    0    0  0.36111715059E+01  0.96456440819E+01 -0.27174274469E+02  0.29060629765E+02  0.00000000000E+00 0.  1.
</event>
<event>
 5    1  0.6978980E-004  0.9118800E+02  0.7818608E-02  0.1130116E+00
         25   -1    0    0    0    0  0.00000000000E+00  0.00000000000E+00  0.99999998245E-14  0.12500000000E+03  0.12500000000E+03 0.  0.
        -13    1    3    3    0    0 -0.28201064061E+02  0.21654919505E+02  0.20387147177E+02  0.40986369527E+02  0.10566000000E+00 0.  1.
         23    2    1    0    0    0  0.13460603283E+02 -0.15722622710E+02  0.18890803014E+02  0.96977667046E+02  0.92840814094E+02 0.  0.
         13    1    3    3    0    0  0.41661667344E+02 -0.37377542216E+02 -0.14963441628E+01  0.55991297519E+02  0.10566000000E+00 0. -1.
         22    1    1    0    0    0 -0.13460603283E+02  0.15722622710E+02 -0.18890803014E+02  0.28022332954E+02  0.00000000000E+00 0. -1.
</event>
<event>
 5    1  0.6978980E-004  0.9118800E+02  0.7818608E-02  0.1130116E+00
         25   -1    0    0    0    0  0.00000000000E+00  0.00000000000E+00  0.99999998245E-14  0.12500000000E+03  0.12500000000E+03 0.  0.
        -13    1    3    3    0    0 -0.33928698080E+01  0.37224291730E+02 -0.29123835883E+02  0.47385318833E+02  0.10566000000E+00 0. -1.
         23    2    1    0    0    0  0.13423855389E+02 -0.77974821069E+01 -0.24934591377E+02  0.95627658115E+02  0.91005024744E+02 0.  0.
         13    1    3    3    0    0  0.16816725197E+02 -0.45021773837E+02  0.41892445059E+01  0.48242339282E+02  0.10566000000E+00 0.  1.
         22    1    1    0    0    0 -0.13423855389E+02  0.77974821069E+01  0.24934591377E+02  0.29372341885E+02  0.00000000000E+00 0. -1.
</event>
<event>
 5    1  0.6978980E-004  0.9118800E+02  0.7818608E-02  0.1130116E+00
         25   -1    0    0    0    0  0.00000000000E+00  0.00000000000E+00  0.99999998245E-14  0.12500000000E+03  0.12500000000E+03 0.  0.
        -13    1    3    3    0    0 -0.31507665923E+02  0.89902427482E+01  0.47466152090E+02  0.57676721776E+02  0.10566000000E+00 0. -1.
         23    2    1    0    0    0  0.41352566519E+01  0.61184375641E+01  0.22580884209E+02  0.10124222322E+03  0.98415221411E+02 0.  0.
         13    1    3    3    0    0  0.35642922575E+02 -0.28718051841E+01 -0.24885267881E+02  0.43565501446E+02  0.10566000000E+00 0.  1.
         22    1    1    0    0    0 -0.41352566519E+01 -0.61184375641E+01 -0.22580884209E+02  0.23757776778E+02  0.00000000000E+00 0. -1.
</event>
<event>
 5    1  0.6978980E-004  0.9118800E+02  0.7818608E-02  0.1130116E+00
         25   -1    0    0    0    0  0.00000000000E+00  0.00000000000E+00  0.99999998245E-14  0.12500000000E+03  0.12500000000E+03 0.  0.
        -13    1    3    3    0    0  0.49367873156E+01 -0.98036905424E+01 -0.33152296359E+02  0.34922344354E+02  0.10566000000E+00 0. -1.
         23    2    1    0    0    0 -0.25496766836E+02  0.13230156458E+02  0.11846643760E+02  0.93928065278E+02  0.88639812271E+02 0.  0.
         13    1    3    3    0    0 -0.30433554152E+02  0.23033847000E+02  0.44998940118E+02  0.59005720924E+02  0.10566000000E+00 0.  1.
         22    1    1    0    0    0  0.25496766836E+02 -0.13230156458E+02 -0.11846643760E+02  0.31071934722E+02  0.00000000000E+00 0.  1.
</event>
<event>
 5    1  0.6978980E-004  0.9118800E+02  0.7818608E-02  0.1130116E+00
         25   -1    0    0    0    0  0.00000000000E+00  0.00000000000E+00  0.99999998245E-14  0.12500000000E+03  0.12500000000E+03 0.  0.
        -13    1    3    3    0    0  0.19077571457E+02 -0.46516899240E+02  0.32074968517E+02  0.59637156346E+02  0.10566000000E+00 0.  1.
         23    2    1    0    0    0  0.22867479863E+00 -0.16938732945E+02  0.23992001604E+02  0.95630132671E+02  0.91008423609E+02 0.  0.
         13    1    3    3    0    0 -0.18848896658E+02  0.29578166295E+02 -0.80829669132E+01  0.35992976325E+02  0.10566000000E+00 0. -1.
         22    1    1    0    0    0 -0.22867479863E+00  0.16938732945E+02 -0.23992001604E+02  0.29369867329E+02  0.00000000000E+00 0.  1.
</event>
<event>
 5    1  0.6978980E-004  0.9118800E+02  0.7818608E-02  0.1130116E+00
         25   -1    0    0    0    0  0.00000000000E+00  0.00000000000E+00  0.99999998245E-14  0.12500000000E+03  0.12500000000E+03 0.  0.
        -13    1    3    3    0    0 -0.50318654993E+02 -0.10588977742E+02  0.19507930142E+02  0.54996945300E+02  0.10566000000E+00 0. -1.
         23    2    1    0    0    0 -0.13304403986E+02 -0.94908297576E+01  0.27621354132E+02  0.92906040771E+02  0.87186639991E+02 0.  0.
         13    1    3    3    0    0  0.37014251007E+02  0.10981479841E+01  0.81134239896E+01  0.37909095471E+02  0.10566000000E+00 0.  1.
         22    1    1    0    0    0  0.13304403986E+02  0.94908297576E+01 -0.27621354132E+02  0.32093959229E+02  0.00000000000E+00 0. -1.
</event>
<event>
 5    1  0.6978980E-004  0.9118800E+02  0.7818608E-02  0.1130116E+00
         25   -1    0    0    0    0  0.00000000000E+00  0.00000000000E+00  0.99999998245E-14  0.12500000000E+03  0.12500000000E+03 0.  0.
        -13    1    3    3    0    0  0.87972674963E+01  0.35296150667E+02 -0.14385597150E+02  0.39117345727E+02  0.10566000000E+00 0.  1.
         23    2    1    0    0    0  0.19427365337E+02 -0.77194060924E+01  0.20658215424E+02  0.95609974160E+02  0.90980731697E+02 0.  0.
         13    1    3    3    0    0  0.10630097841E+02 -0.43015556760E+02  0.35043812575E+02  0.56492628433E+02  0.10566000000E+00 0. -1.
         22    1    1    0    0    0 -0.19427365337E+02  0.77194060924E+01 -0.20658215424E+02  0.29390025840E+02  0.00000000000E+00 0. -1.
</event>
<event>
 5    1  0.6978980E-004  0.9118800E+02  0.7818608E-02  0.1130116E+00
         25   -1    0    0    0    0  0.00000000000E+00  0.00000000000E+00  0.99999998245E-14  0.12500000000E+03  0.12500000000E+03 0.  0.
        -13    1    3    3    0    0 -0.13119265651E+02 -0.22042355070E+02  0.48095683614E+02  0.54508591017E+02  0.10566000000E+00 0. -1.
         23    2    1    0    0    0 -0.25253660495E+02 -0.15363485940E+01  0.14061571210E+02  0.96054611416E+02  0.91589589222E+02 0.  0.
         13    1    3    3    0    0 -0.12134394844E+02  0.20506006476E+02 -0.34034112404E+02  0.41546020399E+02  0.10566000000E+00 0.  1.
         22    1    1    0    0    0  0.25253660495E+02  0.15363485940E+01 -0.14061571210E+02  0.28945388584E+02  0.00000000000E+00 0. -1.
</event>
<event>
 5    1  0.6978980E-004  0.9118800E+02  0.7818608E-02  0.1130116E+00
         25   -1    0    0    0    0  0.00000000000E+00  0.00000000000E+00  0.99999998245E-14  0.12500000000E+03  0.12500000000E+03 0.  0.
        -13    1    3    3    0    0 -0.17172754395E+02  0.20868758340E+01 -0.36495244623E+02  0.40387777710E+02  0.10566000000E+00 0. -1.
         23    2    1    0    0    0 -0.20440206139E+02  0.78935052701E+01  0.18827761939E+02  0.96110658158E+02  0.91666049001E+02 0.  0.
         13    1    3    3    0    0 -0.32674517438E+01  0.58066294362E+01  0.55323006562E+02  0.55722880448E+02  0.10566000000E+00 0.  1.
         22    1    1    0    0    0  0.20440206139E+02 -0.78935052701E+01 -0.18827761939E+02  0.28889341842E+02  0.00000000000E+00 0.  1.
</event>
<event>
 5    1  0.6978980E-004  0.9118800E+02  0.7818608E-02  0.1130116E+00
         25   -1    0    0    0    0  0.00000000000E+00  0.00000000000E+00  0.99999998245E-14  0.12500000000E+03  0.12500000000E+03 0.  0.
        -13    1    3    3    0    0 -0.56917552277E+01  0.32995637532E+02 -0.18028144144E+02  0.38028059628E+02  0.10566000000E+00 0. -1.
         23    2    1    0    0    0  0.25674765225E+02 -0.24609479835E+01  0.14448012399E+02  0.95436595314E+02  0.90742210842E+02 0.  0.
         13    1    3    3    0    0  0.31366520453E+02 -0.35456585516E+02  0.32476156543E+02  0.57408535686E+02  0.10566000000E+00 0.  1.
         22    1    1    0    0    0 -0.25674765225E+02  0.24609479835E+01 -0.14448012399E+02  0.29563404686E+02  0.00000000000E+00 0.  1.
</event>
<event>
 5    1  0.6978980E-004  0.9118800E+02  0.7818608E-02  0.1130116E+00
         25   -1    0    0    0    0  0.00000000000E+00  0.00000000000E+00  0.99999998245E-14  0.12500000000E+03  0.12500000000E+03 0.  0.
        -13    1    3    3    0    0  0.32933038019E+02  0.10320414898E+02 -0.36067013291E+02  0.49919300562E+02  0.10566000000E+00 0.  1.
         23    2    1    0    0    0  0.13117880814E+02  0.26914471777E+02  0.92335138487E+00  0.95044697199E+02  0.90200744453E+02 0.  0.
         13    1    3    3    0    0 -0.19815157205E+02  0.16594056879E+02  0.36990364676E+02  0.45125396637E+02  0.10566000000E+00 0. -1.
         22    1    1    0    0    0 -0.13117880814E+02 -0.26914471777E+02 -0.92335138487E+00  0.29955302801E+02  0.00000000000E+00 0. -1.
</event>
<event>
 5    1  0.6978980E-004  0.9118800E+02  0.7818608E-02  0.1130116E+00
         25   -1    0    0    0    0  0.00000000000E+00  0.00000000000E+00  0.99999998245E-14  0.12500000000E+03  0.12500000000E+03 0.  0.
        -13    1    3    3    0    0  0.11535578458E+02  0.47199717813E+02  0.25235841220E+02  0.54751637219E+02  0.10566000000E+00 0. -1.
         23    2    1    0    0    0 -0.91529069416E+00  0.29665484861E+02 -0.79297185341E+01  0.94279336186E+02  0.89133798565E+02 0.  0.
         13    1    3    3    0    0 -0.12450869152E+02 -0.17534232952E+02 -0.33165559754E+02  0.39527698968E+02  0.10566000000E+00 0.  1.
         22    1    1    0    0    0  0.91529069416E+00 -0.29665484861E+02  0.79297185341E+01  0.30720663814E+02  0.00000000000E+00 0. -1.
</event>
<event>
 5    1  0.6978980E-004  0.9118800E+02  0.7818608E-02  0.1130116E+00
         25   -1    0    0    0    0  0.00000000000E+00  0.00000000000E+00  0.99999998245E-14  0.12500000000E+03  0.12500000000E+03 0.  0.
        -13    1    3    3    0    0  0.32972217447E+02  0.39720121962E+02  0.22200430055E+02  0.56193642618E+02  0.10566000000E+00 0.  1.
         23    2    1    0    0    0  0.25283095859E+01  0.27933997703E+02 -0.20738001824E+01  0.96875256015E+02  0.92702826299E+02 0.  0.
         13    1    3    3    0    0 -0.30443907861E+02 -0.11786124259E+02 -0.24274230238E+02  0.40681613397E+02  0.10566000000E+00 0. -1.
         22    1    1    0    0    0 -0.25283095859E+01 -0.27933997703E+02  0.20738001824E+01  0.28124743985E+02  0.00000000000E+00 0.  1.
</event>
<event>
 5    1  0.6978980E-004  0.9118800E+02  0.7818608E-02  0.1130116E+00
         25   -1    0    0    0    0  0.00000000000E+00  0.00000000000E+00  0.99999998245E-14  0.12500000000E+03  0.12500000000E+03 0.  0.
        -13    1    3    3    0    0 -0.32870728535E+02 -0.20271672656E+02 -0.48322940117E+01  0.38920274102E+02  0.10566000000E+00 0.  1.
         23    2    1    0    0    0  0.24387220452E+02 -0.13320225071E+02 -0.58289858918E+01  0.96607360217E+02  0.92340890478E+02 0.  0.
         13    1    3    3    0    0  0.57257948987E+02  0.69514475851E+01 -0.99669188016E+00  0.57687086115E+02  0.10566000000E+00 0. -1.
         22    1    1    0    0    0 -0.24387220452E+02  0.13320225071E+02  0.58289858918E+01  0.28392639783E+02  0.00000000000E+00 0. -1.
</event>
<event>
 5    1  0.6978980E-004  0.9118800E+02  0.7818608E-02  0.1130116E+00
         25   -1    0    0    0    0  0.00000000000E+00  0.00000000000E+00  0.99999998245E-14  0.12500000000E+03  0.12500000000E+03 0.  0.
        -13    1    3    3    0    0 -0.22576730573E+02  0.12512207368E+02 -0.52351162042E+02  0.58368822395E+02  0.10566000000E+00 0.  1.
         23    2    1    0    0    0 -0.15289227595E+02 -0.95195596142E+01 -0.22466868785E+02  0.96205162117E+02  0.91794828445E+02 0.  0.
         13    1    3    3    0    0  0.72875029782E+01 -0.22031766983E+02  0.29884293257E+02  0.37836339721E+02  0.10566000000E+00 0. -1.
         22    1    1    0    0    0  0.15289227595E+02  0.95195596142E+01  0.22466868785E+02  0.28794837883E+02  0.00000000000E+00 0.  1.
</event>
<event>
 5    1  0.6978980E-004  0.9118800E+02  0.7818608E-02  0.1130116E+00
         25   -1    0    0    0    0  0.00000000000E+00  0.00000000000E+00  0.99999998245E-14  0.12500000000E+03  0.12500000000E+03 0.  0.
        -13    1    3    3    0    0  0.39736217689E+02 -0.10561028094E+02  0.14569673476E+02  0.43620968122E+02  0.10566000000E+00 0. -1.
         23    2    1    0    0    0  0.44849375601E+01  0.23982434912E+02 -0.98522125077E+01  0.98687684623E+02  0.95115304529E+02 0.  0.
         13    1    3    3    0    0 -0.35251280129E+02  0.34543463005E+02 -0.24421885984E+02  0.55066716501E+02  0.10566000000E+00 0.  1.
         22    1    1    0    0    0 -0.44849375601E+01 -0.23982434912E+02  0.98522125077E+01  0.26312315377E+02  0.00000000000E+00 0. -1.
</event>
<event>
 5    1  0.6978980E-004  0.9118800E+02  0.7818608E-02  0.1130116E+00
         25   -1    0    0    0    0  0.00000000000E+00  0.00000000000E+00  0.99999998245E-14  0.12500000000E+03  0.12500000000E+03 0.  0.
        -13    1    3    3    0    0 -0.29440603859E+02 -0.11251672405E+02  0.50050532127E+02  0.59147410913E+02  0.10566000000E+00 0.  1.
         23    2    1    0    0    0 -0.17448371258E+00 -0.12219523427E+02  0.22716524278E+02  0.99204890529E+02  0.95792602179E+02 0.  0.
         13    1    3    3    0    0  0.29266120146E+02 -0.96785102124E+00 -0.27334007849E+02  0.40057479615E+02  0.10566000000E+00 0. -1.
         22    1    1    0    0    0  0.17448371258E+00  0.12219523427E+02 -0.22716524278E+02  0.25795109471E+02  0.00000000000E+00 0.  1.
</event>
<event>
 5    1  0.6978980E-004  0.9118800E+02  0.7818608E-02  0.1130116E+00
         25   -1    0    0    0    0  0.00000000000E+00  0.00000000000E+00  0.99999998245E-14  0.12500000000E+03  0.12500000000E+03 0.  0.
        -13    1    3    3    0    0 -0.28562753080E+01  0.18456444816E+02  0.43421842085E+02  0.47268025112E+02  0.10566000000E+00 0. -1.
         23    2    1    0    0    0  0.27997878619E+02  0.69685059098E+01  0.92945620720E+01  0.94687788502E+02  0.89704777607E+02 0.  0.
         13    1    3    3    0    0  0.30854153927E+02 -0.11487938906E+02 -0.34127280013E+02  0.47419763390E+02  0.10566000000E+00 0.  1.
         22    1    1    0    0    0 -0.27997878619E+02 -0.69685059098E+01 -0.92945620720E+01  0.30312211498E+02  0.00000000000E+00 0.  1.
</event>
<event>
 5    1  0.6978980E-004  0.9118800E+02  0.7818608E-02  0.1130116E+00
         25   -1    0    0    0    0  0.00000000000E+00  0.00000000000E+00  0.99999998245E-14  0.12500000000E+03  0.12500000000E+03 0.  0.
        -13    1    3    3    0    0  0.32925816501E+02  0.42857813157E+02  0.14492365295E+02  0.55954815313E+02  0.10566000000E+00 0.  1.
         23    2    1    0    0    0  0.24452482669E+02  0.13048439855E+02 -0.10082981872E+02  0.95506742893E+02  0.90838789751E+02 0.  0.
         13    1    3    3    0    0 -0.84733338322E+01 -0.29809373302E+02 -0.24575347167E+02  0.39551927580E+02  0.10566000000E+00 0. -1.
         22    1    1    0    0    0 -0.24452482669E+02 -0.13048439855E+02  0.10082981872E+02  0.29493257107E+02  0.00000000000E+00 0.  1.
</event>
<event>
 5    1  0.6978980E-004  0.9118800E+02  0.7818608E-02  0.1130116E+00
         25   -1    0    0    0    0  0.00000000000E+00  0.00000000000E+00  0.99999998245E-14  0.12500000000E+03  0.12500000000E+03 0.  0.
        -13    1    3    3    0    0 -0.77316082098E+01  0.29872455776E+02  0.75616593415E+01  0.31769973806E+02  0.10566000000E+00 0. -1.
         23    2    1    0    0    0  0.14445244127E+02 -0.24301397538E+02 -0.13093347308E+02  0.93844603295E+02  0.88522035808E+02 0.  0.
         13    1    3    3    0    0  0.22176852337E+02 -0.54173853314E+02 -0.20655006649E+02  0.62074629488E+02  0.10566000000E+00 0.  1.
         22    1    1    0    0    0 -0.14445244127E+02  0.24301397538E+02  0.13093347308E+02  0.31155396705E+02  0.00000000000E+00 0.  1.
</event>
<event>
 5    1  0.6978980E-004  0.9118800E+02  0.7818608E-02  0.1130116E+00
         25   -1    0    0    0    0  0.00000000000E+00  0.00000000000E+00  0.99999998245E-14  0.12500000000E+03  0.12500000000E+03 0.  0.
        -13    1    3    3    0    0  0.31397086427E+02  0.74433201659E+01 -0.17771837902E+02  0.36837880472E+02  0.10566000000E+00 0. -1.
         23    2    1    0    0    0 -0.58072400779E+01 -0.16369947612E+02  0.22474434029E+02  0.96595785399E+02  0.92325220551E+02 0.  0.
         13    1    3    3    0    0 -0.37204326505E+02 -0.23813267778E+02  0.40246271932E+02  0.59757904928E+02  0.10566000000E+00 0.  1.
         22    1    1    0    0    0  0.58072400779E+01  0.16369947612E+02 -0.22474434029E+02  0.28404214601E+02  0.00000000000E+00 0.  1.
</event>
<event>
 5    1  0.6978980E-004  0.9118800E+02  0.7818608E-02  0.1130116E+00
         25   -1    0    0    0    0  0.00000000000E+00  0.00000000000E+00  0.99999998245E-14  0.12500000000E+03  0.12500000000E+03 0.  0.
        -13    1    3    3    0    0  0.38739930118E+02 -0.96420755396E+01 -0.98347464120E+01  0.41115510544E+02  0.10566000000E+00 0.  1.
         23    2    1    0    0    0 -0.16591304740E+01  0.25257286229E+02 -0.16303683581E+02  0.94891972501E+02  0.89988850005E+02 0.  0.
         13    1    3    3    0    0 -0.40399060592E+02  0.34899361768E+02 -0.64689371687E+01  0.53776461957E+02  0.10566000000E+00 0. -1.
         22    1    1    0    0    0  0.16591304740E+01 -0.25257286229E+02  0.16303683581E+02  0.30108027499E+02  0.00000000000E+00 0. -1.
</event>
<event>
 5    1  0.6978980E-004  0.9118800E+02  0.7818608E-02  0.1130116E+00
         25   -1    0    0    0    0  0.00000000000E+00  0.00000000000E+00  0.99999998245E-14  0.12500000000E+03  0.12500000000E+03 0.  0.
        -13    1    3    3    0    0  0.37917833525E+02 -0.93396600874E+01 -0.22409495011E+01  0.39115525926E+02  0.10566000000E+00 0.  1.
         23    2    1    0    0    0 -0.13794200111E+02 -0.18788218973E+01  0.23749776289E+02  0.97470710103E+02  0.93502286207E+02 0.  0.
         13    1    3    3    0    0 -0.51712033636E+02  0.74608381901E+01  0.25990725790E+02  0.58355184177E+02  0.10566000000E+00 0. -1.
         22    1    1    0    0    0  0.13794200111E+02  0.18788218973E+01 -0.23749776289E+02  0.27529289897E+02  0.00000000000E+00 0. -1.
</event>
<event>
 5    1  0.6978980E-004  0.9118800E+02  0.7818608E-02  0.1130116E+00
         25   -1    0    0    0    0  0.00000000000E+00  0.00000000000E+00  0.99999998245E-14  0.12500000000E+03  0.12500000000E+03 0.  0.
        -13    1    3    3    0    0  0.79454592976E+01  0.39382751433E+01  0.58626062493E+02  0.59293057790E+02  0.10566000000E+00 0. -1.
         23    2    1    0    0    0  0.55760191487E+01 -0.12163326265E+02  0.27509376382E+02  0.94409081669E+02  0.89315566490E+02 0.  0.
         13    1    3    3    0    0 -0.23694401489E+01 -0.16101601408E+02 -0.31116686111E+02  0.35116023879E+02  0.10566000000E+00 0.  1.
         22    1    1    0    0    0 -0.55760191487E+01  0.12163326265E+02 -0.27509376382E+02  0.30590918331E+02  0.00000000000E+00 0. -1.
</event>
<event>
 5    1  0.6978980E-004  0.9118800E+02  0.7818608E-02  0.1130116E+00
         25   -1    0    0    0    0  0.00000000000E+00  0.00000000000E+00  0.99999998245E-14  0.12500000000E+03  0.12500000000E+03 0.  0.
        -13    1    3    3    0    0 -0.31235402552E+02  0.51075298897E+02 -0.91913477386E+01  0.60570855759E+02  0.10566000000E+00 0. -1.
         23    2    1    0    0    0 -0.22865436164E+02  0.20117686430E+02  0.18511963745E+01  0.94488094024E+02  0.89426078445E+02 0.  0.
         13    1    3    3    0    0  0.83699663879E+01 -0.30957612467E+02  0.11042544113E+02  0.33917238265E+02  0.10566000000E+00 0.  1.
         22    1    1    0    0    0  0.22865436164E+02 -0.20117686430E+02 -0.18511963745E+01  0.30511905976E+02  0.00000000000E+00 0. -1.
</event>
<event>
 5    1  0.6978980E-004  0.9118800E+02  0.7818608E-02  0.1130116E+00
         25   -1    0    0    0    0  0.00000000000E+00  0.00000000000E+00  0.99999998245E-14  0.12500000000E+03  0.12500000000E+03 0.  0.
        -13    1    3    3    0    0  0.47364469028E+02  0.32491951604E+02  0.24425129675E+02  0.62415686883E+02  0.10566000000E+00 0.  1.
         23    2    1    0    0    0  0.22631041397E+02  0.16034200183E+02  0.93465571327E+01  0.95731967260E+02  0.91148186021E+02 0.  0.
         13    1    3    3    0    0 -0.24733427631E+02 -0.16457751421E+02 -0.15078572543E+02  0.33316280377E+02  0.10566000000E+00 0. -1.
         22    1    1    0    0    0 -0.22631041397E+02 -0.16034200183E+02 -0.93465571327E+01  0.29268032740E+02  0.00000000000E+00 0.  1.
</event>
<event>
 5    1  0.6978980E-004  0.9118800E+02  0.7818608E-02  0.1130116E+00
         25   -1    0    0    0    0  0.00000000000E+00  0.00000000000E+00  0.99999998245E-14  0.12500000000E+03  0.12500000000E+03 0.  0.
        -13    1    3    3    0    0 -0.56283404207E+02  0.16877568995E+02  0.65244038756E+01  0.59120664190E+02  0.10566000000E+00 0. -1.
         23    2    1    0    0    0 -0.31751451751E+02 -0.14502793388E+01  0.13401154067E+02  0.90505813117E+02  0.83674687207E+02 0.  0.
         13    1    3    3    0    0  0.24531952457E+02 -0.18327848333E+02  0.68767501912E+01  0.31385148926E+02  0.10566000000E+00 0.  1.
         22    1    1    0    0    0  0.31751451751E+02  0.14502793388E+01 -0.13401154067E+02  0.34494186883E+02  0.00000000000E+00 0. -1.
</event>
<event>
 5    1  0.6978980E-004  0.9118800E+02  0.7818608E-02  0.1130116E+00
         25   -1    0    0    0    0  0.00000000000E+00  0.00000000000E+00  0.99999998245E-14  0.12500000000E+03  0.12500000000E+03 0.  0.
        -13    1    3    3    0    0  0.17915172128E+02 -0.30216109173E+01  0.53853005406E+02  0.56835208103E+02  0.10566000000E+00 0.  1.
         23    2    1    0    0    0  0.40729336953E+01  0.16959798951E+02  0.23953653710E+02  0.95368916736E+02  0.90648933717E+02 0.  0.
         13    1    3    3    0    0 -0.13842238433E+02  0.19981409868E+02 -0.29899351695E+02  0.38533708632E+02  0.10566000000E+00 0. -1.
         22    1    1    0    0    0 -0.40729336953E+01 -0.16959798951E+02 -0.23953653710E+02  0.29631083264E+02  0.00000000000E+00 0.  1.
</event>
<event>
 5    1  0.6978980E-004  0.9118800E+02  0.7818608E-02  0.1130116E+00
         25   -1    0    0    0    0  0.00000000000E+00  0.00000000000E+00  0.99999998245E-14  0.12500000000E+03  0.12500000000E+03 0.  0.
        -13    1    3    3    0    0 -0.16219889397E+01 -0.45384959748E+02  0.12526948886E+02  0.47110094798E+02  0.10566000000E+00 0.  1.
         23    2    1    0    0    0 -0.20752732137E+02 -0.27229117397E+01  0.21802915829E+02  0.94776544239E+02  0.89828370016E+02 0.  0.
         13    1    3    3    0    0 -0.19130743197E+02  0.42662048008E+02  0.92759669431E+01  0.47666449441E+02  0.10566000000E+00 0. -1.
         22    1    1    0    0    0  0.20752732137E+02  0.27229117397E+01 -0.21802915829E+02  0.30223455761E+02  0.00000000000E+00 0.  1.
</event>
<event>
 5    1  0.6978980E-004  0.9118800E+02  0.7818608E-02  0.1130116E+00
         25   -1    0    0    0    0  0.00000000000E+00  0.00000000000E+00  0.99999998245E-14  0.12500000000E+03  0.12500000000E+03 0.  0.
        -13    1    3    3    0    0 -0.57105128099E+01  0.24242867967E+02 -0.54999775385E+02  0.60376428018E+02  0.10566000000E+00 0. -1.
         23    2    1    0    0    0 -0.12502982148E+02  0.54154076275E+01 -0.26496784917E+02  0.95205188148E+02  0.90422878947E+02 0.  0.
         13    1    3    3    0    0 -0.67924693385E+01 -0.18827460339E+02  0.28502990468E+02  0.34828760130E+02  0.10566000000E+00 0.  1.
         22    1    1    0    0    0  0.12502982148E+02 -0.54154076275E+01  0.26496784917E+02  0.29794811852E+02  0.00000000000E+00 0. -1.
</event>
<event>
 5    1  0.6978980E-004  0.9118800E+02  0.7818608E-02  0.1130116E+00
         25   -1    0    0    0    0  0.00000000000E+00  0.00000000000E+00  0.99999998245E-14  0.12500000000E+03  0.12500000000E+03 0.  0.
        -13    1    3    3    0    0 -0.30514094628E+01 -0.13691143612E+02 -0.55033044600E+02  0.56792655115E+02  0.10566000000E+00 0.  1.
         23    2    1    0    0    0 -0.18339278888E+02  0.17463669503E+01 -0.28150091750E+02  0.91357666353E+02  0.84937721822E+02 0.  0.
         13    1    3    3    0    0 -0.15287869425E+02  0.15437510563E+02  0.26882952850E+02  0.34565011238E+02  0.10566000000E+00 0. -1.
         22    1    1    0    0    0  0.18339278888E+02 -0.17463669503E+01  0.28150091750E+02  0.33642333647E+02  0.00000000000E+00 0.  1.
</event>
<event>
 5    1  0.6978980E-004  0.9118800E+02  0.7818608E-02  0.1130116E+00
         25   -1    0    0    0    0  0.00000000000E+00  0.00000000000E+00  0.99999998245E-14  0.12500000000E+03  0.12500000000E+03 0.  0.
        -13    1    3    3    0    0 -0.45666279608E+02  0.38563119783E+02  0.16042790519E+02  0.61886231039E+02  0.10566000000E+00 0. -1.
         23    2    1    0    0    0 -0.25980689789E+02  0.15111064039E+02  0.44973756542E+01  0.94609756729E+02  0.89595977489E+02 0.  0.
         13    1    3    3    0    0  0.19685589819E+02 -0.23452055744E+02 -0.11545414865E+02  0.32723525690E+02  0.10566000000E+00 0.  1.
         22    1    1    0    0    0  0.25980689789E+02 -0.15111064039E+02 -0.44973756542E+01  0.30390243271E+02  0.00000000000E+00 0. -1.
</event>
<event>
 5    1  0.6978980E-004  0.9118800E+02  0.7818608E-02  0.1130116E+00
         25   -1    0    0    0    0  0.00000000000E+00  0.00000000000E+00  0.99999998245E-14  0.12500000000E+03  0.12500000000E+03 0.  0.
        -13    1    3    3    0    0 -0.23576895754E+02  0.46410470133E+02 -0.10127013956E+02  0.53031776578E+02  0.10566000000E+00 0.  1.
         23    2    1    0    0    0  0.13635085713E+02  0.24575927817E+02 -0.42678352902E+01  0.96572791053E+02  0.92294083035E+02 0.  0.
         13    1    3    3    0    0  0.37211981467E+02 -0.21834542316E+02  0.58591786654E+01  0.43541014475E+02  0.10566000000E+00 0. -1.
         22    1    1    0    0    0 -0.13635085713E+02 -0.24575927817E+02  0.42678352902E+01  0.28427208947E+02  0.00000000000E+00 0.  1.
</event>
<event>
 5    1  0.6978980E-004  0.9118800E+02  0.7818608E-02  0.1130116E+00
         25   -1    0    0    0    0  0.00000000000E+00  0.00000000000E+00  0.99999998245E-14  0.12500000000E+03  0.12500000000E+03 0.  0.
        -13    1    3    3    0    0  0.20676967596E+02  0.14962155168E+02 -0.56825491050E+02  0.62294066117E+02  0.10566000000E+00 0.  1.
         23    2    1    0    0    0  0.63451802167E+01  0.77995450670E+01 -0.27635493001E+02  0.95592268217E+02  0.90956401941E+02 0.  0.
         13    1    3    3    0    0 -0.14331787379E+02 -0.71626101012E+01  0.29189998049E+02  0.33298202100E+02  0.10566000000E+00 0. -1.
         22    1    1    0    0    0 -0.63451802167E+01 -0.77995450670E+01  0.27635493001E+02  0.29407731783E+02  0.00000000000E+00 0.  1.
</event>
<event>
 5    1  0.6978980E-004  0.9118800E+02  0.7818608E-02  0.1130116E+00
         25   -1    0    0    0    0  0.00000000000E+00  0.00000000000E+00  0.99999998245E-14  0.12500000000E+03  0.12500000000E+03 0.  0.
        -13    1    3    3    0    0 -0.17766775622E+02  0.55625876738E+02  0.89140408359E+01  0.59070870714E+02  0.10566000000E+00 0. -1.
         23    2    1    0    0    0 -0.69852514678E+00  0.22923918982E+02  0.16519821135E+02  0.96735207604E+02  0.92513793032E+02 0.  0.
         13    1    3    3    0    0  0.17068250476E+02 -0.32701957756E+02  0.76057802987E+01  0.37664336890E+02  0.10566000000E+00 0.  1.
         22    1    1    0    0    0  0.69852514678E+00 -0.22923918982E+02 -0.16519821135E+02  0.28264792396E+02  0.00000000000E+00 0.  1.
</event>
<event>
 5    1  0.6978980E-004  0.9118800E+02  0.7818608E-02  0.1130116E+00
         25   -1    0    0    0    0  0.00000000000E+00  0.00000000000E+00  0.99999998245E-14  0.12500000000E+03  0.12500000000E+03 0.  0.
        -13    1    3    3    0    0  0.12115991322E+02 -0.32462470392E+02 -0.23800618685E+02  0.42036767757E+02  0.10566000000E+00 0.  1.
         23    2    1    0    0    0  0.26688271225E+02  0.12599418853E+02  0.94581428750E+00  0.95471983793E+02  0.90790946400E+02 0.  0.
         13    1    3    3    0    0  0.14572279903E+02  0.45061889245E+02  0.24746432973E+02  0.53435216036E+02  0.10566000000E+00 0. -1.
         22    1    1    0    0    0 -0.26688271225E+02 -0.12599418853E+02 -0.94581428750E+00  0.29528016207E+02  0.00000000000E+00 0. -1.
</event>
<event>
 5    1  0.6978980E-004  0.9118800E+02  0.7818608E-02  0.1130116E+00
         25   -1    0    0    0    0  0.00000000000E+00  0.00000000000E+00  0.99999998245E-14  0.12500000000E+03  0.12500000000E+03 0.  0.
        -13    1    3    3    0    0 -0.51524961353E+02  0.28762555381E+02 -0.15302937298E+02  0.60961440997E+02  0.10566000000E+00 0.  1.
         23    2    1    0    0    0 -0.19297520913E+02  0.18349082279E+02 -0.14140754935E+02  0.94849642058E+02  0.89930031216E+02 0.  0.
         13    1    3    3    0    0  0.32227440439E+02 -0.10413473102E+02  0.11621823636E+01  0.33888201061E+02  0.10566000000E+00 0. -1.
         22    1    1    0    0    0  0.19297520913E+02 -0.18349082279E+02  0.14140754935E+02  0.30150357942E+02  0.00000000000E+00 0.  1.
</event>
<event>
 5    1  0.6978980E-004  0.9118800E+02  0.7818608E-02  0.1130116E+00
         25   -1    0    0    0    0  0.00000000000E+00  0.00000000000E+00  0.99999998245E-14  0.12500000000E+03  0.12500000000E+03 0.  0.
        -13    1    3    3    0    0  0.25873527938E+02 -0.82035994953E+01  0.25348490131E+02  0.37138869242E+02  0.10566000000E+00 0.  1.
         23    2    1    0    0    0 -0.19232868762E+02  0.22308638113E+02  0.59329597214E+01  0.94953725916E+02  0.90074588420E+02 0.  0.
         13    1    3    3    0    0 -0.45106396700E+02  0.30512237608E+02 -0.19415530409E+02  0.57814856674E+02  0.10566000000E+00 0. -1.
         22    1    1    0    0    0  0.19232868762E+02 -0.22308638113E+02 -0.59329597214E+01  0.30046274084E+02  0.00000000000E+00 0. -1.
</event>
<event>
 5    1  0.6978980E-004  0.9118800E+02  0.7818608E-02  0.1130116E+00
         25   -1    0    0    0    0  0.00000000000E+00  0.00000000000E+00  0.99999998245E-14  0.12500000000E+03  0.12500000000E+03 0.  0.
        -13    1    3    3    0    0  0.52845579426E+02 -0.10493864796E+02 -0.17200775893E+02  0.56556646988E+02  0.10566000000E+00 0. -1.
         23    2    1    0    0    0  0.15479579471E+02 -0.21035209779E+02 -0.13617032892E+02  0.95546290287E+02  0.90893193210E+02 0.  0.
         13    1    3    3    0    0 -0.37365999955E+02 -0.10541344983E+02  0.35837430009E+01  0.38989643299E+02  0.10566000000E+00 0.  1.
         22    1    1    0    0    0 -0.15479579471E+02  0.21035209779E+02  0.13617032892E+02  0.29453709713E+02  0.00000000000E+00 0. -1.
</event>
<event>
 5    1  0.6978980E-004  0.9118800E+02  0.7818608E-02  0.1130116E+00
         25   -1    0    0    0    0  0.00000000000E+00  0.00000000000E+00  0.99999998245E-14  0.12500000000E+03  0.12500000000E+03 0.  0.
        -13    1    3    3    0    0  0.24445501094E+02  0.53929283364E+01 -0.28736912760E+02  0.38111514255E+02  0.10566000000E+00 0. -1.
         23    2    1    0    0    0 -0.18550351589E+02 -0.21870720836E+02 -0.52509021947E+00  0.96316909272E+02  0.91946872258E+02 0.  0.
         13    1    3    3    0    0 -0.42995852682E+02 -0.27263649173E+02  0.28211822541E+02  0.58205395018E+02  0.10566000000E+00 0.  1.
         22    1    1    0    0    0  0.18550351589E+02  0.21870720836E+02  0.52509021947E+00  0.28683090728E+02  0.00000000000E+00 0.  1.
</event>
<event>
 5    1  0.6978980E-004  0.9118800E+02  0.7818608E-02  0.1130116E+00
         25   -1    0    0    0    0  0.00000000000E+00  0.00000000000E+00  0.99999998245E-14  0.12500000000E+03  0.12500000000E+03 0.  0.
        -13    1    3    3    0    0 -0.10545452635E+02 -0.33737676808E+02 -0.33027937146E+02  0.48376577016E+02  0.10566000000E+00 0. -1.
         23    2    1    0    0    0 -0.11106400528E+01 -0.20391706075E+02  0.15357445210E+02  0.99447968352E+02  0.96109271602E+02 0.  0.
         13    1    3    3    0    0  0.94348125822E+01  0.13345970733E+02  0.48385382355E+02  0.51071391336E+02  0.10566000000E+00 0.  1.
         22    1    1    0    0    0  0.11106400528E+01  0.20391706075E+02 -0.15357445210E+02  0.25552031648E+02  0.00000000000E+00 0.  1.
</event>
<event>
 5    1  0.6978980E-004  0.9118800E+02  0.7818608E-02  0.1130116E+00
         25   -1    0    0    0    0  0.00000000000E+00  0.00000000000E+00  0.99999998245E-14  0.12500000000E+03  0.12500000000E+03 0.  0.
        -13    1    3    3    0    0 -0.51264148940E+02 -0.24946757424E+02  0.23032031856E+01  0.57058475107E+02  0.10566000000E+00 0. -1.
         23    2    1    0    0    0 -0.16301705180E+02 -0.21328473193E+02 -0.12732439964E+02  0.95288648837E+02  0.90538180947E+02 0.  0.
         13    1    3    3    0    0  0.34962443761E+02  0.36182842310E+01 -0.15035643149E+02  0.38230173730E+02  0.10566000000E+00 0.  1.
         22    1    1    0    0    0  0.16301705180E+02  0.21328473193E+02  0.12732439964E+02  0.29711351163E+02  0.00000000000E+00 0. -1.
</event>
<event>
 5    1  0.6978980E-004  0.9118800E+02  0.7818608E-02  0.1130116E+00
         25   -1    0    0    0    0  0.00000000000E+00  0.00000000000E+00  0.99999998245E-14  0.12500000000E+03  0.12500000000E+03 0.  0.
        -13    1    3    3    0    0 -0.41935421656E+02  0.99517388916E+01  0.35927934671E+02  0.56111000261E+02  0.10566000000E+00 0. -1.
         23    2    1    0    0    0 -0.19087794116E+02 -0.14505071785E+02  0.22333265462E+02  0.92235449982E+02  0.86219849776E+02 0.  0.
         13    1    3    3    0    0  0.22847627541E+02 -0.24456810677E+02 -0.13594669209E+02  0.36124449721E+02  0.10566000000E+00 0.  1.
         22    1    1    0    0    0  0.19087794116E+02  0.14505071785E+02 -0.22333265462E+02  0.32764550018E+02  0.00000000000E+00 0. -1.
</event>
<event>
 5    1  0.6978980E-004  0.9118800E+02  0.7818608E-02  0.1130116E+00
         25   -1    0    0    0    0  0.00000000000E+00  0.00000000000E+00  0.99999998245E-14  0.12500000000E+03  0.12500000000E+03 0.  0.
        -13    1    3    3    0    0  0.37418174540E+02  0.13326377587E+02  0.11050610622E+02  0.41229107250E+02  0.10566000000E+00 0.  1.
         23    2    1    0    0    0 -0.15876125148E+02  0.17860602679E+02  0.17885969692E+02  0.95151040394E+02  0.90347994435E+02 0.  0.
         13    1    3    3    0    0 -0.53294299687E+02  0.45342250919E+01  0.68353590701E+01  0.53921933144E+02  0.10566000000E+00 0. -1.
         22    1    1    0    0    0  0.15876125148E+02 -0.17860602679E+02 -0.17885969692E+02  0.29848959606E+02  0.00000000000E+00 0. -1.
</event>
<event>
 5    1  0.6978980E-004  0.9118800E+02  0.7818608E-02  0.1130116E+00
         25   -1    0    0    0    0  0.00000000000E+00  0.00000000000E+00  0.99999998245E-14  0.12500000000E+03  0.12500000000E+03 0.  0.
        -13    1    3    3    0    0  0.49521627606E+02  0.25479248487E+01 -0.28178703989E+02  0.57034498721E+02  0.10566000000E+00 0.  1.
         23    2    1    0    0    0  0.19820034927E+02 -0.16692509491E+02 -0.16405397964E+02  0.94330622113E+02  0.89205692241E+02 0.  0.
         13    1    3    3    0    0 -0.29701592679E+02 -0.19240434340E+02  0.11773306025E+02  0.37296123392E+02  0.10566000000E+00 0. -1.
         22    1    1    0    0    0 -0.19820034927E+02  0.16692509491E+02  0.16405397964E+02  0.30669377887E+02  0.00000000000E+00 0.  1.
</event>
<event>
 5    1  0.6978980E-004  0.9118800E+02  0.7818608E-02  0.1130116E+00
         25   -1    0    0    0    0  0.00000000000E+00  0.00000000000E+00  0.99999998245E-14  0.12500000000E+03  0.12500000000E+03 0.  0.
        -13    1    3    3    0    0 -0.61223682321E+01  0.34016663267E+02  0.15672957282E+02  0.37950883081E+02  0.10566000000E+00 0.  1.
         23    2    1    0    0    0  0.22662837284E+02 -0.84265530404E+01 -0.13860019927E+02  0.97130462109E+02  0.93046308510E+02 0.  0.
         13    1    3    3    0    0  0.28785205516E+02 -0.42443216308E+02 -0.29532977209E+02  0.59179579028E+02  0.10566000000E+00 0. -1.
         22    1    1    0    0    0 -0.22662837284E+02  0.84265530404E+01  0.13860019927E+02  0.27869537891E+02  0.00000000000E+00 0. -1.
</event>
<event>
 5    1  0.6978980E-004  0.9118800E+02  0.7818608E-02  0.1130116E+00
         25   -1    0    0    0    0  0.00000000000E+00  0.00000000000E+00  0.99999998245E-14  0.12500000000E+03  0.12500000000E+03 0.  0.
        -13    1    3    3    0    0 -0.51993729765E+02  0.29297246108E+02 -0.14866515991E+02  0.61503666769E+02  0.10566000000E+00 0. -1.
         23    2    1    0    0    0 -0.19483936576E+02  0.33886057440E+01 -0.15175040270E+01  0.10516545307E+03  0.10327808707E+03 0.  0.
         13    1    3    3    0    0  0.32509793189E+02 -0.25908640364E+02  0.13349011964E+02  0.43661786303E+02  0.10566000000E+00 0.  1.
         22    1    1    0    0    0  0.19483936576E+02 -0.33886057440E+01  0.15175040270E+01  0.19834546928E+02  0.00000000000E+00 0. -1.
</event>
<event>
 5    1  0.6978980E-004  0.9118800E+02  0.7818608E-02  0.1130116E+00
         25   -1    0    0    0    0  0.00000000000E+00  0.00000000000E+00  0.99999998245E-14  0.12500000000E+03  0.12500000000E+03 0.  0.
        -13    1    3    3    0    0 -0.62250417246E+01  0.35734606120E+02 -0.49068504772E+01  0.36603299915E+02  0.10566000000E+00 0. -1.
         23    2    1    0    0    0  0.80922468361E+01 -0.18842087093E+02 -0.21373133238E+02  0.95380419833E+02  0.90664794481E+02 0.  0.
         13    1    3    3    0    0  0.14317288561E+02 -0.54576693213E+02 -0.16466282760E+02  0.58777119918E+02  0.10566000000E+00 0.  1.
         22    1    1    0    0    0 -0.80922468361E+01  0.18842087093E+02  0.21373133238E+02  0.29619580167E+02  0.00000000000E+00 0.  1.
</event>
<event>
 5    1  0.6978980E-004  0.9118800E+02  0.7818608E-02  0.1130116E+00
         25   -1    0    0    0    0  0.00000000000E+00  0.00000000000E+00  0.99999998245E-14  0.12500000000E+03  0.12500000000E+03 0.  0.
        -13    1    3    3    0    0 -0.42940576877E+02 -0.40796159645E+02 -0.14863416057E+02  0.61066783812E+02  0.10566000000E+00 0.  1.
         23    2    1    0    0    0 -0.15292169170E+02 -0.25645224914E+02 -0.21403342180E+01  0.95064919753E+02  0.90228764473E+02 0.  0.
         13    1    3    3    0    0  0.27648407707E+02  0.15150934730E+02  0.12723081839E+02  0.33998135941E+02  0.10566000000E+00 0. -1.
         22    1    1    0    0    0  0.15292169170E+02  0.25645224914E+02  0.21403342180E+01  0.29935080247E+02  0.00000000000E+00 0.  1.
</event>
<event>
 5    1  0.6978980E-004  0.9118800E+02  0.7818608E-02  0.1130116E+00
         25   -1    0    0    0    0  0.00000000000E+00  0.00000000000E+00  0.99999998245E-14  0.12500000000E+03  0.12500000000E+03 0.  0.
        -13    1    3    3    0    0 -0.37529295243E+02 -0.27996343110E+02 -0.32905674343E+02  0.57227945944E+02  0.10566000000E+00 0. -1.
         23    2    1    0    0    0 -0.98890987378E+00 -0.11137564569E+02 -0.24114770213E+02  0.98419077712E+02  0.94761645342E+02 0.  0.
         13    1    3    3    0    0  0.36540385370E+02  0.16858778540E+02  0.87909041298E+01  0.41191131767E+02  0.10566000000E+00 0.  1.
         22    1    1    0    0    0  0.98890987378E+00  0.11137564569E+02  0.24114770213E+02  0.26580922288E+02  0.00000000000E+00 0. -1.
</event>
<event>
 5    1  0.6978980E-004  0.9118800E+02  0.7818608E-02  0.1130116E+00
         25   -1    0    0    0    0  0.00000000000E+00  0.00000000000E+00  0.99999998245E-14  0.12500000000E+03  0.12500000000E+03 0.  0.
        -13    1    3    3    0    0 -0.19718561913E+02 -0.41866344054E+01  0.57851598971E+02  0.61263106836E+02  0.10566000000E+00 0.  1.
         23    2    1    0    0    0 -0.16789667696E+02 -0.57306865753E+01  0.24649306572E+02  0.94630244907E+02  0.89624557051E+02 0.  0.
         13    1    3    3    0    0  0.29288942170E+01 -0.15440521700E+01 -0.33202292399E+02  0.33367138071E+02  0.10566000000E+00 0. -1.
         22    1    1    0    0    0  0.16789667696E+02  0.57306865753E+01 -0.24649306572E+02  0.30369755093E+02  0.00000000000E+00 0.  1.
</event>
<event>
 5    1  0.6978980E-004  0.9118800E+02  0.7818608E-02  0.1130116E+00
         25   -1    0    0    0    0  0.00000000000E+00  0.00000000000E+00  0.99999998245E-14  0.12500000000E+03  0.12500000000E+03 0.  0.
        -13    1    3    3    0    0  0.33932918607E+02  0.45260243712E+02 -0.15631193641E+02  0.58687971551E+02  0.10566000000E+00 0.  1.
         23    2    1    0    0    0  0.52076489130E+01  0.14919210727E+02 -0.18622256819E+02  0.10057683671E+03  0.97566434690E+02 0.  0.
         13    1    3    3    0    0 -0.28725269694E+02 -0.30341032985E+02 -0.29910631783E+01  0.41888865162E+02  0.10566000000E+00 0. -1.
         22    1    1    0    0    0 -0.52076489130E+01 -0.14919210727E+02  0.18622256819E+02  0.24423163287E+02  0.00000000000E+00 0.  1.
</event>
<event>
 5    1  0.6978980E-004  0.9118800E+02  0.7818608E-02  0.1130116E+00
         25   -1    0    0    0    0  0.00000000000E+00  0.00000000000E+00  0.99999998245E-14  0.12500000000E+03  0.12500000000E+03 0.  0.
        -13    1    3    3    0    0  0.99778248862E+00  0.84580048506E+01  0.48163938624E+02  0.48911241691E+02  0.10566000000E+00 0. -1.
         23    2    1    0    0    0 -0.67464079559E+01 -0.23864825578E+02  0.14248303181E+02  0.96398285651E+02  0.92057435401E+02 0.  0.
         13    1    3    3    0    0 -0.77441904445E+01 -0.32322830428E+02 -0.33915635442E+02  0.47487043960E+02  0.10566000000E+00 0.  1.
         22    1    1    0    0    0  0.67464079559E+01  0.23864825578E+02 -0.14248303181E+02  0.28601714349E+02  0.00000000000E+00 0.  1.
</event>
<event>
 5    1  0.6978980E-004  0.9118800E+02  0.7818608E-02  0.1130116E+00
         25   -1    0    0    0    0  0.00000000000E+00  0.00000000000E+00  0.99999998245E-14  0.12500000000E+03  0.12500000000E+03 0.  0.
        -13    1    3    3    0    0  0.75964077358E+01  0.37709437598E+02  0.27186829447E+02  0.47104585274E+02  0.10566000000E+00 0.  1.
         23    2    1    0    0    0  0.13167358333E+01 -0.88593538742E+01  0.29518274324E+02  0.94152788402E+02  0.88956152685E+02 0.  0.
         13    1    3    3    0    0 -0.62796719024E+01 -0.46568791472E+02  0.23314448771E+01  0.47048203128E+02  0.10566000000E+00 0. -1.
         22    1    1    0    0    0 -0.13167358333E+01  0.88593538742E+01 -0.29518274324E+02  0.30847211598E+02  0.00000000000E+00 0.  1.
</event>
<event>
 5    1  0.6978980E-004  0.9118800E+02  0.7818608E-02  0.1130116E+00
         25   -1    0    0    0    0  0.00000000000E+00  0.00000000000E+00  0.99999998245E-14  0.12500000000E+03  0.12500000000E+03 0.  0.
        -13    1    3    3    0    0  0.26507175066E+02 -0.39002271373E+02 -0.24206874465E+02  0.53007465867E+02  0.10566000000E+00 0.  1.
         23    2    1    0    0    0 -0.76448359967E+01 -0.27213941250E+02  0.41607615023E+00  0.96729604970E+02  0.92506222724E+02 0.  0.
         13    1    3    3    0    0 -0.34152011063E+02  0.11788330123E+02  0.24622950615E+02  0.43722139103E+02  0.10566000000E+00 0. -1.
         22    1    1    0    0    0  0.76448359967E+01  0.27213941250E+02 -0.41607615023E+00  0.28270395030E+02  0.00000000000E+00 0.  1.
</event>
<event>
 5    1  0.6978980E-004  0.9118800E+02  0.7818608E-02  0.1130116E+00
         25   -1    0    0    0    0  0.00000000000E+00  0.00000000000E+00  0.99999998245E-14  0.12500000000E+03  0.12500000000E+03 0.  0.
        -13    1    3    3    0    0  0.33755511987E+01  0.27812301937E+02 -0.30013924383E+02  0.41058072359E+02  0.10566000000E+00 0. -1.
         23    2    1    0    0    0  0.22438781787E+02  0.65657702658E+01  0.17023382874E+02  0.96079352847E+02  0.91623349708E+02 0.  0.
         13    1    3    3    0    0  0.19063230588E+02 -0.21246531671E+02  0.47037307257E+02  0.55021280488E+02  0.10566000000E+00 0.  1.
         22    1    1    0    0    0 -0.22438781787E+02 -0.65657702658E+01 -0.17023382874E+02  0.28920647153E+02  0.00000000000E+00 0.  1.
</event>
<event>
 5    1  0.6978980E-004  0.9118800E+02  0.7818608E-02  0.1130116E+00
         25   -1    0    0    0    0  0.00000000000E+00  0.00000000000E+00  0.99999998245E-14  0.12500000000E+03  0.12500000000E+03 0.  0.
        -13    1    3    3    0    0 -0.94922459497E+01 -0.30146324201E+02  0.44724675102E+02  0.54765055675E+02  0.10566000000E+00 0. -1.
         23    2    1    0    0    0 -0.68100485758E+00  0.49193394579E+01  0.31261898862E+02  0.93346090467E+02  0.87815275531E+02 0.  0.
         13    1    3    3    0    0  0.88112410921E+01  0.35065663659E+02 -0.13462776241E+02  0.38581034792E+02  0.10566000000E+00 0.  1.
         22    1    1    0    0    0  0.68100485758E+00 -0.49193394579E+01 -0.31261898862E+02  0.31653909533E+02  0.00000000000E+00 0. -1.
</event>
<event>
 5    1  0.6978980E-004  0.9118800E+02  0.7818608E-02  0.1130116E+00
         25   -1    0    0    0    0  0.00000000000E+00  0.00000000000E+00  0.99999998245E-14  0.12500000000E+03  0.12500000000E+03 0.  0.
        -13    1    3    3    0    0 -0.36321542504E+02 -0.30251193383E+02  0.15100188735E+02  0.49622736873E+02  0.10566000000E+00 0.  1.
         23    2    1    0    0    0 -0.21902727999E+02 -0.36292047548E+02 -0.12031679896E+02  0.80936369531E+02  0.67890296675E+02 0.  0.
         13    1    3    3    0    0  0.14418814505E+02 -0.60408541651E+01 -0.27131868630E+02  0.31313632657E+02  0.10566000000E+00 0. -1.
         22    1    1    0    0    0  0.21902727999E+02  0.36292047548E+02  0.12031679896E+02  0.44063630469E+02  0.00000000000E+00 0.  1.
</event>
<event>
 5    1  0.6978980E-004  0.9118800E+02  0.7818608E-02  0.1130116E+00
         25   -1    0    0    0    0  0.00000000000E+00  0.00000000000E+00  0.99999998245E-14  0.12500000000E+03  0.12500000000E+03 0.  0.
        -13    1    3    3    0    0  0.40863108005E+02 -0.11004706998E+01  0.31006129764E+02  0.51306879447E+02  0.10566000000E+00 0. -1.
         23    2    1    0    0    0  0.41362024558E+01 -0.22600549189E+02  0.18016842416E+02  0.95802404122E+02  0.91244731521E+02 0.  0.
         13    1    3    3    0    0 -0.36726905549E+02 -0.21500078490E+02 -0.12989287347E+02  0.44495524675E+02  0.10566000000E+00 0.  1.
         22    1    1    0    0    0 -0.41362024558E+01  0.22600549189E+02 -0.18016842416E+02  0.29197595878E+02  0.00000000000E+00 0.  1.
</event>
<event>
 5    1  0.6978980E-004  0.9118800E+02  0.7818608E-02  0.1130116E+00
         25   -1    0    0    0    0  0.00000000000E+00  0.00000000000E+00  0.99999998245E-14  0.12500000000E+03  0.12500000000E+03 0.  0.
        -13    1    3    3    0    0 -0.28096163552E+02  0.39051320708E+02 -0.38089305678E+02  0.61361277907E+02  0.10566000000E+00 0. -1.
         23    2    1    0    0    0 -0.22911242322E+02  0.23905853704E+02 -0.17176942266E+02  0.87697691604E+02  0.79368903867E+02 0.  0.
         13    1    3    3    0    0  0.51849212304E+01 -0.15145467004E+02  0.20912363412E+02  0.26336413697E+02  0.10566000000E+00 0.  1.
         22    1    1    0    0    0  0.22911242322E+02 -0.23905853704E+02  0.17176942266E+02  0.37302308396E+02  0.00000000000E+00 0. -1.
</event>
<event>
 5    1  0.6978980E-004  0.9118800E+02  0.7818608E-02  0.1130116E+00
         25   -1    0    0    0    0  0.00000000000E+00  0.00000000000E+00  0.99999998245E-14  0.12500000000E+03  0.12500000000E+03 0.  0.
        -13    1    3    3    0    0  0.16460549012E+02  0.51844174235E+02 -0.27931372612E+02  0.61146879037E+02  0.10566000000E+00 0.  1.
         23    2    1    0    0    0  0.35412238458E+01  0.20988782621E+02 -0.20572178452E+02  0.95397909052E+02  0.90688903749E+02 0.  0.
         13    1    3    3    0    0 -0.12919325167E+02 -0.30855391614E+02  0.73591941604E+01  0.34251030016E+02  0.10566000000E+00 0. -1.
         22    1    1    0    0    0 -0.35412238458E+01 -0.20988782621E+02  0.20572178452E+02  0.29602090948E+02  0.00000000000E+00 0.  1.
</event>
<event>
 5    1  0.6978980E-004  0.9118800E+02  0.7818608E-02  0.1130116E+00
         25   -1    0    0    0    0  0.00000000000E+00  0.00000000000E+00  0.99999998245E-14  0.12500000000E+03  0.12500000000E+03 0.  0.
        -13    1    3    3    0    0  0.16616285187E+02 -0.29330389725E+02  0.11145170250E+01  0.33728711909E+02  0.10566000000E+00 0.  1.
         23    2    1    0    0    0  0.11927551096E+02  0.29703358496E+02  0.16153470821E+01  0.92950579923E+02  0.87250472668E+02 0.  0.
         13    1    3    3    0    0 -0.46887340903E+01  0.59033748220E+02  0.50083005713E+00  0.59221868014E+02  0.10566000000E+00 0. -1.
         22    1    1    0    0    0 -0.11927551096E+02 -0.29703358496E+02 -0.16153470821E+01  0.32049420077E+02  0.00000000000E+00 0.  1.
</event>
<event>
 5    1  0.6978980E-004  0.9118800E+02  0.7818608E-02  0.1130116E+00
         25   -1    0    0    0    0  0.00000000000E+00  0.00000000000E+00  0.99999998245E-14  0.12500000000E+03  0.12500000000E+03 0.  0.
        -13    1    3    3    0    0  0.17002862708E+02 -0.24090660826E+02  0.19629296035E+02  0.35422841588E+02  0.10566000000E+00 0.  1.
         23    2    1    0    0    0  0.46067677934E+01  0.28125905038E+02 -0.74588066893E+01  0.95539473173E+02  0.90883817554E+02 0.  0.
         13    1    3    3    0    0 -0.12396094915E+02  0.52216565864E+02 -0.27088102724E+02  0.60116631584E+02  0.10566000000E+00 0. -1.
         22    1    1    0    0    0 -0.46067677934E+01 -0.28125905038E+02  0.74588066893E+01  0.29460526827E+02  0.00000000000E+00 0. -1.
</event>
<event>
 5    1  0.6978980E-004  0.9118800E+02  0.7818608E-02  0.1130116E+00
         25   -1    0    0    0    0  0.00000000000E+00  0.00000000000E+00  0.99999998245E-14  0.12500000000E+03  0.12500000000E+03 0.  0.
        -13    1    3    3    0    0  0.27684787719E+02 -0.62250070722E+01 -0.20435932014E+02  0.34969081564E+02  0.10566000000E+00 0. -1.
         23    2    1    0    0    0 -0.26478499814E+02  0.12139736645E+02  0.48409053357E+00  0.95867226328E+02  0.91333491020E+02 0.  0.
         13    1    3    3    0    0 -0.54163287533E+02  0.18364743718E+02  0.20920022548E+02  0.60898144764E+02  0.10566000000E+00 0.  1.
         22    1    1    0    0    0  0.26478499814E+02 -0.12139736645E+02 -0.48409053357E+00  0.29132773672E+02  0.00000000000E+00 0.  1.
</event>
<event>
 5    1  0.6978980E-004  0.9118800E+02  0.7818608E-02  0.1130116E+00
         25   -1    0    0    0    0  0.00000000000E+00  0.00000000000E+00  0.99999998245E-14  0.12500000000E+03  0.12500000000E+03 0.  0.
        -13    1    3    3    0    0 -0.20358354329E+02 -0.11162964130E+02  0.31970340827E+02  0.39511874364E+02  0.10566000000E+00 0.  1.
         23    2    1    0    0    0  0.27396081657E+02 -0.15036397854E+02  0.10309871273E+02  0.92092067883E+02  0.86011725775E+02 0.  0.
         13    1    3    3    0    0  0.47754435986E+02 -0.38734337232E+01 -0.21660469554E+02  0.52580193519E+02  0.10566000000E+00 0. -1.
         22    1    1    0    0    0 -0.27396081657E+02  0.15036397854E+02 -0.10309871273E+02  0.32907932117E+02  0.00000000000E+00 0. -1.
</event>
<event>
 5    1  0.6978980E-004  0.9118800E+02  0.7818608E-02  0.1130116E+00
         25   -1    0    0    0    0  0.00000000000E+00  0.00000000000E+00  0.99999998245E-14  0.12500000000E+03  0.12500000000E+03 0.  0.
        -13    1    3    3    0    0  0.37616149764E+02  0.28959127028E+01  0.21343019850E+02  0.43346241980E+02  0.10566000000E+00 0.  1.
         23    2    1    0    0    0 -0.51028566281E+01 -0.25487293588E+02  0.14902992699E+02  0.95037682473E+02  0.90191022936E+02 0.  0.
         13    1    3    3    0    0 -0.42719006392E+02 -0.28383206291E+02 -0.64400271509E+01  0.51691440493E+02  0.10566000000E+00 0. -1.
         22    1    1    0    0    0  0.51028566281E+01  0.25487293588E+02 -0.14902992699E+02  0.29962317527E+02  0.00000000000E+00 0. -1.
</event>
<event>
 5    1  0.6978980E-004  0.9118800E+02  0.7818608E-02  0.1130116E+00
         25   -1    0    0    0    0  0.00000000000E+00  0.00000000000E+00  0.99999998245E-14  0.12500000000E+03  0.12500000000E+03 0.  0.
        -13    1    3    3    0    0 -0.40655947412E+02 -0.11293036460E+01  0.23202926175E+02  0.46824868753E+02  0.10566000000E+00 0. -1.
         23    2    1    0    0    0 -0.20759241360E+02  0.31816017618E+01 -0.20882019893E+02  0.95383662508E+02  0.90669265063E+02 0.  0.
         13    1    3    3    0    0  0.19896706051E+02  0.43109054078E+01 -0.44084946067E+02  0.48558793755E+02  0.10566000000E+00 0.  1.
         22    1    1    0    0    0  0.20759241360E+02 -0.31816017618E+01  0.20882019893E+02  0.29616337492E+02  0.00000000000E+00 0. -1.
</event>
<event>
 5    1  0.6978980E-004  0.9118800E+02  0.7818608E-02  0.1130116E+00
         25   -1    0    0    0    0  0.00000000000E+00  0.00000000000E+00  0.99999998245E-14  0.12500000000E+03  0.12500000000E+03 0.  0.
        -13    1    3    3    0    0  0.99918129242E+01 -0.20328607818E+02  0.46770080312E+02  0.51966722023E+02  0.10566000000E+00 0.  1.
         23    2    1    0    0    0 -0.21099466704E+02 -0.67908658921E+01  0.17618921317E+02  0.96685167435E+02  0.92446156539E+02 0.  0.
         13    1    3    3    0    0 -0.31091279628E+02  0.13537741926E+02 -0.29151158995E+02  0.44718445413E+02  0.10566000000E+00 0. -1.
         22    1    1    0    0    0  0.21099466704E+02  0.67908658921E+01 -0.17618921317E+02  0.28314832565E+02  0.00000000000E+00 0.  1.
</event>
<event>
 5    1  0.6978980E-004  0.9118800E+02  0.7818608E-02  0.1130116E+00
         25   -1    0    0    0    0  0.00000000000E+00  0.00000000000E+00  0.99999998245E-14  0.12500000000E+03  0.12500000000E+03 0.  0.
        -13    1    3    3    0    0  0.40072396014E+02 -0.32361998472E+02 -0.14016136701E+02  0.53381261876E+02  0.10566000000E+00 0.  1.
         23    2    1    0    0    0  0.26200592764E+01  0.24522400609E+01 -0.19832604111E+02  0.10484533856E+03  0.10288991515E+03 0.  0.
         13    1    3    3    0    0 -0.37452336738E+02  0.34814238533E+02 -0.58164674106E+01  0.51464076684E+02  0.10566000000E+00 0. -1.
         22    1    1    0    0    0 -0.26200592764E+01 -0.24522400609E+01  0.19832604111E+02  0.20154661440E+02  0.00000000000E+00 0. -1.
</event>
<event>
 5    1  0.6978980E-004  0.9118800E+02  0.7818608E-02  0.1130116E+00
         25   -1    0    0    0    0  0.00000000000E+00  0.00000000000E+00  0.99999998245E-14  0.12500000000E+03  0.12500000000E+03 0.  0.
        -13    1    3    3    0    0 -0.16454146054E+02  0.28313204836E+02 -0.33894521553E+02  0.47129886969E+02  0.10566000000E+00 0. -1.
         23    2    1    0    0    0 -0.43498871125E+01 -0.16600911108E+02 -0.25292043073E+02  0.94435327413E+02  0.89352290700E+02 0.  0.
         13    1    3    3    0    0  0.12104258941E+02 -0.44914115944E+02  0.86024784796E+01  0.47305440444E+02  0.10566000000E+00 0.  1.
         22    1    1    0    0    0  0.43498871125E+01  0.16600911108E+02  0.25292043073E+02  0.30564672587E+02  0.00000000000E+00 0. -1.
</event>
<event>
 5    1  0.6978980E-004  0.9118800E+02  0.7818608E-02  0.1130116E+00
         25   -1    0    0    0    0  0.00000000000E+00  0.00000000000E+00  0.99999998245E-14  0.12500000000E+03  0.12500000000E+03 0.  0.
        -13    1    3    3    0    0  0.34311670305E+02  0.14908070403E+02 -0.30341351339E+01  0.37533430729E+02  0.10566000000E+00 0.  1.
         23    2    1    0    0    0 -0.90854308155E+01 -0.26046634688E+02 -0.34012302895E+01  0.97205385429E+02  0.93146907394E+02 0.  0.
         13    1    3    3    0    0 -0.43397101120E+02 -0.40954705091E+02 -0.36709515562E+00  0.59671954699E+02  0.10566000000E+00 0. -1.
         22    1    1    0    0    0  0.90854308155E+01  0.26046634688E+02  0.34012302895E+01  0.27794614571E+02  0.00000000000E+00 0. -1.
</event>
<event>
 5    1  0.6978980E-004  0.9118800E+02  0.7818608E-02  0.1130116E+00
         25   -1    0    0    0    0  0.00000000000E+00  0.00000000000E+00  0.99999998245E-14  0.12500000000E+03  0.12500000000E+03 0.  0.
        -13    1    3    3    0    0  0.18310389519E+02  0.25902152817E+02  0.20965721830E+02  0.38023210553E+02  0.10566000000E+00 0.  1.
         23    2    1    0    0    0 -0.28096294712E+02 -0.51627371583E+01  0.69157709443E+01  0.95608104531E+02  0.90978162944E+02 0.  0.
         13    1    3    3    0    0 -0.46406684231E+02 -0.31064889975E+02 -0.14049950886E+02  0.57584893978E+02  0.10566000000E+00 0. -1.
         22    1    1    0    0    0  0.28096294712E+02  0.51627371583E+01 -0.69157709443E+01  0.29391895469E+02  0.00000000000E+00 0. -1.
</event>
<event>
 5    1  0.6978980E-004  0.9118800E+02  0.7818608E-02  0.1130116E+00
         25   -1    0    0    0    0  0.00000000000E+00  0.00000000000E+00  0.99999998245E-14  0.12500000000E+03  0.12500000000E+03 0.  0.
        -13    1    3    3    0    0 -0.34950382284E+02  0.38847313709E+02 -0.21853544117E+02  0.56641253153E+02  0.10566000000E+00 0. -1.
         23    2    1    0    0    0 -0.24325102549E+02  0.16935605269E+02  0.71473087184E+01  0.94510504075E+02  0.89457397787E+02 0.  0.
         13    1    3    3    0    0  0.10625279735E+02 -0.21911708440E+02  0.29000852835E+02  0.37869250922E+02  0.10566000000E+00 0.  1.
         22    1    1    0    0    0  0.24325102549E+02 -0.16935605269E+02 -0.71473087184E+01  0.30489495925E+02  0.00000000000E+00 0. -1.
</event>
<event>
 5    1  0.6978980E-004  0.9118800E+02  0.7818608E-02  0.1130116E+00
         25   -1    0    0    0    0  0.00000000000E+00  0.00000000000E+00  0.99999998245E-14  0.12500000000E+03  0.12500000000E+03 0.  0.
        -13    1    3    3    0    0  0.42969353455E+01 -0.56273011019E+02 -0.14777106531E+02  0.58339433182E+02  0.10566000000E+00 0. -1.
         23    2    1    0    0    0  0.11638243171E+02 -0.19478199984E+02 -0.18055520210E+02  0.96002572721E+02  0.91518540090E+02 0.  0.
         13    1    3    3    0    0  0.73413078252E+01  0.36794811035E+02 -0.32784136791E+01  0.37663139539E+02  0.10566000000E+00 0.  1.
         22    1    1    0    0    0 -0.11638243171E+02  0.19478199984E+02  0.18055520210E+02  0.28997427279E+02  0.00000000000E+00 0. -1.
</event>
<event>
 5    1  0.6978980E-004  0.9118800E+02  0.7818608E-02  0.1130116E+00
         25   -1    0    0    0    0  0.00000000000E+00  0.00000000000E+00  0.99999998245E-14  0.12500000000E+03  0.12500000000E+03 0.  0.
        -13    1    3    3    0    0  0.10943727839E+02 -0.97189192764E+01 -0.43031112568E+02  0.45452286893E+02  0.10566000000E+00 0. -1.
         23    2    1    0    0    0  0.26168828823E+02 -0.10424943442E+02  0.54813249573E+01  0.96302753251E+02  0.91927625405E+02 0.  0.
         13    1    3    3    0    0  0.15225100984E+02 -0.70602416567E+00  0.48512437525E+02  0.50850466358E+02  0.10566000000E+00 0.  1.
         22    1    1    0    0    0 -0.26168828823E+02  0.10424943442E+02 -0.54813249573E+01  0.28697246749E+02  0.00000000000E+00 0. -1.
</event>
<event>
 5    1  0.6978980E-004  0.9118800E+02  0.7818608E-02  0.1130116E+00
         25   -1    0    0    0    0  0.00000000000E+00  0.00000000000E+00  0.99999998245E-14  0.12500000000E+03  0.12500000000E+03 0.  0.
        -13    1    3    3    0    0  0.27837785823E+01  0.60921305745E+01 -0.38811974856E+02  0.39385835453E+02  0.10566000000E+00 0. -1.
         23    2    1    0    0    0 -0.27715516059E+02 -0.64955802373E+01  0.68496303209E+01  0.95721000212E+02  0.91133144646E+02 0.  0.
         13    1    3    3    0    0 -0.30499294641E+02 -0.12587710812E+02  0.45661605177E+02  0.56335164759E+02  0.10566000000E+00 0.  1.
         22    1    1    0    0    0  0.27715516059E+02  0.64955802373E+01 -0.68496303209E+01  0.29278999788E+02  0.00000000000E+00 0.  1.
</event>
<event>
 5    1  0.6978980E-004  0.9118800E+02  0.7818608E-02  0.1130116E+00
         25   -1    0    0    0    0  0.00000000000E+00  0.00000000000E+00  0.99999998245E-14  0.12500000000E+03  0.12500000000E+03 0.  0.
        -13    1    3    3    0    0 -0.25594961191E+02  0.18583284234E+01 -0.23869784619E+02  0.35047584862E+02  0.10566000000E+00 0.  1.
         23    2    1    0    0    0  0.12052385419E+02  0.66944550947E+01  0.24713926452E+02  0.96700638099E+02  0.92467072652E+02 0.  0.
         13    1    3    3    0    0  0.37647346610E+02  0.48361266713E+01  0.48583711071E+02  0.61653053237E+02  0.10566000000E+00 0. -1.
         22    1    1    0    0    0 -0.12052385419E+02 -0.66944550947E+01 -0.24713926452E+02  0.28299361901E+02  0.00000000000E+00 0. -1.
</event>
<event>
 5    1  0.6978980E-004  0.9118800E+02  0.7818608E-02  0.1130116E+00
         25   -1    0    0    0    0  0.00000000000E+00  0.00000000000E+00  0.99999998245E-14  0.12500000000E+03  0.12500000000E+03 0.  0.
        -13    1    3    3    0    0  0.18177571913E+02  0.40383371164E+02 -0.22371140775E+02  0.49615722215E+02  0.10566000000E+00 0. -1.
         23    2    1    0    0    0 -0.11173025395E+02  0.45170448877E+01 -0.26242852183E+02  0.96122197422E+02  0.91681783117E+02 0.  0.
         13    1    3    3    0    0 -0.29350597309E+02 -0.35866326277E+02 -0.38717114088E+01  0.46506475208E+02  0.10566000000E+00 0.  1.
         22    1    1    0    0    0  0.11173025395E+02 -0.45170448877E+01  0.26242852183E+02  0.28877802578E+02  0.00000000000E+00 0. -1.
</event>
<event>
 5    1  0.6978980E-004  0.9118800E+02  0.7818608E-02  0.1130116E+00
         25   -1    0    0    0    0  0.00000000000E+00  0.00000000000E+00  0.99999998245E-14  0.12500000000E+03  0.12500000000E+03 0.  0.
        -13    1    3    3    0    0 -0.84900697073E+01 -0.55788854348E+02  0.20797457405E+02  0.60141690628E+02  0.10566000000E+00 0.  1.
         23    2    1    0    0    0 -0.15424269475E+02 -0.23321399181E+02  0.64732901422E+01  0.96299839132E+02  0.91923662802E+02 0.  0.
         13    1    3    3    0    0 -0.69341997679E+01  0.32467455167E+02 -0.14324167263E+02  0.36158148504E+02  0.10566000000E+00 0. -1.
         22    1    1    0    0    0  0.15424269475E+02  0.23321399181E+02 -0.64732901422E+01  0.28700160868E+02  0.00000000000E+00 0.  1.
</event>
<event>
 5    1  0.6978980E-004  0.9118800E+02  0.7818608E-02  0.1130116E+00
         25   -1    0    0    0    0  0.00000000000E+00  0.00000000000E+00  0.99999998245E-14  0.12500000000E+03  0.12500000000E+03 0.  0.
        -13    1    3    3    0    0  0.11124167812E+02  0.17188544186E+02  0.53801728633E+02  0.57565878163E+02  0.10566000000E+00 0. -1.
         23    2    1    0    0    0 -0.11356990822E+02  0.13844836663E+02  0.22711910786E+02  0.96077834896E+02  0.91621278773E+02 0.  0.
         13    1    3    3    0    0 -0.22481158634E+02 -0.33437075228E+01 -0.31089817848E+02  0.38511956732E+02  0.10566000000E+00 0.  1.
         22    1    1    0    0    0  0.11356990822E+02 -0.13844836663E+02 -0.22711910786E+02  0.28922165104E+02  0.00000000000E+00 0. -1.
</event>
<event>
 5    1  0.6978980E-004  0.9118800E+02  0.7818608E-02  0.1130116E+00
         25   -1    0    0    0    0  0.00000000000E+00  0.00000000000E+00  0.99999998245E-14  0.12500000000E+03  0.12500000000E+03 0.  0.
        -13    1    3    3    0    0 -0.69778109155E+01  0.31776235177E+02 -0.19262735583E+02  0.37808505834E+02  0.10566000000E+00 0.  1.
         23    2    1    0    0    0  0.28543805407E+02 -0.97742470552E+01 -0.97350314540E+01  0.93297388593E+02  0.87745923827E+02 0.  0.
         13    1    3    3    0    0  0.35521616322E+02 -0.41550482233E+02  0.95277041288E+01  0.55488882760E+02  0.10566000000E+00 0. -1.
         22    1    1    0    0    0 -0.28543805407E+02  0.97742470552E+01  0.97350314540E+01  0.31702611407E+02  0.00000000000E+00 0. -1.
</event>
<event>
 5    1  0.6978980E-004  0.9118800E+02  0.7818608E-02  0.1130116E+00
         25   -1    0    0    0    0  0.00000000000E+00  0.00000000000E+00  0.99999998245E-14  0.12500000000E+03  0.12500000000E+03 0.  0.
        -13    1    3    3    0    0 -0.35416835190E+01  0.11378243300E+02 -0.39040450366E+02  0.40818817616E+02  0.10566000000E+00 0.  1.
         23    2    1    0    0    0  0.23303578118E+02  0.14184218646E+02  0.92941643047E+01  0.96179342446E+02  0.91759662224E+02 0.  0.
         13    1    3    3    0    0  0.26845261637E+02  0.28059753462E+01  0.48334614671E+02  0.55360524830E+02  0.10566000000E+00 0. -1.
         22    1    1    0    0    0 -0.23303578118E+02 -0.14184218646E+02 -0.92941643047E+01  0.28820657554E+02  0.00000000000E+00 0. -1.
</event>
<event>
 5    1  0.6978980E-004  0.9118800E+02  0.7818608E-02  0.1130116E+00
         25   -1    0    0    0    0  0.00000000000E+00  0.00000000000E+00  0.99999998245E-14  0.12500000000E+03  0.12500000000E+03 0.  0.
        -13    1    3    3    0    0 -0.59292048663E+01  0.40166789758E+02 -0.31832270625E+02  0.51592936406E+02  0.10566000000E+00 0.  1.
         23    2    1    0    0    0  0.17640727585E+02  0.22600175518E+02  0.18150570737E+01  0.96272702262E+02  0.91886754026E+02 0.  0.
         13    1    3    3    0    0  0.23569932451E+02 -0.17566614240E+02  0.33647327699E+02  0.44679765856E+02  0.10566000000E+00 0. -1.
         22    1    1    0    0    0 -0.17640727585E+02 -0.22600175518E+02 -0.18150570737E+01  0.28727297738E+02  0.00000000000E+00 0.  1.
</event>
<event>
 5    1  0.6978980E-004  0.9118800E+02  0.7818608E-02  0.1130116E+00
         25   -1    0    0    0    0  0.00000000000E+00  0.00000000000E+00  0.99999998245E-14  0.12500000000E+03  0.12500000000E+03 0.  0.
        -13    1    3    3    0    0  0.41543027316E+02  0.27430728819E+02 -0.35105203680E+02  0.60915141727E+02  0.10566000000E+00 0.  1.
         23    2    1    0    0    0  0.18911523327E+02  0.21693565853E+02 -0.11825375535E+02  0.93885758558E+02  0.88580131178E+02 0.  0.
         13    1    3    3    0    0 -0.22631503989E+02 -0.57371629669E+01  0.23279828145E+02  0.32970616831E+02  0.10566000000E+00 0. -1.
         22    1    1    0    0    0 -0.18911523327E+02 -0.21693565853E+02  0.11825375535E+02  0.31114241442E+02  0.00000000000E+00 0.  1.
</event>
<event>
 5    1  0.6978980E-004  0.9118800E+02  0.7818608E-02  0.1130116E+00
         25   -1    0    0    0    0  0.00000000000E+00  0.00000000000E+00  0.99999998245E-14  0.12500000000E+03  0.12500000000E+03 0.  0.
        -13    1    3    3    0    0  0.88790182174E+01  0.34399945810E+02  0.45882015734E+02  0.58028990755E+02  0.10566000000E+00 0.  1.
         23    2    1    0    0    0 -0.89137665507E+01  0.72188181114E+01  0.27142546671E+02  0.95533333938E+02  0.90875373366E+02 0.  0.
         13    1    3    3    0    0 -0.17792784768E+02 -0.27181127698E+02 -0.18739469063E+02  0.37504343182E+02  0.10566000000E+00 0. -1.
         22    1    1    0    0    0  0.89137665507E+01 -0.72188181114E+01 -0.27142546671E+02  0.29466666062E+02  0.00000000000E+00 0.  1.
</event>
<event>
 5    1  0.6978980E-004  0.9118800E+02  0.7818608E-02  0.1130116E+00
         25   -1    0    0    0    0  0.00000000000E+00  0.00000000000E+00  0.99999998245E-14  0.12500000000E+03  0.12500000000E+03 0.  0.
        -13    1    3    3    0    0  0.16144802499E+02 -0.36969165622E+02 -0.29217098455E+00  0.40341918427E+02  0.10566000000E+00 0.  1.
         23    2    1    0    0    0  0.24115825740E+02  0.16389628658E+02  0.76016112971E+01  0.94867335448E+02  0.89954621126E+02 0.  0.
         13    1    3    3    0    0  0.79710232413E+01  0.53358794280E+02  0.78937822817E+01  0.54525417020E+02  0.10566000000E+00 0. -1.
         22    1    1    0    0    0 -0.24115825740E+02 -0.16389628658E+02 -0.76016112971E+01  0.30132664552E+02  0.00000000000E+00 0. -1.
</event>
<event>
 5    1  0.6978980E-004  0.9118800E+02  0.7818608E-02  0.1130116E+00
         25   -1    0    0    0    0  0.00000000000E+00  0.00000000000E+00  0.99999998245E-14  0.12500000000E+03  0.12500000000E+03 0.  0.
        -13    1    3    3    0    0 -0.21854997904E+02 -0.48010757867E+02  0.30139076816E+02  0.60754003322E+02  0.10566000000E+00 0.  1.
         23    2    1    0    0    0 -0.30132808896E+01 -0.15944973714E+02  0.19886184618E+02  0.99333243542E+02  0.95959944171E+02 0.  0.
         13    1    3    3    0    0  0.18841717015E+02  0.32065784153E+02 -0.10252892198E+02  0.38579240219E+02  0.10566000000E+00 0. -1.
         22    1    1    0    0    0  0.30132808896E+01  0.15944973714E+02 -0.19886184618E+02  0.25666756458E+02  0.00000000000E+00 0.  1.
</event>
<event>
 5    1  0.6978980E-004  0.9118800E+02  0.7818608E-02  0.1130116E+00
         25   -1    0    0    0    0  0.00000000000E+00  0.00000000000E+00  0.99999998245E-14  0.12500000000E+03  0.12500000000E+03 0.  0.
        -13    1    3    3    0    0 -0.86869261492E+01 -0.22655733790E+02  0.56354905733E+02  0.61356593156E+02  0.10566000000E+00 0.  1.
         23    2    1    0    0    0 -0.51264914310E+01 -0.18012134275E+02  0.22443083373E+02  0.95769709430E+02  0.91199930688E+02 0.  0.
         13    1    3    3    0    0  0.35604347181E+01  0.46435995151E+01 -0.33911822360E+02  0.34413116274E+02  0.10566000000E+00 0. -1.
         22    1    1    0    0    0  0.51264914310E+01  0.18012134275E+02 -0.22443083373E+02  0.29230290570E+02  0.00000000000E+00 0.  1.
</event>
<event>
 5    1  0.6978980E-004  0.9118800E+02  0.7818608E-02  0.1130116E+00
         25   -1    0    0    0    0  0.00000000000E+00  0.00000000000E+00  0.99999998245E-14  0.12500000000E+03  0.12500000000E+03 0.  0.
        -13    1    3    3    0    0 -0.20958245726E+02 -0.22043675398E+02  0.54206904296E+02  0.62157632889E+02  0.10566000000E+00 0. -1.
         23    2    1    0    0    0 -0.86789206604E+01 -0.62336294464E+01  0.27211040593E+02  0.95766072278E+02  0.91194945416E+02 0.  0.
         13    1    3    3    0    0  0.12279325065E+02  0.15810045952E+02 -0.26995863703E+02  0.33608439389E+02  0.10566000000E+00 0.  1.
         22    1    1    0    0    0  0.86789206604E+01  0.62336294464E+01 -0.27211040593E+02  0.29233927722E+02  0.00000000000E+00 0. -1.
</event>
<event>
 5    1  0.6978980E-004  0.9118800E+02  0.7818608E-02  0.1130116E+00
         25   -1    0    0    0    0  0.00000000000E+00  0.00000000000E+00  0.99999998245E-14  0.12500000000E+03  0.12500000000E+03 0.  0.
        -13    1    3    3    0    0 -0.19681959451E+01  0.54033408550E+02  0.18701327493E+01  0.54101678304E+02  0.10566000000E+00 0.  1.
         23    2    1    0    0    0  0.17601407036E+02  0.18261015652E+02  0.13180496549E+02  0.96416793189E+02  0.92082562396E+02 0.  0.
         13    1    3    3    0    0  0.19569602981E+02 -0.35772392898E+02  0.11310363799E+02  0.42315114885E+02  0.10566000000E+00 0. -1.
         22    1    1    0    0    0 -0.17601407036E+02 -0.18261015652E+02 -0.13180496549E+02  0.28583206811E+02  0.00000000000E+00 0.  1.
</event>
<event>
 5    1  0.6978980E-004  0.9118800E+02  0.7818608E-02  0.1130116E+00
         25   -1    0    0    0    0  0.00000000000E+00  0.00000000000E+00  0.99999998245E-14  0.12500000000E+03  0.12500000000E+03 0.  0.
        -13    1    3    3    0    0 -0.16948244675E+02  0.13747810097E+02  0.37086370022E+02  0.43030864336E+02  0.10566000000E+00 0. -1.
         23    2    1    0    0    0  0.12413166552E+02  0.23279748526E+02 -0.77826264761E+01  0.97493588563E+02  0.93532866634E+02 0.  0.
         13    1    3    3    0    0  0.29361411227E+02  0.95319384290E+01 -0.44868996498E+02  0.54462724227E+02  0.10566000000E+00 0.  1.
         22    1    1    0    0    0 -0.12413166552E+02 -0.23279748526E+02  0.77826264761E+01  0.27506411437E+02  0.00000000000E+00 0.  1.
</event>
<event>
 5    1  0.6978980E-004  0.9118800E+02  0.7818608E-02  0.1130116E+00
         25   -1    0    0    0    0  0.00000000000E+00  0.00000000000E+00  0.99999998245E-14  0.12500000000E+03  0.12500000000E+03 0.  0.
        -13    1    3    3    0    0 -0.50799321347E+02 -0.92074357444E+01  0.56413649379E+01  0.51934421001E+02  0.10566000000E+00 0. -1.
         23    2    1    0    0    0 -0.20177083753E+02  0.16887938259E+02 -0.12262032434E+02  0.95971141827E+02  0.91475600336E+02 0.  0.
         13    1    3    3    0    0  0.30622237594E+02  0.26095374003E+02 -0.17903397372E+02  0.44036720826E+02  0.10566000000E+00 0.  1.
         22    1    1    0    0    0  0.20177083753E+02 -0.16887938259E+02  0.12262032434E+02  0.29028858173E+02  0.00000000000E+00 0. -1.
</event>
<event>
 5    1  0.6978980E-004  0.9118800E+02  0.7818608E-02  0.1130116E+00
         25   -1    0    0    0    0  0.00000000000E+00  0.00000000000E+00  0.99999998245E-14  0.12500000000E+03  0.12500000000E+03 0.  0.
        -13    1    3    3    0    0 -0.10252360008E+02  0.10698760502E+02 -0.56723873541E+02  0.58627496582E+02  0.10566000000E+00 0.  1.
         23    2    1    0    0    0 -0.19108459489E+02  0.50906444760E+00 -0.22159119512E+02  0.95735363521E+02  0.91152843512E+02 0.  0.
         13    1    3    3    0    0 -0.88560994808E+01 -0.10189696054E+02  0.34564754028E+02  0.37107866939E+02  0.10566000000E+00 0. -1.
         22    1    1    0    0    0  0.19108459489E+02 -0.50906444760E+00  0.22159119512E+02  0.29264636479E+02  0.00000000000E+00 0.  1.
</event>
<event>
 5    1  0.6978980E-004  0.9118800E+02  0.7818608E-02  0.1130116E+00
         25   -1    0    0    0    0  0.00000000000E+00  0.00000000000E+00  0.99999998245E-14  0.12500000000E+03  0.12500000000E+03 0.  0.
        -13    1    3    3    0    0 -0.22625564037E+02 -0.44152679568E+02 -0.11111773988E+02  0.50841498269E+02  0.10566000000E+00 0. -1.
         23    2    1    0    0    0 -0.23786890040E+02 -0.84966345708E+01  0.15514061754E+02  0.95357209158E+02  0.90632788159E+02 0.  0.
         13    1    3    3    0    0 -0.11613260031E+01  0.35656044997E+02  0.26625835742E+02  0.44515710889E+02  0.10566000000E+00 0.  1.
         22    1    1    0    0    0  0.23786890040E+02  0.84966345708E+01 -0.15514061754E+02  0.29642790842E+02  0.00000000000E+00 0. -1.
</event>
<event>
 5    1  0.6978980E-004  0.9118800E+02  0.7818608E-02  0.1130116E+00
         25   -1    0    0    0    0  0.00000000000E+00  0.00000000000E+00  0.99999998245E-14  0.12500000000E+03  0.12500000000E+03 0.  0.
        -13    1    3    3    0    0  0.27827449976E+02 -0.20272329633E+02  0.51270545540E+02  0.61757706604E+02  0.10566000000E+00 0.  1.
         23    2    1    0    0    0  0.12789379842E+02 -0.27431688168E+01  0.25343995136E+02  0.96479633569E+02  0.92167827316E+02 0.  0.
         13    1    3    3    0    0 -0.15038070134E+02  0.17529160816E+02 -0.25926550404E+02  0.34721926965E+02  0.10566000000E+00 0. -1.
         22    1    1    0    0    0 -0.12789379842E+02  0.27431688168E+01 -0.25343995136E+02  0.28520366431E+02  0.00000000000E+00 0.  1.
</event>
<event>
 5    1  0.6978980E-004  0.9118800E+02  0.7818608E-02  0.1130116E+00
         25   -1    0    0    0    0  0.00000000000E+00  0.00000000000E+00  0.99999998245E-14  0.12500000000E+03  0.12500000000E+03 0.  0.
        -13    1    3    3    0    0  0.34308412179E+02 -0.19852048434E+02 -0.30521589220E+02  0.50027487902E+02  0.10566000000E+00 0. -1.
         23    2    1    0    0    0  0.25865235555E+02 -0.17544628342E+02  0.10543619789E+02  0.92015271530E+02  0.85900045882E+02 0.  0.
         13    1    3    3    0    0 -0.84431766246E+01  0.23074200912E+01  0.41065209009E+02  0.41987783628E+02  0.10566000000E+00 0.  1.
         22    1    1    0    0    0 -0.25865235555E+02  0.17544628342E+02 -0.10543619789E+02  0.32984728470E+02  0.00000000000E+00 0. -1.
</event>
<event>
 5    1  0.6978980E-004  0.9118800E+02  0.7818608E-02  0.1130116E+00
         25   -1    0    0    0    0  0.00000000000E+00  0.00000000000E+00  0.99999998245E-14  0.12500000000E+03  0.12500000000E+03 0.  0.
        -13    1    3    3    0    0 -0.12216495419E+02  0.54490454926E+02  0.10143457283E+02  0.56756967220E+02  0.10566000000E+00 0. -1.
         23    2    1    0    0    0  0.10736874371E+02  0.22599633719E+02  0.14154022665E+02  0.96253517205E+02  0.91860651539E+02 0.  0.
         13    1    3    3    0    0  0.22953369790E+02 -0.31890821207E+02  0.40105653816E+01  0.39496549985E+02  0.10566000000E+00 0.  1.
         22    1    1    0    0    0 -0.10736874371E+02 -0.22599633719E+02 -0.14154022665E+02  0.28746482795E+02  0.00000000000E+00 0.  1.
</event>
<event>
 5    1  0.6978980E-004  0.9118800E+02  0.7818608E-02  0.1130116E+00
         25   -1    0    0    0    0  0.00000000000E+00  0.00000000000E+00  0.99999998245E-14  0.12500000000E+03  0.12500000000E+03 0.  0.
        -13    1    3    3    0    0 -0.38190483569E+02  0.84045572913E+01  0.28622172098E+02  0.48460184876E+02  0.10566000000E+00 0.  1.
         23    2    1    0    0    0 -0.15438748807E+02  0.23810891566E+02 -0.91625094289E+01  0.95179451700E+02  0.90387294047E+02 0.  0.
         13    1    3    3    0    0  0.22751734763E+02  0.15406334274E+02 -0.37784681527E+02  0.46719266825E+02  0.10566000000E+00 0. -1.
         22    1    1    0    0    0  0.15438748807E+02 -0.23810891566E+02  0.91625094289E+01  0.29820548300E+02  0.00000000000E+00 0.  1.
</event>
<event>
 5    1  0.6978980E-004  0.9118800E+02  0.7818608E-02  0.1130116E+00
         25   -1    0    0    0    0  0.00000000000E+00  0.00000000000E+00  0.99999998245E-14  0.12500000000E+03  0.12500000000E+03 0.  0.
        -13    1    3    3    0    0 -0.42243319659E+02 -0.25913942830E+02  0.15539333544E+02  0.51937583115E+02  0.10566000000E+00 0. -1.
         23    2    1    0    0    0 -0.62337183727E+01 -0.35884351018E+01  0.27991998762E+02  0.96098648718E+02  0.91649670918E+02 0.  0.
         13    1    3    3    0    0  0.36009601286E+02  0.22325507728E+02  0.12452665218E+02  0.44161065603E+02  0.10566000000E+00 0.  1.
         22    1    1    0    0    0  0.62337183727E+01  0.35884351018E+01 -0.27991998762E+02  0.28901351282E+02  0.00000000000E+00 0.  1.
</event>
<event>
 5    1  0.6978980E-004  0.9118800E+02  0.7818608E-02  0.1130116E+00
         25   -1    0    0    0    0  0.00000000000E+00  0.00000000000E+00  0.99999998245E-14  0.12500000000E+03  0.12500000000E+03 0.  0.
        -13    1    3    3    0    0 -0.39717884979E+02 -0.15333196820E+02 -0.39365118274E+02  0.57984834334E+02  0.10566000000E+00 0. -1.
         23    2    1    0    0    0 -0.28215334112E+02 -0.65618892891E+01 -0.45618174712E+01  0.95674692692E+02  0.91069606198E+02 0.  0.
         13    1    3    3    0    0  0.11502550868E+02  0.87713075307E+01  0.34803300803E+02  0.37689858358E+02  0.10566000000E+00 0.  1.
         22    1    1    0    0    0  0.28215334112E+02  0.65618892891E+01  0.45618174712E+01  0.29325307308E+02  0.00000000000E+00 0. -1.
</event>
<event>
 5    1  0.6978980E-004  0.9118800E+02  0.7818608E-02  0.1130116E+00
         25   -1    0    0    0    0  0.00000000000E+00  0.00000000000E+00  0.99999998245E-14  0.12500000000E+03  0.12500000000E+03 0.  0.
        -13    1    3    3    0    0 -0.25532248934E+02 -0.79149526334E+01  0.22268682792E+02  0.34791487582E+02  0.10566000000E+00 0.  1.
         23    2    1    0    0    0  0.28232496642E+02  0.62758089352E+01 -0.31031154712E+01  0.95912391468E+02  0.91395283615E+02 0.  0.
         13    1    3    3    0    0  0.53764745576E+02  0.14190761569E+02 -0.25371798263E+02  0.61120903887E+02  0.10566000000E+00 0. -1.
         22    1    1    0    0    0 -0.28232496642E+02 -0.62758089352E+01  0.31031154712E+01  0.29087608532E+02  0.00000000000E+00 0. -1.
</event>
<event>
 5    1  0.6978980E-004  0.9118800E+02  0.7818608E-02  0.1130116E+00
         25   -1    0    0    0    0  0.00000000000E+00  0.00000000000E+00  0.99999998245E-14  0.12500000000E+03  0.12500000000E+03 0.  0.
        -13    1    3    3    0    0 -0.26620956989E+02  0.21634818950E+02 -0.45818619630E+02  0.57237206526E+02  0.10566000000E+00 0. -1.
         23    2    1    0    0    0 -0.12311187064E+02  0.23995921569E+02 -0.93976436363E+01  0.96439795435E+02  0.92113782133E+02 0.  0.
         13    1    3    3    0    0  0.14309769925E+02  0.23611026183E+01  0.36420975994E+02  0.39202588910E+02  0.10566000000E+00 0.  1.
         22    1    1    0    0    0  0.12311187064E+02 -0.23995921569E+02  0.93976436363E+01  0.28560204565E+02  0.00000000000E+00 0. -1.
</event>
<event>
 5    1  0.6978980E-004  0.9118800E+02  0.7818608E-02  0.1130116E+00
         25   -1    0    0    0    0  0.00000000000E+00  0.00000000000E+00  0.99999998245E-14  0.12500000000E+03  0.12500000000E+03 0.  0.
        -13    1    3    3    0    0  0.38544820923E+02 -0.53817123322E+01  0.43169038094E+02  0.58122655321E+02  0.10566000000E+00 0. -1.
         23    2    1    0    0    0  0.27988259769E+02 -0.80725860843E+01  0.82158912134E+01  0.94734339601E+02  0.89769621255E+02 0.  0.
         13    1    3    3    0    0 -0.10556561154E+02 -0.26908737521E+01 -0.34953146880E+02  0.36611684280E+02  0.10566000000E+00 0.  1.
         22    1    1    0    0    0 -0.27988259769E+02  0.80725860843E+01 -0.82158912134E+01  0.30265660399E+02  0.00000000000E+00 0. -1.
</event>
<event>
 5    1  0.6978980E-004  0.9118800E+02  0.7818608E-02  0.1130116E+00
         25   -1    0    0    0    0  0.00000000000E+00  0.00000000000E+00  0.99999998245E-14  0.12500000000E+03  0.12500000000E+03 0.  0.
        -13    1    3    3    0    0  0.56031269130E+02 -0.66568573586E+01  0.14033155649E+02  0.58144281677E+02  0.10566000000E+00 0. -1.
         23    2    1    0    0    0  0.28112333073E+02 -0.13738559681E+02 -0.58821599095E+01  0.93162112223E+02  0.87553001409E+02 0.  0.
         13    1    3    3    0    0 -0.27918936057E+02 -0.70817023224E+01 -0.19915315559E+02  0.35017830546E+02  0.10566000000E+00 0.  1.
         22    1    1    0    0    0 -0.28112333073E+02  0.13738559681E+02  0.58821599095E+01  0.31837887777E+02  0.00000000000E+00 0. -1.
</event>
<event>
 5    1  0.6978980E-004  0.9118800E+02  0.7818608E-02  0.1130116E+00
         25   -1    0    0    0    0  0.00000000000E+00  0.00000000000E+00  0.99999998245E-14  0.12500000000E+03  0.12500000000E+03 0.  0.
        -13    1    3    3    0    0  0.42226335289E+01 -0.83733455986E+01 -0.41389630367E+02  0.42438852675E+02  0.10566000000E+00 0. -1.
         23    2    1    0    0    0 -0.25221288943E+02  0.82176685494E+01  0.30819683372E+01  0.98295280920E+02  0.94598204158E+02 0.  0.
         13    1    3    3    0    0 -0.29443922472E+02  0.16591014148E+02  0.44471598704E+02  0.55856428245E+02  0.10566000000E+00 0.  1.
         22    1    1    0    0    0  0.25221288943E+02 -0.82176685494E+01 -0.30819683372E+01  0.26704719080E+02  0.00000000000E+00 0.  1.
</event>
<event>
 5    1  0.6978980E-004  0.9118800E+02  0.7818608E-02  0.1130116E+00
         25   -1    0    0    0    0  0.00000000000E+00  0.00000000000E+00  0.99999998245E-14  0.12500000000E+03  0.12500000000E+03 0.  0.
        -13    1    3    3    0    0  0.40845525526E+01 -0.50516844811E+02  0.71424511095E+01  0.51182623527E+02  0.10566000000E+00 0. -1.
         23    2    1    0    0    0  0.26581126676E+02 -0.15004081939E+02 -0.26972284501E+01  0.94357646770E+02  0.89243552666E+02 0.  0.
         13    1    3    3    0    0  0.22496574123E+02  0.35512762872E+02 -0.98396795596E+01  0.43175023242E+02  0.10566000000E+00 0.  1.
         22    1    1    0    0    0 -0.26581126676E+02  0.15004081939E+02  0.26972284501E+01  0.30642353230E+02  0.00000000000E+00 0. -1.
</event>
<event>
 5    1  0.6978980E-004  0.9118800E+02  0.7818608E-02  0.1130116E+00
         25   -1    0    0    0    0  0.00000000000E+00  0.00000000000E+00  0.99999998245E-14  0.12500000000E+03  0.12500000000E+03 0.  0.
        -13    1    3    3    0    0 -0.35696084380E+01  0.10111708600E+02 -0.26674872725E+02  0.28749760941E+02  0.10566000000E+00 0.  1.
         23    2    1    0    0    0  0.15558939528E+02 -0.37238423507E+02 -0.46147323982E+01  0.84378865850E+02  0.73957531480E+02 0.  0.
         13    1    3    3    0    0  0.19128547966E+02 -0.47350132107E+02  0.22060140327E+02  0.55629104910E+02  0.10566000000E+00 0. -1.
         22    1    1    0    0    0 -0.15558939528E+02  0.37238423507E+02  0.46147323982E+01  0.40621134150E+02  0.00000000000E+00 0. -1.
</event>
<event>
 5    1  0.6978980E-004  0.9118800E+02  0.7818608E-02  0.1130116E+00
         25   -1    0    0    0    0  0.00000000000E+00  0.00000000000E+00  0.99999998245E-14  0.12500000000E+03  0.12500000000E+03 0.  0.
        -13    1    3    3    0    0  0.29088352317E+02  0.54141834148E+02  0.30953581946E+01  0.61539116436E+02  0.10566000000E+00 0.  1.
         23    2    1    0    0    0  0.19961940071E+02  0.21077255319E+02  0.10941812343E+00  0.95969985954E+02  0.91474020839E+02 0.  0.
         13    1    3    3    0    0 -0.91264122455E+01 -0.33064578829E+02 -0.29859400711E+01  0.34430869518E+02  0.10566000000E+00 0. -1.
         22    1    1    0    0    0 -0.19961940071E+02 -0.21077255319E+02 -0.10941812343E+00  0.29030014046E+02  0.00000000000E+00 0.  1.
</event>
<event>
 5    1  0.6978980E-004  0.9118800E+02  0.7818608E-02  0.1130116E+00
         25   -1    0    0    0    0  0.00000000000E+00  0.00000000000E+00  0.99999998245E-14  0.12500000000E+03  0.12500000000E+03 0.  0.
        -13    1    3    3    0    0 -0.25599787005E+02 -0.40616212400E+02 -0.36306105334E+01  0.48147879510E+02  0.10566000000E+00 0.  1.
         23    2    1    0    0    0 -0.32401392339E+02 -0.26809976273E+01  0.12819152000E+02  0.90051915191E+02  0.82993847952E+02 0.  0.
         13    1    3    3    0    0 -0.68016053338E+01  0.37935214772E+02  0.16449762533E+02  0.41904035681E+02  0.10566000000E+00 0. -1.
         22    1    1    0    0    0  0.32401392339E+02  0.26809976273E+01 -0.12819152000E+02  0.34948084809E+02  0.00000000000E+00 0.  1.
</event>
<event>
 5    1  0.6978980E-004  0.9118800E+02  0.7818608E-02  0.1130116E+00
         25   -1    0    0    0    0  0.00000000000E+00  0.00000000000E+00  0.99999998245E-14  0.12500000000E+03  0.12500000000E+03 0.  0.
        -13    1    3    3    0    0  0.55134732423E+01 -0.90273467399E+01  0.53441684745E+02  0.54478584864E+02  0.10566000000E+00 0. -1.
         23    2    1    0    0    0  0.20595018792E+02  0.83299935109E+01  0.19717115513E+02  0.95296326236E+02  0.90548779998E+02 0.  0.
         13    1    3    3    0    0  0.15081545550E+02  0.17357340251E+02 -0.33724569233E+02  0.40817741372E+02  0.10566000000E+00 0.  1.
         22    1    1    0    0    0 -0.20595018792E+02 -0.83299935109E+01 -0.19717115513E+02  0.29703673764E+02  0.00000000000E+00 0. -1.
</event>
<event>
 5    1  0.6978980E-004  0.9118800E+02  0.7818608E-02  0.1130116E+00
         25   -1    0    0    0    0  0.00000000000E+00  0.00000000000E+00  0.99999998245E-14  0.12500000000E+03  0.12500000000E+03 0.  0.
        -13    1    3    3    0    0  0.25328326208E+02 -0.37688140214E+02  0.18238774165E+02  0.48934487515E+02  0.10566000000E+00 0. -1.
         23    2    1    0    0    0 -0.26019694057E+01 -0.29073991905E+01  0.29743633649E+02  0.95001550748E+02  0.90140932362E+02 0.  0.
         13    1    3    3    0    0 -0.27930295613E+02  0.34780741023E+02  0.11504859484E+02  0.46067063233E+02  0.10566000000E+00 0.  1.
         22    1    1    0    0    0  0.26019694057E+01  0.29073991905E+01 -0.29743633649E+02  0.29998449252E+02  0.00000000000E+00 0. -1.
</event>
<event>
 5    1  0.6978980E-004  0.9118800E+02  0.7818608E-02  0.1130116E+00
         25   -1    0    0    0    0  0.00000000000E+00  0.00000000000E+00  0.99999998245E-14  0.12500000000E+03  0.12500000000E+03 0.  0.
        -13    1    3    3    0    0  0.36375273943E+01  0.31198961199E+02  0.14750554023E+02  0.34701538777E+02  0.10566000000E+00 0. -1.
         23    2    1    0    0    0 -0.25245824817E+01 -0.12370993426E+02 -0.26895720753E+02  0.95288137220E+02  0.90537474589E+02 0.  0.
         13    1    3    3    0    0 -0.61621098760E+01 -0.43569954625E+02 -0.41646274776E+02  0.60586598443E+02  0.10566000000E+00 0.  1.
         22    1    1    0    0    0  0.25245824817E+01  0.12370993426E+02  0.26895720753E+02  0.29711862780E+02  0.00000000000E+00 0.  1.
</event>
<event>
 5    1  0.6978980E-004  0.9118800E+02  0.7818608E-02  0.1130116E+00
         25   -1    0    0    0    0  0.00000000000E+00  0.00000000000E+00  0.99999998245E-14  0.12500000000E+03  0.12500000000E+03 0.  0.
        -13    1    3    3    0    0  0.31236142591E+02  0.72297930684E+00  0.33999849954E+01  0.31429132426E+02  0.10566000000E+00 0. -1.
         23    2    1    0    0    0 -0.29713294055E+02 -0.73978242929E+01 -0.64676367337E+01  0.93704026253E+02  0.88323307022E+02 0.  0.
         13    1    3    3    0    0 -0.60949436646E+02 -0.81208035997E+01 -0.98676217291E+01  0.62274893827E+02  0.10566000000E+00 0.  1.
         22    1    1    0    0    0  0.29713294055E+02  0.73978242929E+01  0.64676367337E+01  0.31295973747E+02  0.00000000000E+00 0.  1.
</event>
<event>
 5    1  0.6978980E-004  0.9118800E+02  0.7818608E-02  0.1130116E+00
         25   -1    0    0    0    0  0.00000000000E+00  0.00000000000E+00  0.99999998245E-14  0.12500000000E+03  0.12500000000E+03 0.  0.
        -13    1    3    3    0    0  0.49642811163E+02 -0.89942576288E+01 -0.36335590962E+02  0.62173882821E+02  0.10566000000E+00 0. -1.
         23    2    1    0    0    0  0.22336580677E+02 -0.82470903931E+01 -0.19121217340E+02  0.94462182644E+02  0.89389852114E+02 0.  0.
         13    1    3    3    0    0 -0.27306230486E+02  0.74716723579E+00  0.17214373622E+02  0.32288299823E+02  0.10566000000E+00 0.  1.
         22    1    1    0    0    0 -0.22336580677E+02  0.82470903931E+01  0.19121217340E+02  0.30537817356E+02  0.00000000000E+00 0. -1.
</event>
<event>
 5    1  0.6978980E-004  0.9118800E+02  0.7818608E-02  0.1130116E+00
         25   -1    0    0    0    0  0.00000000000E+00  0.00000000000E+00  0.99999998245E-14  0.12500000000E+03  0.12500000000E+03 0.  0.
        -13    1    3    3    0    0 -0.39362332554E+02 -0.40892292231E+02 -0.11134088715E+02  0.57840745876E+02  0.10566000000E+00 0. -1.
         23    2    1    0    0    0 -0.24713191167E+02 -0.60470408159E+01  0.52223216049E+01  0.99027299654E+02  0.95560582426E+02 0.  0.
         13    1    3    3    0    0  0.14649141386E+02  0.34845251415E+02  0.16356410320E+02  0.41186553778E+02  0.10566000000E+00 0.  1.
         22    1    1    0    0    0  0.24713191167E+02  0.60470408159E+01 -0.52223216049E+01  0.25972700346E+02  0.00000000000E+00 0. -1.
</event>
<event>
 5    1  0.6978980E-004  0.9118800E+02  0.7818608E-02  0.1130116E+00
         25   -1    0    0    0    0  0.00000000000E+00  0.00000000000E+00  0.99999998245E-14  0.12500000000E+03  0.12500000000E+03 0.  0.
        -13    1    3    3    0    0 -0.20129194690E+02  0.21754292107E+02  0.35757385336E+02  0.46443895982E+02  0.10566000000E+00 0.  1.
         23    2    1    0    0    0  0.69321157976E+01 -0.16171414360E+02  0.25283023798E+02  0.94197400042E+02  0.89018818294E+02 0.  0.
         13    1    3    3    0    0  0.27061310488E+02 -0.37925706466E+02 -0.10474361538E+02  0.47753504059E+02  0.10566000000E+00 0. -1.
         22    1    1    0    0    0 -0.69321157976E+01  0.16171414360E+02 -0.25283023798E+02  0.30802599958E+02  0.00000000000E+00 0. -1.
</event>
<event>
 5    1  0.6978980E-004  0.9118800E+02  0.7818608E-02  0.1130116E+00
         25   -1    0    0    0    0  0.00000000000E+00  0.00000000000E+00  0.99999998245E-14  0.12500000000E+03  0.12500000000E+03 0.  0.
        -13    1    3    3    0    0  0.27682681311E+02 -0.34509747627E+02  0.39290264228E+02  0.59169160489E+02  0.10566000000E+00 0. -1.
         23    2    1    0    0    0  0.29008502945E+02 -0.20506874849E+02  0.16783158423E+02  0.85710057701E+02  0.76174237281E+02 0.  0.
         13    1    3    3    0    0  0.13258216344E+01  0.14002872778E+02 -0.22507105806E+02  0.26540897212E+02  0.10566000000E+00 0.  1.
         22    1    1    0    0    0 -0.29008502945E+02  0.20506874849E+02 -0.16783158423E+02  0.39289942299E+02  0.00000000000E+00 0. -1.
</event>
<event>
 5    1  0.6978980E-004  0.9118800E+02  0.7818608E-02  0.1130116E+00
         25   -1    0    0    0    0  0.00000000000E+00  0.00000000000E+00  0.99999998245E-14  0.12500000000E+03  0.12500000000E+03 0.  0.
        -13    1    3    3    0    0 -0.84792225771E+01 -0.42231056025E+02 -0.18906563931E+01  0.43115485085E+02  0.10566000000E+00 0. -1.
         23    2    1    0    0    0  0.29614671040E+02 -0.92106181058E+01  0.33744648942E+01  0.93803025146E+02  0.88463304746E+02 0.  0.
         13    1    3    3    0    0  0.38093893617E+02  0.33020437919E+02  0.52651212874E+01  0.50687540061E+02  0.10566000000E+00 0.  1.
         22    1    1    0    0    0 -0.29614671040E+02  0.92106181058E+01 -0.33744648942E+01  0.31196974854E+02  0.00000000000E+00 0. -1.
</event>
<event>
 5    1  0.6978980E-004  0.9118800E+02  0.7818608E-02  0.1130116E+00
         25   -1    0    0    0    0  0.00000000000E+00  0.00000000000E+00  0.99999998245E-14  0.12500000000E+03  0.12500000000E+03 0.  0.
        -13    1    3    3    0    0 -0.20218891026E+02  0.29494275850E+02 -0.32801934937E+02  0.48525188942E+02  0.10566000000E+00 0. -1.
         23    2    1    0    0    0  0.21011981881E+02  0.11045552160E+02 -0.13905555989E+02  0.97488691553E+02  0.93526321900E+02 0.  0.
         13    1    3    3    0    0  0.41230872908E+02 -0.18448723689E+02  0.18896378949E+02  0.48963502610E+02  0.10566000000E+00 0.  1.
         22    1    1    0    0    0 -0.21011981881E+02 -0.11045552160E+02  0.13905555989E+02  0.27511308447E+02  0.00000000000E+00 0.  1.
</event>
<event>
 5    1  0.6978980E-004  0.9118800E+02  0.7818608E-02  0.1130116E+00
         25   -1    0    0    0    0  0.00000000000E+00  0.00000000000E+00  0.99999998245E-14  0.12500000000E+03  0.12500000000E+03 0.  0.
        -13    1    3    3    0    0 -0.30847899538E+02  0.17286159592E+02  0.45148399004E+02  0.57348001848E+02  0.10566000000E+00 0. -1.
         23    2    1    0    0    0 -0.95043989439E+01  0.24375808705E+02  0.15401140134E+02  0.94640343106E+02  0.89638639975E+02 0.  0.
         13    1    3    3    0    0  0.21343500594E+02  0.70896491129E+01 -0.29747258870E+02  0.37292341258E+02  0.10566000000E+00 0.  1.
         22    1    1    0    0    0  0.95043989439E+01 -0.24375808705E+02 -0.15401140134E+02  0.30359656894E+02  0.00000000000E+00 0. -1.
</event>
<event>
 5    1  0.6978980E-004  0.9118800E+02  0.7818608E-02  0.1130116E+00
         25   -1    0    0    0    0  0.00000000000E+00  0.00000000000E+00  0.99999998245E-14  0.12500000000E+03  0.12500000000E+03 0.  0.
        -13    1    3    3    0    0 -0.94201809499E+01 -0.25659440456E+02  0.24313078746E+02  0.36582559448E+02  0.10566000000E+00 0.  1.
         23    2    1    0    0    0  0.24554272921E+02  0.12393853399E+02 -0.72309158194E+01  0.96560484105E+02  0.92277413414E+02 0.  0.
         13    1    3    3    0    0  0.33974453871E+02  0.38053293855E+02 -0.31543994566E+02  0.59977924657E+02  0.10566000000E+00 0. -1.
         22    1    1    0    0    0 -0.24554272921E+02 -0.12393853399E+02  0.72309158194E+01  0.28439515895E+02  0.00000000000E+00 0. -1.
</event>
<event>
 5    1  0.6978980E-004  0.9118800E+02  0.7818608E-02  0.1130116E+00
         25   -1    0    0    0    0  0.00000000000E+00  0.00000000000E+00  0.99999998245E-14  0.12500000000E+03  0.12500000000E+03 0.  0.
        -13    1    3    3    0    0  0.21732485686E+02 -0.55275732422E+02  0.25576765324E+01  0.59449645938E+02  0.10566000000E+00 0. -1.
         23    2    1    0    0    0  0.14396929601E+01 -0.27098825453E+02  0.11839573315E+02  0.95392660487E+02  0.90681669160E+02 0.  0.
         13    1    3    3    0    0 -0.20292792726E+02  0.28176906969E+02  0.92818967828E+01  0.35943014549E+02  0.10566000000E+00 0.  1.
         22    1    1    0    0    0 -0.14396929601E+01  0.27098825453E+02 -0.11839573315E+02  0.29607339513E+02  0.00000000000E+00 0. -1.
</event>
<event>
 5    1  0.6978980E-004  0.9118800E+02  0.7818608E-02  0.1130116E+00
         25   -1    0    0    0    0  0.00000000000E+00  0.00000000000E+00  0.99999998245E-14  0.12500000000E+03  0.12500000000E+03 0.  0.
        -13    1    3    3    0    0  0.24384593703E+02 -0.21552535341E+02 -0.18646227536E+02  0.37507507982E+02  0.10566000000E+00 0.  1.
         23    2    1    0    0    0  0.94560443846E+01  0.24698768040E+02  0.13027402221E+02  0.95518495175E+02  0.90854960205E+02 0.  0.
         13    1    3    3    0    0 -0.14928549318E+02  0.46251303381E+02  0.31673629757E+02  0.58010987194E+02  0.10566000000E+00 0. -1.
         22    1    1    0    0    0 -0.94560443846E+01 -0.24698768040E+02 -0.13027402221E+02  0.29481504825E+02  0.00000000000E+00 0. -1.
</event>
<event>
 5    1  0.6978980E-004  0.9118800E+02  0.7818608E-02  0.1130116E+00
         25   -1    0    0    0    0  0.00000000000E+00  0.00000000000E+00  0.99999998245E-14  0.12500000000E+03  0.12500000000E+03 0.  0.
        -13    1    3    3    0    0  0.24325698303E+02  0.28279851765E+02 -0.40916678544E+02  0.55368541257E+02  0.10566000000E+00 0.  1.
         23    2    1    0    0    0  0.25785051060E+02 -0.18198618247E+01 -0.15009789618E+02  0.95108955529E+02  0.90289749596E+02 0.  0.
         13    1    3    3    0    0  0.14593527566E+01 -0.30099713590E+02  0.25906888926E+02  0.39740414272E+02  0.10566000000E+00 0. -1.
         22    1    1    0    0    0 -0.25785051060E+02  0.18198618247E+01  0.15009789618E+02  0.29891044471E+02  0.00000000000E+00 0.  1.
</event>
<event>
 5    1  0.6978980E-004  0.9118800E+02  0.7818608E-02  0.1130116E+00
         25   -1    0    0    0    0  0.00000000000E+00  0.00000000000E+00  0.99999998245E-14  0.12500000000E+03  0.12500000000E+03 0.  0.
        -13    1    3    3    0    0 -0.17595020772E+02 -0.27538384230E+02 -0.44447934092E+02  0.55168626692E+02  0.10566000000E+00 0.  1.
         23    2    1    0    0    0 -0.24497017258E+02  0.73005201151E+00 -0.16975872870E+02  0.95186964425E+02  0.90397683080E+02 0.  0.
         13    1    3    3    0    0 -0.69019964862E+01  0.28268436242E+02  0.27472061223E+02  0.40018337733E+02  0.10566000000E+00 0. -1.
         22    1    1    0    0    0  0.24497017258E+02 -0.73005201151E+00  0.16975872870E+02  0.29813035575E+02  0.00000000000E+00 0.  1.
</event>
<event>
 5    1  0.6978980E-004  0.9118800E+02  0.7818608E-02  0.1130116E+00
         25   -1    0    0    0    0  0.00000000000E+00  0.00000000000E+00  0.99999998245E-14  0.12500000000E+03  0.12500000000E+03 0.  0.
        -13    1    3    3    0    0  0.24618390041E+02 -0.29737854852E+02  0.27849252849E+02  0.47602491402E+02  0.10566000000E+00 0.  1.
         23    2    1    0    0    0 -0.10657089936E+02 -0.28495741976E+02 -0.29312738204E+01  0.94435752211E+02  0.89352884972E+02 0.  0.
         13    1    3    3    0    0 -0.35275479977E+02  0.12421128762E+01 -0.30780526669E+02  0.46833260809E+02  0.10566000000E+00 0. -1.
         22    1    1    0    0    0  0.10657089936E+02  0.28495741976E+02  0.29312738204E+01  0.30564247789E+02  0.00000000000E+00 0. -1.
</event>
<event>
 5    1  0.6978980E-004  0.9118800E+02  0.7818608E-02  0.1130116E+00
         25   -1    0    0    0    0  0.00000000000E+00  0.00000000000E+00  0.99999998245E-14  0.12500000000E+03  0.12500000000E+03 0.  0.
        -13    1    3    3    0    0  0.23248364992E+02  0.31952596510E+02  0.84565518538E+01  0.40410138973E+02  0.10566000000E+00 0.  1.
         23    2    1    0    0    0  0.14336089762E+02 -0.22409675720E+02  0.12420003716E+02  0.95640614315E+02  0.91022819000E+02 0.  0.
         13    1    3    3    0    0 -0.89122752303E+01 -0.54362272230E+02  0.39634518618E+01  0.55230475342E+02  0.10566000000E+00 0. -1.
         22    1    1    0    0    0 -0.14336089762E+02  0.22409675720E+02 -0.12420003716E+02  0.29359385685E+02  0.00000000000E+00 0. -1.
</event>
<event>
 5    1  0.6978980E-004  0.9118800E+02  0.7818608E-02  0.1130116E+00
         25   -1    0    0    0    0  0.00000000000E+00  0.00000000000E+00  0.99999998245E-14  0.12500000000E+03  0.12500000000E+03 0.  0.
        -13    1    3    3    0    0 -0.19188863597E+02  0.36589498454E+02  0.40314870766E+02  0.57726110662E+02  0.10566000000E+00 0. -1.
         23    2    1    0    0    0 -0.90921701405E+01  0.28387606055E+02  0.57708011783E+01  0.94638414376E+02  0.89635950343E+02 0.  0.
         13    1    3    3    0    0  0.10096693457E+02 -0.82018923996E+01 -0.34544069588E+02  0.36912303713E+02  0.10566000000E+00 0.  1.
         22    1    1    0    0    0  0.90921701405E+01 -0.28387606055E+02 -0.57708011783E+01  0.30361585624E+02  0.00000000000E+00 0. -1.
</event>
<event>
 5    1  0.6978980E-004  0.9118800E+02  0.7818608E-02  0.1130116E+00
         25   -1    0    0    0    0  0.00000000000E+00  0.00000000000E+00  0.99999998245E-14  0.12500000000E+03  0.12500000000E+03 0.  0.
        -13    1    3    3    0    0  0.22088562091E+01 -0.43726073940E+02 -0.17594106330E+02  0.47184873949E+02  0.10566000000E+00 0. -1.
         23    2    1    0    0    0 -0.14848014120E+02 -0.16023364843E+02  0.18927844790E+02  0.96095414678E+02  0.91645259940E+02 0.  0.
         13    1    3    3    0    0 -0.17056870329E+02  0.27702709097E+02  0.36521951121E+02  0.48910540729E+02  0.10566000000E+00 0.  1.
         22    1    1    0    0    0  0.14848014120E+02  0.16023364843E+02 -0.18927844790E+02  0.28904585322E+02  0.00000000000E+00 0. -1.
</event>
<event>
 5    1  0.6978980E-004  0.9118800E+02  0.7818608E-02  0.1130116E+00
         25   -1    0    0    0    0  0.00000000000E+00  0.00000000000E+00  0.99999998245E-14  0.12500000000E+03  0.12500000000E+03 0.  0.
        -13    1    3    3    0    0 -0.18583752357E+02 -0.32637583290E+02  0.89830983662E+00  0.37568415182E+02  0.10566000000E+00 0.  1.
         23    2    1    0    0    0 -0.18638778878E+02  0.24072640643E+02 -0.29697886826E+01  0.94410528765E+02  0.89317591723E+02 0.  0.
         13    1    3    3    0    0 -0.55026520663E-01  0.56710223933E+02 -0.38680985192E+01  0.56842113583E+02  0.10566000000E+00 0. -1.
         22    1    1    0    0    0  0.18638778878E+02 -0.24072640643E+02  0.29697886826E+01  0.30589471235E+02  0.00000000000E+00 0. -1.
</event>
<event>
 5    1  0.6978980E-004  0.9118800E+02  0.7818608E-02  0.1130116E+00
         25   -1    0    0    0    0  0.00000000000E+00  0.00000000000E+00  0.99999998245E-14  0.12500000000E+03  0.12500000000E+03 0.  0.
        -13    1    3    3    0    0 -0.24834966916E+02 -0.44194712656E+02  0.26306202222E+02  0.57113708055E+02  0.10566000000E+00 0.  1.
         23    2    1    0    0    0 -0.14313025721E+02 -0.24258806958E+02 -0.57008826228E+01  0.96262350775E+02  0.91872671093E+02 0.  0.
         13    1    3    3    0    0  0.10521941195E+02  0.19935905698E+02 -0.32007084844E+02  0.39148642720E+02  0.10566000000E+00 0. -1.
         22    1    1    0    0    0  0.14313025721E+02  0.24258806958E+02  0.57008826228E+01  0.28737649225E+02  0.00000000000E+00 0. -1.
</event>
<event>
 5    1  0.6978980E-004  0.9118800E+02  0.7818608E-02  0.1130116E+00
         25   -1    0    0    0    0  0.00000000000E+00  0.00000000000E+00  0.99999998245E-14  0.12500000000E+03  0.12500000000E+03 0.  0.
        -13    1    3    3    0    0 -0.29896728793E+02 -0.14726024900E+02  0.16370417435E+02  0.37130471758E+02  0.10566000000E+00 0. -1.
         23    2    1    0    0    0  0.27448506072E+02 -0.23609857625E+01  0.30974989050E+01  0.97276557955E+02  0.93242369601E+02 0.  0.
         13    1    3    3    0    0  0.57345234865E+02  0.12365039137E+02 -0.13272918530E+02  0.60146086198E+02  0.10566000000E+00 0.  1.
         22    1    1    0    0    0 -0.27448506072E+02  0.23609857625E+01 -0.30974989050E+01  0.27723442045E+02  0.00000000000E+00 0.  1.
</event>
<event>
 5    1  0.6978980E-004  0.9118800E+02  0.7818608E-02  0.1130116E+00
         25   -1    0    0    0    0  0.00000000000E+00  0.00000000000E+00  0.99999998245E-14  0.12500000000E+03  0.12500000000E+03 0.  0.
        -13    1    3    3    0    0 -0.15783869505E+02 -0.38882364446E+02  0.15266942540E+02  0.44654893349E+02  0.10566000000E+00 0. -1.
         23    2    1    0    0    0  0.23887050456E+02 -0.14211498354E+02 -0.68963545573E+01  0.96362305066E+02  0.92008566267E+02 0.  0.
         13    1    3    3    0    0  0.39670919961E+02  0.24670866092E+02 -0.22163297097E+02  0.51707411717E+02  0.10566000000E+00 0.  1.
         22    1    1    0    0    0 -0.23887050456E+02  0.14211498354E+02  0.68963545573E+01  0.28637694934E+02  0.00000000000E+00 0.  1.
</event>
<event>
 5    1  0.6978980E-004  0.9118800E+02  0.7818608E-02  0.1130116E+00
         25   -1    0    0    0    0  0.00000000000E+00  0.00000000000E+00  0.99999998245E-14  0.12500000000E+03  0.12500000000E+03 0.  0.
        -13    1    3    3    0    0 -0.30479393115E+02  0.46540733161E+02 -0.20916814850E+02  0.59435322455E+02  0.10566000000E+00 0. -1.
         23    2    1    0    0    0 -0.17938491554E+02  0.12936793108E+02 -0.19791338380E+02  0.95320930439E+02  0.90582739028E+02 0.  0.
         13    1    3    3    0    0  0.12540901561E+02 -0.33603940053E+02  0.11254764699E+01  0.35885607984E+02  0.10566000000E+00 0.  1.
         22    1    1    0    0    0  0.17938491554E+02 -0.12936793108E+02  0.19791338380E+02  0.29679069561E+02  0.00000000000E+00 0. -1.
</event>
<event>
 5    1  0.6978980E-004  0.9118800E+02  0.7818608E-02  0.1130116E+00
         25   -1    0    0    0    0  0.00000000000E+00  0.00000000000E+00  0.99999998245E-14  0.12500000000E+03  0.12500000000E+03 0.  0.
        -13    1    3    3    0    0  0.39576400963E+02  0.16088177220E+02 -0.92420465690E+00  0.42731560675E+02  0.10566000000E+00 0. -1.
         23    2    1    0    0    0  0.90286384565E+01 -0.27828841917E+01  0.32113946126E+02  0.91525139394E+02  0.85183829736E+02 0.  0.
         13    1    3    3    0    0 -0.30547762506E+02 -0.18871061412E+02  0.33038150783E+02  0.48793578719E+02  0.10566000000E+00 0.  1.
         22    1    1    0    0    0 -0.90286384565E+01  0.27828841917E+01 -0.32113946126E+02  0.33474860606E+02  0.00000000000E+00 0. -1.
</event>
<event>
 5    1  0.6978980E-004  0.9118800E+02  0.7818608E-02  0.1130116E+00
         25   -1    0    0    0    0  0.00000000000E+00  0.00000000000E+00  0.99999998245E-14  0.12500000000E+03  0.12500000000E+03 0.  0.
        -13    1    3    3    0    0  0.42230409859E+02 -0.30750636073E+02  0.24504044143E+02  0.57701546593E+02  0.10566000000E+00 0. -1.
         23    2    1    0    0    0  0.23948190587E+02  0.24596979432E+01  0.14449558034E+02  0.96922327844E+02  0.92766275989E+02 0.  0.
         13    1    3    3    0    0 -0.18282219273E+02  0.33210334016E+02 -0.10054486109E+02  0.39220781251E+02  0.10566000000E+00 0.  1.
         22    1    1    0    0    0 -0.23948190587E+02 -0.24596979432E+01 -0.14449558034E+02  0.28077672156E+02  0.00000000000E+00 0. -1.
</event>
<event>
 5    1  0.6978980E-004  0.9118800E+02  0.7818608E-02  0.1130116E+00
         25   -1    0    0    0    0  0.00000000000E+00  0.00000000000E+00  0.99999998245E-14  0.12500000000E+03  0.12500000000E+03 0.  0.
        -13    1    3    3    0    0  0.36034732392E+01 -0.21830722217E+02 -0.39597549143E+02  0.45360142351E+02  0.10566000000E+00 0. -1.
         23    2    1    0    0    0 -0.20913297687E+02  0.13584932837E+02 -0.21469620967E+02  0.92093145930E+02  0.86013292476E+02 0.  0.
         13    1    3    3    0    0 -0.24516770926E+02  0.35415655054E+02  0.18127928176E+02  0.46733003579E+02  0.10566000000E+00 0.  1.
         22    1    1    0    0    0  0.20913297687E+02 -0.13584932837E+02  0.21469620967E+02  0.32906854070E+02  0.00000000000E+00 0. -1.
</event>
<event>
 5    1  0.6978980E-004  0.9118800E+02  0.7818608E-02  0.1130116E+00
         25   -1    0    0    0    0  0.00000000000E+00  0.00000000000E+00  0.99999998245E-14  0.12500000000E+03  0.12500000000E+03 0.  0.
        -13    1    3    3    0    0 -0.46111390171E+01 -0.11449924289E+02 -0.33543561425E+02  0.35742762154E+02  0.10566000000E+00 0.  1.
         23    2    1    0    0    0  0.13566707311E+02  0.91853864021E+01  0.21910587293E+02  0.97641259054E+02  0.93730009941E+02 0.  0.
         13    1    3    3    0    0  0.18177846328E+02  0.20635310691E+02  0.55454148718E+02  0.61898496900E+02  0.10566000000E+00 0. -1.
         22    1    1    0    0    0 -0.13566707311E+02 -0.91853864021E+01 -0.21910587293E+02  0.27358740946E+02  0.00000000000E+00 0. -1.
</event>
<event>
 5    1  0.6978980E-004  0.9118800E+02  0.7818608E-02  0.1130116E+00
         25   -1    0    0    0    0  0.00000000000E+00  0.00000000000E+00  0.99999998245E-14  0.12500000000E+03  0.12500000000E+03 0.  0.
        -13    1    3    3    0    0 -0.32525479926E+02  0.51742229680E+02 -0.64790199720E+00  0.61119523212E+02  0.10566000000E+00 0. -1.
         23    2    1    0    0    0 -0.83496550472E+01  0.27411221982E+02  0.50921761828E+01  0.95896356100E+02  0.91373349643E+02 0.  0.
         13    1    3    3    0    0  0.24175824879E+02 -0.24331007698E+02  0.57400781800E+01  0.34776832888E+02  0.10566000000E+00 0.  1.
         22    1    1    0    0    0  0.83496550472E+01 -0.27411221982E+02 -0.50921761828E+01  0.29103643900E+02  0.00000000000E+00 0. -1.
</event>
<event>
 5    1  0.6978980E-004  0.9118800E+02  0.7818608E-02  0.1130116E+00
         25   -1    0    0    0    0  0.00000000000E+00  0.00000000000E+00  0.99999998245E-14  0.12500000000E+03  0.12500000000E+03 0.  0.
        -13    1    3    3    0    0 -0.16543556599E+02  0.12387307755E+02  0.26844087710E+02  0.33878472034E+02  0.10566000000E+00 0. -1.
         23    2    1    0    0    0  0.14027005848E+02 -0.21242555964E+02 -0.14828567960E+02  0.95540035562E+02  0.90884591051E+02 0.  0.
         13    1    3    3    0    0  0.30570562447E+02 -0.33629863719E+02 -0.41672655670E+02  0.61661563528E+02  0.10566000000E+00 0.  1.
         22    1    1    0    0    0 -0.14027005848E+02  0.21242555964E+02  0.14828567960E+02  0.29459964438E+02  0.00000000000E+00 0.  1.
</event>
<event>
 5    1  0.6978980E-004  0.9118800E+02  0.7818608E-02  0.1130116E+00
         25   -1    0    0    0    0  0.00000000000E+00  0.00000000000E+00  0.99999998245E-14  0.12500000000E+03  0.12500000000E+03 0.  0.
        -13    1    3    3    0    0  0.11892601133E+02 -0.22702167604E+02  0.54234561917E+02  0.59985175218E+02  0.10566000000E+00 0. -1.
         23    2    1    0    0    0 -0.16758713630E+01 -0.19078071525E+01  0.30696557450E+02  0.94198589119E+02  0.89020487978E+02 0.  0.
         13    1    3    3    0    0 -0.13568472496E+02  0.20794360451E+02 -0.23538004467E+02  0.34213413901E+02  0.10566000000E+00 0.  1.
         22    1    1    0    0    0  0.16758713630E+01  0.19078071525E+01 -0.30696557450E+02  0.30801410881E+02  0.00000000000E+00 0. -1.
</event>
<event>
 5    1  0.6978980E-004  0.9118800E+02  0.7818608E-02  0.1130116E+00
         25   -1    0    0    0    0  0.00000000000E+00  0.00000000000E+00  0.99999998245E-14  0.12500000000E+03  0.12500000000E+03 0.  0.
        -13    1    3    3    0    0  0.40989855681E+02 -0.19633475276E+02  0.21239760723E+02  0.50167521563E+02  0.10566000000E+00 0.  1.
         23    2    1    0    0    0 -0.39330346536E+01 -0.10522533407E+02  0.26414229545E+02  0.96296272135E+02  0.91918812186E+02 0.  0.
         13    1    3    3    0    0 -0.44922890334E+02  0.91109418693E+01  0.51744688223E+01  0.46128750572E+02  0.10566000000E+00 0. -1.
         22    1    1    0    0    0  0.39330346536E+01  0.10522533407E+02 -0.26414229545E+02  0.28703727865E+02  0.00000000000E+00 0. -1.
</event>
<event>
 5    1  0.6978980E-004  0.9118800E+02  0.7818608E-02  0.1130116E+00
         25   -1    0    0    0    0  0.00000000000E+00  0.00000000000E+00  0.99999998245E-14  0.12500000000E+03  0.12500000000E+03 0.  0.
        -13    1    3    3    0    0  0.68720147863E+01  0.42860265296E+02  0.83656684056E+01  0.44206588880E+02  0.10566000000E+00 0.  1.
         23    2    1    0    0    0  0.23294924189E+02 -0.72390587652E+01  0.13398467732E+02  0.97168787264E+02  0.93097780940E+02 0.  0.
         13    1    3    3    0    0  0.16422909403E+02 -0.50099324061E+02  0.50327993259E+01  0.52962198385E+02  0.10566000000E+00 0. -1.
         22    1    1    0    0    0 -0.23294924189E+02  0.72390587652E+01 -0.13398467732E+02  0.27831212736E+02  0.00000000000E+00 0. -1.
</event>
<event>
 5    1  0.6978980E-004  0.9118800E+02  0.7818608E-02  0.1130116E+00
         25   -1    0    0    0    0  0.00000000000E+00  0.00000000000E+00  0.99999998245E-14  0.12500000000E+03  0.12500000000E+03 0.  0.
        -13    1    3    3    0    0  0.34741124998E+02  0.72594765154E+01 -0.27104375172E+02  0.44657631855E+02  0.10566000000E+00 0. -1.
         23    2    1    0    0    0 -0.43245608012E+01 -0.24304634788E+02 -0.14232614090E+02  0.96504659993E+02  0.92201762446E+02 0.  0.
         13    1    3    3    0    0 -0.39065685799E+02 -0.31564111304E+02  0.12871761082E+02  0.51847028138E+02  0.10566000000E+00 0.  1.
         22    1    1    0    0    0  0.43245608012E+01  0.24304634788E+02  0.14232614090E+02  0.28495340007E+02  0.00000000000E+00 0.  1.
</event>
<event>
 5    1  0.6978980E-004  0.9118800E+02  0.7818608E-02  0.1130116E+00
         25   -1    0    0    0    0  0.00000000000E+00  0.00000000000E+00  0.99999998245E-14  0.12500000000E+03  0.12500000000E+03 0.  0.
        -13    1    3    3    0    0 -0.21537574138E+02 -0.47058205695E+02 -0.22649898432E+02  0.56492219694E+02  0.10566000000E+00 0. -1.
         23    2    1    0    0    0 -0.17514350224E+02 -0.20019759967E+02  0.76706786537E+01  0.97316384558E+02  0.93295745560E+02 0.  0.
         13    1    3    3    0    0  0.40232239140E+01  0.27038445728E+02  0.30320577085E+02  0.40824164864E+02  0.10566000000E+00 0.  1.
         22    1    1    0    0    0  0.17514350224E+02  0.20019759967E+02 -0.76706786537E+01  0.27683615442E+02  0.00000000000E+00 0. -1.
</event>
<event>
 5    1  0.6978980E-004  0.9118800E+02  0.7818608E-02  0.1130116E+00
         25   -1    0    0    0    0  0.00000000000E+00  0.00000000000E+00  0.99999998245E-14  0.12500000000E+03  0.12500000000E+03 0.  0.
        -13    1    3    3    0    0  0.44642814097E+02  0.50146481980E+01 -0.32869453988E+02  0.55664528351E+02  0.10566000000E+00 0.  1.
         23    2    1    0    0    0  0.26463131125E+02  0.10290342771E+02  0.32271876083E+01  0.96423730069E+02  0.92091978572E+02 0.  0.
         13    1    3    3    0    0 -0.18179682972E+02  0.52756945729E+01  0.36096641596E+02  0.40759201719E+02  0.10566000000E+00 0. -1.
         22    1    1    0    0    0 -0.26463131125E+02 -0.10290342771E+02 -0.32271876083E+01  0.28576269931E+02  0.00000000000E+00 0.  1.
</event>
<event>
 5    1  0.6978980E-004  0.9118800E+02  0.7818608E-02  0.1130116E+00
         25   -1    0    0    0    0  0.00000000000E+00  0.00000000000E+00  0.99999998245E-14  0.12500000000E+03  0.12500000000E+03 0.  0.
        -13    1    3    3    0    0  0.20639102798E+02  0.17340827390E+02  0.21968106493E+02  0.34774785776E+02  0.10566000000E+00 0. -1.
         23    2    1    0    0    0 -0.93263047132E+01 -0.16837985739E+02 -0.20427927557E+02  0.96932261444E+02  0.92779660276E+02 0.  0.
         13    1    3    3    0    0 -0.29965407511E+02 -0.34178813129E+02 -0.42396034050E+02  0.62157475668E+02  0.10566000000E+00 0.  1.
         22    1    1    0    0    0  0.93263047132E+01  0.16837985739E+02  0.20427927557E+02  0.28067738556E+02  0.00000000000E+00 0.  1.
</event>
<event>
 5    1  0.6978980E-004  0.9118800E+02  0.7818608E-02  0.1130116E+00
         25   -1    0    0    0    0  0.00000000000E+00  0.00000000000E+00  0.99999998245E-14  0.12500000000E+03  0.12500000000E+03 0.  0.
        -13    1    3    3    0    0 -0.11690449351E+02  0.21919493357E+02  0.50797453258E+02  0.56546646377E+02  0.10566000000E+00 0.  1.
         23    2    1    0    0    0 -0.22933884457E+02  0.38579757765E+01  0.18217335933E+02  0.95458192982E+02  0.90771957375E+02 0.  0.
         13    1    3    3    0    0 -0.11243435106E+02 -0.18061517580E+02 -0.32580117325E+02  0.38911546605E+02  0.10566000000E+00 0. -1.
         22    1    1    0    0    0  0.22933884457E+02 -0.38579757765E+01 -0.18217335933E+02  0.29541807018E+02  0.00000000000E+00 0.  1.
</event>
<event>
 5    1  0.6978980E-004  0.9118800E+02  0.7818608E-02  0.1130116E+00
         25   -1    0    0    0    0  0.00000000000E+00  0.00000000000E+00  0.99999998245E-14  0.12500000000E+03  0.12500000000E+03 0.  0.
        -13    1    3    3    0    0 -0.38172680130E+02 -0.10650875972E+02 -0.32545298710E+02  0.51281598059E+02  0.10566000000E+00 0.  1.
         23    2    1    0    0    0 -0.10214199241E+02  0.20823666802E+02 -0.17333859264E+02  0.96044557641E+02  0.91575866964E+02 0.  0.
         13    1    3    3    0    0  0.27958480889E+02  0.31474542774E+02  0.15211439446E+02  0.44762959582E+02  0.10566000000E+00 0. -1.
         22    1    1    0    0    0  0.10214199241E+02 -0.20823666802E+02  0.17333859264E+02  0.28955442359E+02  0.00000000000E+00 0.  1.
</event>
<event>
 5    1  0.6978980E-004  0.9118800E+02  0.7818608E-02  0.1130116E+00
         25   -1    0    0    0    0  0.00000000000E+00  0.00000000000E+00  0.99999998245E-14  0.12500000000E+03  0.12500000000E+03 0.  0.
        -13    1    3    3    0    0  0.17187529285E+01 -0.28696715029E+02  0.23577818190E+02  0.37180374389E+02  0.10566000000E+00 0.  1.
         23    2    1    0    0    0  0.22497963649E+02  0.36472808090E+01 -0.19562231099E+02  0.94964322694E+02  0.90089292780E+02 0.  0.
         13    1    3    3    0    0  0.20779210720E+02  0.32343995838E+02 -0.43140049290E+02  0.57783948305E+02  0.10566000000E+00 0. -1.
         22    1    1    0    0    0 -0.22497963649E+02 -0.36472808090E+01  0.19562231099E+02  0.30035677306E+02  0.00000000000E+00 0. -1.
</event>
<event>
 5    1  0.6978980E-004  0.9118800E+02  0.7818608E-02  0.1130116E+00
         25   -1    0    0    0    0  0.00000000000E+00  0.00000000000E+00  0.99999998245E-14  0.12500000000E+03  0.12500000000E+03 0.  0.
        -13    1    3    3    0    0  0.43069759486E+02 -0.20789794384E+02 -0.47297013487E-01  0.47825026229E+02  0.10566000000E+00 0.  1.
         23    2    1    0    0    0  0.86704872870E+01 -0.40026809290E+01 -0.28126291060E+02  0.95296682791E+02  0.90549272210E+02 0.  0.
         13    1    3    3    0    0 -0.34399272199E+02  0.16787113455E+02 -0.28078994047E+02  0.47471656562E+02  0.10566000000E+00 0. -1.
         22    1    1    0    0    0 -0.86704872870E+01  0.40026809290E+01  0.28126291060E+02  0.29703317209E+02  0.00000000000E+00 0.  1.
</event>
<event>
 5    1  0.6978980E-004  0.9118800E+02  0.7818608E-02  0.1130116E+00
         25   -1    0    0    0    0  0.00000000000E+00  0.00000000000E+00  0.99999998245E-14  0.12500000000E+03  0.12500000000E+03 0.  0.
        -13    1    3    3    0    0 -0.42376330618E+02  0.21310860908E+02 -0.18256284102E+02  0.50825281726E+02  0.10566000000E+00 0. -1.
         23    2    1    0    0    0 -0.24770623172E+02 -0.37995291708E+01  0.14783211293E+02  0.95904235181E+02  0.91384127699E+02 0.  0.
         13    1    3    3    0    0  0.17605707446E+02 -0.25110390079E+02  0.33039495395E+02  0.45078953455E+02  0.10566000000E+00 0.  1.
         22    1    1    0    0    0  0.24770623172E+02  0.37995291708E+01 -0.14783211293E+02  0.29095764819E+02  0.00000000000E+00 0. -1.
</event>
<event>
 5    1  0.6978980E-004  0.9118800E+02  0.7818608E-02  0.1130116E+00
         25   -1    0    0    0    0  0.00000000000E+00  0.00000000000E+00  0.99999998245E-14  0.12500000000E+03  0.12500000000E+03 0.  0.
        -13    1    3    3    0    0 -0.19863371846E+02  0.12203724302E+02 -0.37147223852E+02  0.43856719348E+02  0.10566000000E+00 0. -1.
         23    2    1    0    0    0 -0.14075945685E+02  0.26224659039E+02  0.10170852002E+02  0.93546681906E+02  0.88100343226E+02 0.  0.
         13    1    3    3    0    0  0.57874261615E+01  0.14020934737E+02  0.47318075855E+02  0.49689962559E+02  0.10566000000E+00 0.  1.
         22    1    1    0    0    0  0.14075945685E+02 -0.26224659039E+02 -0.10170852002E+02  0.31453318094E+02  0.00000000000E+00 0.  1.
</event>
<event>
 5    1  0.6978980E-004  0.9118800E+02  0.7818608E-02  0.1130116E+00
         25   -1    0    0    0    0  0.00000000000E+00  0.00000000000E+00  0.99999998245E-14  0.12500000000E+03  0.12500000000E+03 0.  0.
        -13    1    3    3    0    0  0.37055479176E+02  0.61699516876E+01 -0.41725561134E+02  0.56144549663E+02  0.10566000000E+00 0.  1.
         23    2    1    0    0    0  0.32295119505E+02 -0.35172977626E+01 -0.80168751950E+01  0.91539330322E+02  0.85204651167E+02 0.  0.
         13    1    3    3    0    0 -0.47603596710E+01 -0.96872494501E+01  0.33708685939E+02  0.35394780659E+02  0.10566000000E+00 0. -1.
         22    1    1    0    0    0 -0.32295119505E+02  0.35172977626E+01  0.80168751950E+01  0.33460669678E+02  0.00000000000E+00 0.  1.
</event>
<event>
 5    1  0.6978980E-004  0.9118800E+02  0.7818608E-02  0.1130116E+00
         25   -1    0    0    0    0  0.00000000000E+00  0.00000000000E+00  0.99999998245E-14  0.12500000000E+03  0.12500000000E+03 0.  0.
        -13    1    3    3    0    0  0.28058229470E+02 -0.18662456236E+02 -0.55018599623E+01  0.34144298804E+02  0.10566000000E+00 0.  1.
         23    2    1    0    0    0 -0.26163209866E+02  0.93952351992E+01 -0.10231060433E+02  0.95378072438E+02  0.90661558058E+02 0.  0.
         13    1    3    3    0    0 -0.54221439336E+02  0.28057691435E+02 -0.47292004705E+01  0.61233773634E+02  0.10566000000E+00 0. -1.
         22    1    1    0    0    0  0.26163209866E+02 -0.93952351992E+01  0.10231060433E+02  0.29621927562E+02  0.00000000000E+00 0. -1.
</event>
<event>
 5    1  0.6978980E-004  0.9118800E+02  0.7818608E-02  0.1130116E+00
         25   -1    0    0    0    0  0.00000000000E+00  0.00000000000E+00  0.99999998245E-14  0.12500000000E+03  0.12500000000E+03 0.  0.
        -13    1    3    3    0    0 -0.20127749812E+02 -0.69945528713E+01  0.50079843036E+02  0.54424736333E+02  0.10566000000E+00 0.  1.
         23    2    1    0    0    0  0.10821653412E+02 -0.39495336296E+01  0.33303917337E+02  0.89759995623E+02  0.82553006643E+02 0.  0.
         13    1    3    3    0    0  0.30949403223E+02  0.30450192416E+01 -0.16775925699E+02  0.35335259291E+02  0.10566000000E+00 0. -1.
         22    1    1    0    0    0 -0.10821653412E+02  0.39495336296E+01 -0.33303917337E+02  0.35240004377E+02  0.00000000000E+00 0.  1.
</event>
<event>
 5    1  0.6978980E-004  0.9118800E+02  0.7818608E-02  0.1130116E+00
         25   -1    0    0    0    0  0.00000000000E+00  0.00000000000E+00  0.99999998245E-14  0.12500000000E+03  0.12500000000E+03 0.  0.
        -13    1    3    3    0    0 -0.80820140614E+00  0.25568861446E+02  0.28920050464E+02  0.38610883803E+02  0.10566000000E+00 0.  1.
         23    2    1    0    0    0 -0.24591455421E+02 -0.89968712644E+01 -0.11067486023E+02  0.96571622995E+02  0.92292501043E+02 0.  0.
         13    1    3    3    0    0 -0.23783254015E+02 -0.34565732710E+02 -0.39987536487E+02  0.57960739192E+02  0.10566000000E+00 0. -1.
         22    1    1    0    0    0  0.24591455421E+02  0.89968712644E+01  0.11067486023E+02  0.28428377005E+02  0.00000000000E+00 0. -1.
</event>
<event>
 5    1  0.6978980E-004  0.9118800E+02  0.7818608E-02  0.1130116E+00
         25   -1    0    0    0    0  0.00000000000E+00  0.00000000000E+00  0.99999998245E-14  0.12500000000E+03  0.12500000000E+03 0.  0.
        -13    1    3    3    0    0  0.62184603362E+01  0.26201306779E+02  0.33851651142E+02  0.43256481306E+02  0.10566000000E+00 0.  1.
         23    2    1    0    0    0 -0.27880553520E+02  0.11895642454E+02 -0.18160274707E+01  0.94633414256E+02  0.89628977257E+02 0.  0.
         13    1    3    3    0    0 -0.34099013856E+02 -0.14305664325E+02 -0.35667678613E+02  0.51376932950E+02  0.10566000000E+00 0. -1.
         22    1    1    0    0    0  0.27880553520E+02 -0.11895642454E+02  0.18160274707E+01  0.30366585744E+02  0.00000000000E+00 0. -1.
</event>
<event>
 5    1  0.6978980E-004  0.9118800E+02  0.7818608E-02  0.1130116E+00
         25   -1    0    0    0    0  0.00000000000E+00  0.00000000000E+00  0.99999998245E-14  0.12500000000E+03  0.12500000000E+03 0.  0.
        -13    1    3    3    0    0  0.17442414724E+01  0.25485650624E+02 -0.23243032387E+02  0.34537088538E+02  0.10566000000E+00 0.  1.
         23    2    1    0    0    0  0.36542207972E+02  0.26991003088E+02  0.48868233546E+01  0.79308334965E+02  0.64823481403E+02 0.  0.
         13    1    3    3    0    0  0.34797966500E+02  0.15053524636E+01  0.28129855742E+02  0.44771246428E+02  0.10566000000E+00 0. -1.
         22    1    1    0    0    0 -0.36542207972E+02 -0.26991003088E+02 -0.48868233546E+01  0.45691665035E+02  0.00000000000E+00 0.  1.
</event>
<event>
 5    1  0.6978980E-004  0.9118800E+02  0.7818608E-02  0.1130116E+00
         25   -1    0    0    0    0  0.00000000000E+00  0.00000000000E+00  0.99999998245E-14  0.12500000000E+03  0.12500000000E+03 0.  0.
        -13    1    3    3    0    0  0.38002586200E+02 -0.26451439116E+02 -0.25642797193E+02  0.52928625536E+02  0.10566000000E+00 0.  1.
         23    2    1    0    0    0  0.55459356055E+01 -0.29351191274E+02  0.11382817521E+01  0.95107768295E+02  0.90288105937E+02 0.  0.
         13    1    3    3    0    0 -0.32456650595E+02 -0.28997521588E+01  0.26781078945E+02  0.42179142759E+02  0.10566000000E+00 0. -1.
         22    1    1    0    0    0 -0.55459356055E+01  0.29351191274E+02 -0.11382817521E+01  0.29892231705E+02  0.00000000000E+00 0. -1.
</event>
<event>
 5    1  0.6978980E-004  0.9118800E+02  0.7818608E-02  0.1130116E+00
         25   -1    0    0    0    0  0.00000000000E+00  0.00000000000E+00  0.99999998245E-14  0.12500000000E+03  0.12500000000E+03 0.  0.
        -13    1    3    3    0    0  0.18951308841E+02  0.17319928705E+02  0.43221044029E+02  0.50271282539E+02  0.10566000000E+00 0.  1.
         23    2    1    0    0    0  0.30225237256E+02 -0.80608349553E+01  0.13556692874E+02  0.90907098261E+02  0.84272027181E+02 0.  0.
         13    1    3    3    0    0  0.11273928415E+02 -0.25380763661E+02 -0.29664351155E+02  0.40635815722E+02  0.10566000000E+00 0. -1.
         22    1    1    0    0    0 -0.30225237256E+02  0.80608349553E+01 -0.13556692874E+02  0.34092901739E+02  0.00000000000E+00 0.  1.
</event>
<event>
 5    1  0.6978980E-004  0.9118800E+02  0.7818608E-02  0.1130116E+00
         25   -1    0    0    0    0  0.00000000000E+00  0.00000000000E+00  0.99999998245E-14  0.12500000000E+03  0.12500000000E+03 0.  0.
        -13    1    3    3    0    0  0.18482476697E+02 -0.37164467212E+02  0.86666076381E+01  0.42401896420E+02  0.10566000000E+00 0.  1.
         23    2    1    0    0    0  0.20216972714E+02  0.11386276451E+02 -0.15929625938E+02  0.96855262310E+02  0.92675862972E+02 0.  0.
         13    1    3    3    0    0  0.17344960163E+01  0.48550743663E+02 -0.24596233576E+02  0.54453365890E+02  0.10566000000E+00 0. -1.
         22    1    1    0    0    0 -0.20216972714E+02 -0.11386276451E+02  0.15929625938E+02  0.28144737690E+02  0.00000000000E+00 0.  1.
</event>
<event>
 5    1  0.6978980E-004  0.9118800E+02  0.7818608E-02  0.1130116E+00
         25   -1    0    0    0    0  0.00000000000E+00  0.00000000000E+00  0.99999998245E-14  0.12500000000E+03  0.12500000000E+03 0.  0.
        -13    1    3    3    0    0 -0.46574668032E+01 -0.23848269890E+01  0.34307783669E+02  0.34704676646E+02  0.10566000000E+00 0.  1.
         23    2    1    0    0    0  0.18577350339E+01 -0.77957443018E+01 -0.27123625349E+02  0.96717216177E+02  0.92489480722E+02 0.  0.
         13    1    3    3    0    0  0.65152018371E+01 -0.54109173127E+01 -0.61431409018E+02  0.62012539531E+02  0.10566000000E+00 0. -1.
         22    1    1    0    0    0 -0.18577350339E+01  0.77957443018E+01  0.27123625349E+02  0.28282783823E+02  0.00000000000E+00 0. -1.
</event>
<event>
 5    1  0.6978980E-004  0.9118800E+02  0.7818608E-02  0.1130116E+00
         25   -1    0    0    0    0  0.00000000000E+00  0.00000000000E+00  0.99999998245E-14  0.12500000000E+03  0.12500000000E+03 0.  0.
        -13    1    3    3    0    0  0.34866210042E+02 -0.74478158573E+01 -0.35470794127E+02  0.50292255504E+02  0.10566000000E+00 0.  1.
         23    2    1    0    0    0  0.61822369976E+01  0.22914023965E+02 -0.16005942652E+02  0.96373740224E+02  0.92024100409E+02 0.  0.
         13    1    3    3    0    0 -0.28683973044E+02  0.30361839823E+02  0.19464851474E+02  0.46081484720E+02  0.10566000000E+00 0. -1.
         22    1    1    0    0    0 -0.61822369976E+01 -0.22914023965E+02  0.16005942652E+02  0.28626259776E+02  0.00000000000E+00 0.  1.
</event>
<event>
 5    1  0.6978980E-004  0.9118800E+02  0.7818608E-02  0.1130116E+00
         25   -1    0    0    0    0  0.00000000000E+00  0.00000000000E+00  0.99999998245E-14  0.12500000000E+03  0.12500000000E+03 0.  0.
        -13    1    3    3    0    0 -0.89971638437E+01  0.50959827908E+02 -0.31802765134E+02  0.60739443954E+02  0.10566000000E+00 0.  1.
         23    2    1    0    0    0 -0.42449747260E+01  0.26761359958E+02 -0.44962648049E+01  0.97533536914E+02  0.93586239526E+02 0.  0.
         13    1    3    3    0    0  0.47521891177E+01 -0.24198467949E+02  0.27306500329E+02  0.36794092960E+02  0.10566000000E+00 0. -1.
         22    1    1    0    0    0  0.42449747260E+01 -0.26761359958E+02  0.44962648049E+01  0.27466463086E+02  0.00000000000E+00 0.  1.
</event>
<event>
 5    1  0.6978980E-004  0.9118800E+02  0.7818608E-02  0.1130116E+00
         25   -1    0    0    0    0  0.00000000000E+00  0.00000000000E+00  0.99999998245E-14  0.12500000000E+03  0.12500000000E+03 0.  0.
        -13    1    3    3    0    0 -0.25345428550E+02 -0.28628231934E+01 -0.17105650622E+02  0.30711576844E+02  0.10566000000E+00 0.  1.
         23    2    1    0    0    0  0.60735092727E+01  0.35265812402E+02  0.11012808532E+02  0.87558752812E+02  0.79149783341E+02 0.  0.
         13    1    3    3    0    0  0.31418937822E+02  0.38128635595E+02  0.28118459155E+02  0.56847175968E+02  0.10566000000E+00 0. -1.
         22    1    1    0    0    0 -0.60735092727E+01 -0.35265812402E+02 -0.11012808532E+02  0.37441247188E+02  0.00000000000E+00 0. -1.
</event>
<event>
 5    1  0.6978980E-004  0.9118800E+02  0.7818608E-02  0.1130116E+00
         25   -1    0    0    0    0  0.00000000000E+00  0.00000000000E+00  0.99999998245E-14  0.12500000000E+03  0.12500000000E+03 0.  0.
        -13    1    3    3    0    0  0.20125399777E+02 -0.29136792511E+02 -0.28399951962E+02  0.45393312608E+02  0.10566000000E+00 0.  1.
         23    2    1    0    0    0 -0.19757649790E+02 -0.18527410792E+02  0.36804582503E+01  0.97665489783E+02  0.93762318901E+02 0.  0.
         13    1    3    3    0    0 -0.39883049567E+02  0.10609381719E+02  0.32080410212E+02  0.52272177175E+02  0.10566000000E+00 0. -1.
         22    1    1    0    0    0  0.19757649790E+02  0.18527410792E+02 -0.36804582503E+01  0.27334510217E+02  0.00000000000E+00 0. -1.
</event>
<event>
 5    1  0.6978980E-004  0.9118800E+02  0.7818608E-02  0.1130116E+00
         25   -1    0    0    0    0  0.00000000000E+00  0.00000000000E+00  0.99999998245E-14  0.12500000000E+03  0.12500000000E+03 0.  0.
        -13    1    3    3    0    0 -0.12097265661E+02  0.46238522094E+02  0.28584513742E+02  0.55690487085E+02  0.10566000000E+00 0.  1.
         23    2    1    0    0    0  0.23461644807E+01  0.30138164757E+02 -0.36938178717E+01  0.94545808940E+02  0.89506716144E+02 0.  0.
         13    1    3    3    0    0  0.14443430142E+02 -0.16100357337E+02 -0.32278331613E+02  0.38855321855E+02  0.10566000000E+00 0. -1.
         22    1    1    0    0    0 -0.23461644807E+01 -0.30138164757E+02  0.36938178717E+01  0.30454191060E+02  0.00000000000E+00 0. -1.
</event>
<event>
 5    1  0.6978980E-004  0.9118800E+02  0.7818608E-02  0.1130116E+00
         25   -1    0    0    0    0  0.00000000000E+00  0.00000000000E+00  0.99999998245E-14  0.12500000000E+03  0.12500000000E+03 0.  0.
        -13    1    3    3    0    0 -0.11493739763E+02 -0.24740168227E+02  0.25068529858E+02  0.37048945072E+02  0.10566000000E+00 0.  1.
         23    2    1    0    0    0  0.18466028352E+02  0.21881042706E+02  0.11793102175E+02  0.94034672746E+02  0.88790023013E+02 0.  0.
         13    1    3    3    0    0  0.29959768116E+02  0.46621210933E+02 -0.13275427683E+02  0.56985727675E+02  0.10566000000E+00 0. -1.
         22    1    1    0    0    0 -0.18466028352E+02 -0.21881042706E+02 -0.11793102175E+02  0.30965327254E+02  0.00000000000E+00 0. -1.
</event>
<event>
 5    1  0.6978980E-004  0.9118800E+02  0.7818608E-02  0.1130116E+00
         25   -1    0    0    0    0  0.00000000000E+00  0.00000000000E+00  0.99999998245E-14  0.12500000000E+03  0.12500000000E+03 0.  0.
        -13    1    3    3    0    0  0.86716355590E+01 -0.24136164954E+02  0.25231300375E+02  0.35977512485E+02  0.10566000000E+00 0. -1.
         23    2    1    0    0    0 -0.15643239713E+02  0.25601880355E+02  0.93691701074E+01  0.93568350744E+02  0.88131082406E+02 0.  0.
         13    1    3    3    0    0 -0.24314875272E+02  0.49738045309E+02 -0.15862130267E+02  0.57590838259E+02  0.10566000000E+00 0.  1.
         22    1    1    0    0    0  0.15643239713E+02 -0.25601880355E+02 -0.93691701074E+01  0.31431649256E+02  0.00000000000E+00 0.  1.
</event>
<event>
 5    1  0.6978980E-004  0.9118800E+02  0.7818608E-02  0.1130116E+00
         25   -1    0    0    0    0  0.00000000000E+00  0.00000000000E+00  0.99999998245E-14  0.12500000000E+03  0.12500000000E+03 0.  0.
        -13    1    3    3    0    0  0.35782703916E+02  0.35167652035E+02 -0.79032844857E+01  0.50790143915E+02  0.10566000000E+00 0. -1.
         23    2    1    0    0    0  0.21524861872E+01  0.90978386396E+01 -0.26254776150E+02  0.97130354588E+02  0.93046164064E+02 0.  0.
         13    1    3    3    0    0 -0.33630217729E+02 -0.26069813395E+02 -0.18351491664E+02  0.46340210674E+02  0.10566000000E+00 0.  1.
         22    1    1    0    0    0 -0.21524861872E+01 -0.90978386396E+01  0.26254776150E+02  0.27869645412E+02  0.00000000000E+00 0.  1.
</event>
<event>
 5    1  0.6978980E-004  0.9118800E+02  0.7818608E-02  0.1130116E+00
         25   -1    0    0    0    0  0.00000000000E+00  0.00000000000E+00  0.99999998245E-14  0.12500000000E+03  0.12500000000E+03 0.  0.
        -13    1    3    3    0    0  0.22002564446E+02 -0.37494726998E+02 -0.25766924079E+02  0.50536253674E+02  0.10566000000E+00 0. -1.
         23    2    1    0    0    0 -0.14815074045E+02 -0.16467118803E+02 -0.23064218252E+02  0.93021716991E+02  0.87352328233E+02 0.  0.
         13    1    3    3    0    0 -0.36817638491E+02  0.21027608195E+02  0.27027058265E+01  0.42485463317E+02  0.10566000000E+00 0.  1.
         22    1    1    0    0    0  0.14815074045E+02  0.16467118803E+02  0.23064218252E+02  0.31978283009E+02  0.00000000000E+00 0.  1.
</event>
<event>
 5    1  0.6978980E-004  0.9118800E+02  0.7818608E-02  0.1130116E+00
         25   -1    0    0    0    0  0.00000000000E+00  0.00000000000E+00  0.99999998245E-14  0.12500000000E+03  0.12500000000E+03 0.  0.
        -13    1    3    3    0    0  0.94634775249E+01 -0.41303161023E+02  0.41655379066E+02  0.59419611969E+02  0.10566000000E+00 0. -1.
         23    2    1    0    0    0 -0.90469981425E+00 -0.27165650131E+02  0.92057034701E+01  0.96302682962E+02  0.91927529830E+02 0.  0.
         13    1    3    3    0    0 -0.10368177339E+02  0.14137510892E+02 -0.32449675596E+02  0.36883070993E+02  0.10566000000E+00 0.  1.
         22    1    1    0    0    0  0.90469981425E+00  0.27165650131E+02 -0.92057034701E+01  0.28697317038E+02  0.00000000000E+00 0. -1.
</event>
<event>
 5    1  0.6978980E-004  0.9118800E+02  0.7818608E-02  0.1130116E+00
         25   -1    0    0    0    0  0.00000000000E+00  0.00000000000E+00  0.99999998245E-14  0.12500000000E+03  0.12500000000E+03 0.  0.
        -13    1    3    3    0    0 -0.28072133843E+02  0.12914404987E+02 -0.17184807683E+02  0.35357535742E+02  0.10566000000E+00 0. -1.
         23    2    1    0    0    0  0.16173029625E+02 -0.19926618726E+02  0.10797568361E+02  0.97157146274E+02  0.93082149570E+02 0.  0.
         13    1    3    3    0    0  0.44245163468E+02 -0.32841023712E+02  0.27982376044E+02  0.61799610532E+02  0.10566000000E+00 0.  1.
         22    1    1    0    0    0 -0.16173029625E+02  0.19926618726E+02 -0.10797568361E+02  0.27842853726E+02  0.00000000000E+00 0.  1.
</event>
<event>
 5    1  0.6978980E-004  0.9118800E+02  0.7818608E-02  0.1130116E+00
         25   -1    0    0    0    0  0.00000000000E+00  0.00000000000E+00  0.99999998245E-14  0.12500000000E+03  0.12500000000E+03 0.  0.
        -13    1    3    3    0    0  0.54008563842E+01  0.14041389195E+02  0.50127804442E+02  0.52336772946E+02  0.10566000000E+00 0.  1.
         23    2    1    0    0    0 -0.13266627503E+02 -0.12467233764E+02  0.28042326184E+02  0.91566373502E+02  0.85244315795E+02 0.  0.
         13    1    3    3    0    0 -0.18667483887E+02 -0.26508622959E+02 -0.22085478258E+02  0.39229600556E+02  0.10566000000E+00 0. -1.
         22    1    1    0    0    0  0.13266627503E+02  0.12467233764E+02 -0.28042326184E+02  0.33433626498E+02  0.00000000000E+00 0.  1.
</event>
<event>
 5    1  0.6978980E-004  0.9118800E+02  0.7818608E-02  0.1130116E+00
         25   -1    0    0    0    0  0.00000000000E+00  0.00000000000E+00  0.99999998245E-14  0.12500000000E+03  0.12500000000E+03 0.  0.
        -13    1    3    3    0    0  0.37949610805E+02  0.18341289339E+02  0.76975622655E+01  0.42846697466E+02  0.10566000000E+00 0.  1.
         23    2    1    0    0    0  0.53713673324E+01  0.10979628926E+01 -0.29370504094E+02  0.95122188496E+02  0.90308067879E+02 0.  0.
         13    1    3    3    0    0 -0.32578243473E+02 -0.17243326447E+02 -0.37068066360E+02  0.52275491030E+02  0.10566000000E+00 0. -1.
         22    1    1    0    0    0 -0.53713673324E+01 -0.10979628926E+01  0.29370504094E+02  0.29877811504E+02  0.00000000000E+00 0. -1.
</event>
<event>
 5    1  0.6978980E-004  0.9118800E+02  0.7818608E-02  0.1130116E+00
         25   -1    0    0    0    0  0.00000000000E+00  0.00000000000E+00  0.99999998245E-14  0.12500000000E+03  0.12500000000E+03 0.  0.
        -13    1    3    3    0    0 -0.16894037158E+02 -0.37823796682E+02  0.32246986061E+02  0.52496927158E+02  0.10566000000E+00 0.  1.
         23    2    1    0    0    0  0.55160521047E+01 -0.14175382081E+01  0.29082837489E+02  0.95364756087E+02  0.90643196224E+02 0.  0.
         13    1    3    3    0    0  0.22410089263E+02  0.36406258474E+02 -0.31641485728E+01  0.42867828929E+02  0.10566000000E+00 0. -1.
         22    1    1    0    0    0 -0.55160521047E+01  0.14175382081E+01 -0.29082837489E+02  0.29635243913E+02  0.00000000000E+00 0.  1.
</event>
<event>
 5    1  0.6978980E-004  0.9118800E+02  0.7818608E-02  0.1130116E+00
         25   -1    0    0    0    0  0.00000000000E+00  0.00000000000E+00  0.99999998245E-14  0.12500000000E+03  0.12500000000E+03 0.  0.
        -13    1    3    3    0    0 -0.41895750911E+02  0.69777273798E+01 -0.59872039772E+01  0.42892894508E+02  0.10566000000E+00 0.  1.
         23    2    1    0    0    0  0.13752868958E+01  0.81907288934E+01  0.26637080474E+02  0.97098145043E+02  0.93002883078E+02 0.  0.
         13    1    3    3    0    0  0.43271037807E+02  0.12130015136E+01  0.32624284451E+02  0.54205250535E+02  0.10566000000E+00 0. -1.
         22    1    1    0    0    0 -0.13752868958E+01 -0.81907288934E+01 -0.26637080474E+02  0.27901854957E+02  0.00000000000E+00 0. -1.
</event>
<event>
 5    1  0.6978980E-004  0.9118800E+02  0.7818608E-02  0.1130116E+00
         25   -1    0    0    0    0  0.00000000000E+00  0.00000000000E+00  0.99999998245E-14  0.12500000000E+03  0.12500000000E+03 0.  0.
        -13    1    3    3    0    0 -0.43478344699E+02  0.41117487032E+02  0.40308635070E+01  0.59977272547E+02  0.10566000000E+00 0.  1.
         23    2    1    0    0    0 -0.18095764690E+02  0.17377764601E+02  0.14177635531E+02  0.96182492275E+02  0.91763952992E+02 0.  0.
         13    1    3    3    0    0  0.25382580009E+02 -0.23739722431E+02  0.10146772024E+02  0.36205219728E+02  0.10566000000E+00 0. -1.
         22    1    1    0    0    0  0.18095764690E+02 -0.17377764601E+02 -0.14177635531E+02  0.28817507725E+02  0.00000000000E+00 0.  1.
</event>
<event>
 5    1  0.6978980E-004  0.9118800E+02  0.7818608E-02  0.1130116E+00
         25   -1    0    0    0    0  0.00000000000E+00  0.00000000000E+00  0.99999998245E-14  0.12500000000E+03  0.12500000000E+03 0.  0.
        -13    1    3    3    0    0  0.44075374195E+02  0.31053825644E+02  0.17133127680E+02  0.56573261579E+02  0.10566000000E+00 0. -1.
         23    2    1    0    0    0  0.29184048894E+02 -0.20095426391E+01  0.26277294362E+01  0.95629063116E+02  0.91006954564E+02 0.  0.
         13    1    3    3    0    0 -0.14891325301E+02 -0.33063368283E+02 -0.14505398244E+02  0.39055801537E+02  0.10566000000E+00 0.  1.
         22    1    1    0    0    0 -0.29184048894E+02  0.20095426391E+01 -0.26277294362E+01  0.29370936884E+02  0.00000000000E+00 0. -1.
</event>
<event>
 5    1  0.6978980E-004  0.9118800E+02  0.7818608E-02  0.1130116E+00
         25   -1    0    0    0    0  0.00000000000E+00  0.00000000000E+00  0.99999998245E-14  0.12500000000E+03  0.12500000000E+03 0.  0.
        -13    1    3    3    0    0 -0.43100992052E+02 -0.34576437068E+02 -0.12900370858E+02  0.56742014843E+02  0.10566000000E+00 0. -1.
         23    2    1    0    0    0 -0.66335783151E+01 -0.29033712806E+02 -0.92807105380E+01  0.93805570551E+02  0.88466901369E+02 0.  0.
         13    1    3    3    0    0  0.36467413736E+02  0.55427242617E+01  0.36196603201E+01  0.37063555708E+02  0.10566000000E+00 0.  1.
         22    1    1    0    0    0  0.66335783151E+01  0.29033712806E+02  0.92807105380E+01  0.31194429449E+02  0.00000000000E+00 0. -1.
</event>
<event>
 5    1  0.6978980E-004  0.9118800E+02  0.7818608E-02  0.1130116E+00
         25   -1    0    0    0    0  0.00000000000E+00  0.00000000000E+00  0.99999998245E-14  0.12500000000E+03  0.12500000000E+03 0.  0.
        -13    1    3    3    0    0 -0.29225054016E+02 -0.50387062584E+01  0.45021215912E+02  0.53911162010E+02  0.10566000000E+00 0.  1.
         23    2    1    0    0    0 -0.29775444971E+02 -0.49025068552E+01  0.44373203373E+01  0.94499155611E+02  0.89441539023E+02 0.  0.
         13    1    3    3    0    0 -0.55039095432E+00  0.13619940315E+00 -0.40583895575E+02  0.40587993601E+02  0.10566000000E+00 0. -1.
         22    1    1    0    0    0  0.29775444971E+02  0.49025068552E+01 -0.44373203373E+01  0.30500844389E+02  0.00000000000E+00 0.  1.
</event>
<event>
 5    1  0.6978980E-004  0.9118800E+02  0.7818608E-02  0.1130116E+00
         25   -1    0    0    0    0  0.00000000000E+00  0.00000000000E+00  0.99999998245E-14  0.12500000000E+03  0.12500000000E+03 0.  0.
        -13    1    3    3    0    0 -0.20867237877E+02  0.15698202138E+02 -0.35115871740E+02  0.43760836133E+02  0.10566000000E+00 0. -1.
         23    2    1    0    0    0  0.23252245632E+02 -0.59815003046E+01 -0.13427451647E+02  0.97491060898E+02  0.93529488529E+02 0.  0.
         13    1    3    3    0    0  0.44119483509E+02 -0.21679702442E+02  0.21688420093E+02  0.53730224764E+02  0.10566000000E+00 0.  1.
         22    1    1    0    0    0 -0.23252245632E+02  0.59815003046E+01  0.13427451647E+02  0.27508939102E+02  0.00000000000E+00 0.  1.
</event>
<event>
 5    1  0.6978980E-004  0.9118800E+02  0.7818608E-02  0.1130116E+00
         25   -1    0    0    0    0  0.00000000000E+00  0.00000000000E+00  0.99999998245E-14  0.12500000000E+03  0.12500000000E+03 0.  0.
        -13    1    3    3    0    0  0.35504696825E+02 -0.17030102290E+02 -0.24346005232E+01  0.39453090176E+02  0.10566000000E+00 0.  1.
         23    2    1    0    0    0 -0.18240373740E+01 -0.40317305478E+02 -0.81712953006E+01  0.83822551072E+02  0.73011216727E+02 0.  0.
         13    1    3    3    0    0 -0.37328734199E+02 -0.23287203188E+02 -0.57366947774E+01  0.44369460896E+02  0.10566000000E+00 0. -1.
         22    1    1    0    0    0  0.18240373740E+01  0.40317305478E+02  0.81712953006E+01  0.41177448928E+02  0.00000000000E+00 0.  1.
</event>
<event>
 5    1  0.6978980E-004  0.9118800E+02  0.7818608E-02  0.1130116E+00
         25   -1    0    0    0    0  0.00000000000E+00  0.00000000000E+00  0.99999998245E-14  0.12500000000E+03  0.12500000000E+03 0.  0.
        -13    1    3    3    0    0  0.54757886687E+01  0.36263382811E+02 -0.37683695721E+02  0.52584116249E+02  0.10566000000E+00 0.  1.
         23    2    1    0    0    0 -0.98827920334E+01 -0.38842302023E+00 -0.30459199155E+02  0.92975271055E+02  0.87285839423E+02 0.  0.
         13    1    3    3    0    0 -0.15358580702E+02 -0.36651805832E+02  0.72244965658E+01  0.40391154806E+02  0.10566000000E+00 0. -1.
         22    1    1    0    0    0  0.98827920334E+01  0.38842302023E+00  0.30459199155E+02  0.32024728945E+02  0.00000000000E+00 0. -1.
</event>
<event>
 5    1  0.6978980E-004  0.9118800E+02  0.7818608E-02  0.1130116E+00
         25   -1    0    0    0    0  0.00000000000E+00  0.00000000000E+00  0.99999998245E-14  0.12500000000E+03  0.12500000000E+03 0.  0.
        -13    1    3    3    0    0 -0.45295149837E+02  0.92390373130E+01  0.17665110554E+02  0.49488157211E+02  0.10566000000E+00 0. -1.
         23    2    1    0    0    0 -0.83610961488E+01 -0.21628304625E+02  0.14336989000E+02  0.97737558008E+02  0.93858348068E+02 0.  0.
         13    1    3    3    0    0  0.36934053688E+02 -0.30867341938E+02 -0.33281215533E+01  0.48249400797E+02  0.10566000000E+00 0.  1.
         22    1    1    0    0    0  0.83610961488E+01  0.21628304625E+02 -0.14336989000E+02  0.27262441992E+02  0.00000000000E+00 0.  1.
</event>
<event>
 5    1  0.6978980E-004  0.9118800E+02  0.7818608E-02  0.1130116E+00
         25   -1    0    0    0    0  0.00000000000E+00  0.00000000000E+00  0.99999998245E-14  0.12500000000E+03  0.12500000000E+03 0.  0.
        -13    1    3    3    0    0  0.57140897470E+01  0.60775930063E+02  0.52509270846E+01  0.61269469526E+02  0.10566000000E+00 0.  1.
         23    2    1    0    0    0 -0.59538356223E+01  0.22796413548E+02 -0.61032609606E+00  0.10143101345E+03  0.98654717887E+02 0.  0.
         13    1    3    3    0    0 -0.11667925369E+02 -0.37979516515E+02 -0.58612531807E+01  0.40161543920E+02  0.10566000000E+00 0. -1.
         22    1    1    0    0    0  0.59538356223E+01 -0.22796413548E+02  0.61032609606E+00  0.23568986554E+02  0.00000000000E+00 0.  1.
</event>
<event>
 5    1  0.6978980E-004  0.9118800E+02  0.7818608E-02  0.1130116E+00
         25   -1    0    0    0    0  0.00000000000E+00  0.00000000000E+00  0.99999998245E-14  0.12500000000E+03  0.12500000000E+03 0.  0.
        -13    1    3    3    0    0  0.19711109391E+02 -0.30218471017E+02  0.40300502228E+02  0.54090900047E+02  0.10566000000E+00 0. -1.
         23    2    1    0    0    0  0.22874956631E+02 -0.17369851499E+02  0.24399980910E+00  0.96276578931E+02  0.91892027580E+02 0.  0.
         13    1    3    3    0    0  0.31638472407E+01  0.12848619517E+02 -0.40056502419E+02  0.42185678884E+02  0.10566000000E+00 0.  1.
         22    1    1    0    0    0 -0.22874956631E+02  0.17369851499E+02 -0.24399980910E+00  0.28723421069E+02  0.00000000000E+00 0. -1.
</event>
<event>
 5    1  0.6978980E-004  0.9118800E+02  0.7818608E-02  0.1130116E+00
         25   -1    0    0    0    0  0.00000000000E+00  0.00000000000E+00  0.99999998245E-14  0.12500000000E+03  0.12500000000E+03 0.  0.
        -13    1    3    3    0    0 -0.27566198289E+02  0.12231579354E+02  0.19764728202E+02  0.36057765689E+02  0.10566000000E+00 0. -1.
         23    2    1    0    0    0  0.24332506498E+02 -0.14055800911E+02  0.10675166032E+02  0.94940133374E+02  0.90055723547E+02 0.  0.
         13    1    3    3    0    0  0.51898704787E+02 -0.26287380265E+02 -0.90895621697E+01  0.58882367685E+02  0.10566000000E+00 0.  1.
         22    1    1    0    0    0 -0.24332506498E+02  0.14055800911E+02 -0.10675166032E+02  0.30059866626E+02  0.00000000000E+00 0.  1.
</event>
<event>
 5    1  0.6978980E-004  0.9118800E+02  0.7818608E-02  0.1130116E+00
         25   -1    0    0    0    0  0.00000000000E+00  0.00000000000E+00  0.99999998245E-14  0.12500000000E+03  0.12500000000E+03 0.  0.
        -13    1    3    3    0    0  0.57583787872E+01 -0.52523368737E+02  0.20902134245E+02  0.56822298174E+02  0.10566000000E+00 0.  1.
         23    2    1    0    0    0  0.17837681698E+02 -0.30959253687E+02  0.24325307378E+02  0.81775251808E+02  0.69417670315E+02 0.  0.
         13    1    3    3    0    0  0.12079302911E+02  0.21564115050E+02  0.34231731333E+01  0.24952953633E+02  0.10566000000E+00 0. -1.
         22    1    1    0    0    0 -0.17837681698E+02  0.30959253687E+02 -0.24325307378E+02  0.43224748192E+02  0.00000000000E+00 0.  1.
</event>
<event>
 5    1  0.6978980E-004  0.9118800E+02  0.7818608E-02  0.1130116E+00
         25   -1    0    0    0    0  0.00000000000E+00  0.00000000000E+00  0.99999998245E-14  0.12500000000E+03  0.12500000000E+03 0.  0.
        -13    1    3    3    0    0 -0.46060537743E+02 -0.78656937376E+01 -0.31032618263E+02  0.56093465176E+02  0.10566000000E+00 0. -1.
         23    2    1    0    0    0 -0.26497709909E+02 -0.15678167618E+02  0.72553971201E+00  0.94202922571E+02  0.89026572678E+02 0.  0.
         13    1    3    3    0    0  0.19562827834E+02 -0.78124738799E+01  0.31758157975E+02  0.38109457395E+02  0.10566000000E+00 0.  1.
         22    1    1    0    0    0  0.26497709909E+02  0.15678167618E+02 -0.72553971201E+00  0.30797077429E+02  0.00000000000E+00 0. -1.
</event>
<event>
 5    1  0.6978980E-004  0.9118800E+02  0.7818608E-02  0.1130116E+00
         25   -1    0    0    0    0  0.00000000000E+00  0.00000000000E+00  0.99999998245E-14  0.12500000000E+03  0.12500000000E+03 0.  0.
        -13    1    3    3    0    0 -0.76823824352E+01  0.22222499599E+02  0.46531820948E+02  0.52135208958E+02  0.10566000000E+00 0.  1.
         23    2    1    0    0    0  0.14955461269E+02  0.19116526051E+02  0.40215385116E+01  0.10039755780E+03  0.97336475440E+02 0.  0.
         13    1    3    3    0    0  0.22637843704E+02 -0.31059735489E+01 -0.42510282437E+02  0.48262348846E+02  0.10566000000E+00 0. -1.
         22    1    1    0    0    0 -0.14955461269E+02 -0.19116526051E+02 -0.40215385116E+01  0.24602442196E+02  0.00000000000E+00 0.  1.
</event>
<event>
 5    1  0.6978980E-004  0.9118800E+02  0.7818608E-02  0.1130116E+00
         25   -1    0    0    0    0  0.00000000000E+00  0.00000000000E+00  0.99999998245E-14  0.12500000000E+03  0.12500000000E+03 0.  0.
        -13    1    3    3    0    0  0.42567907822E+01 -0.28514148571E+02 -0.53696596956E+02  0.60946801599E+02  0.10566000000E+00 0.  1.
         23    2    1    0    0    0  0.90923523026E+01 -0.18874863182E+02 -0.21165521601E+02  0.95218955103E+02  0.90441908293E+02 0.  0.
         13    1    3    3    0    0  0.48355615204E+01  0.96392853890E+01  0.32531075355E+02  0.34272153504E+02  0.10566000000E+00 0. -1.
         22    1    1    0    0    0 -0.90923523026E+01  0.18874863182E+02  0.21165521601E+02  0.29781044897E+02  0.00000000000E+00 0.  1.
</event>
<event>
 5    1  0.6978980E-004  0.9118800E+02  0.7818608E-02  0.1130116E+00
         25   -1    0    0    0    0  0.00000000000E+00  0.00000000000E+00  0.99999998245E-14  0.12500000000E+03  0.12500000000E+03 0.  0.
        -13    1    3    3    0    0  0.15203975634E+02  0.38087252512E+02 -0.19217161251E+02  0.45289183361E+02  0.10566000000E+00 0. -1.
         23    2    1    0    0    0  0.19137120004E+01  0.15465068350E+02  0.24316884438E+02  0.96118492050E+02  0.91676731031E+02 0.  0.
         13    1    3    3    0    0 -0.13290263633E+02 -0.22622184162E+02  0.43534045689E+02  0.50829308689E+02  0.10566000000E+00 0.  1.
         22    1    1    0    0    0 -0.19137120004E+01 -0.15465068350E+02 -0.24316884438E+02  0.28881507950E+02  0.00000000000E+00 0.  1.
</event>
<event>
 5    1  0.6978980E-004  0.9118800E+02  0.7818608E-02  0.1130116E+00
         25   -1    0    0    0    0  0.00000000000E+00  0.00000000000E+00  0.99999998245E-14  0.12500000000E+03  0.12500000000E+03 0.  0.
        -13    1    3    3    0    0  0.63796868673E+01  0.18510362236E+02  0.33057530171E+02  0.38420637418E+02  0.10566000000E+00 0.  1.
         23    2    1    0    0    0 -0.15050802295E+02 -0.25156478373E+02  0.31633065649E+01  0.95514722957E+02  0.90849770166E+02 0.  0.
         13    1    3    3    0    0 -0.21430489162E+02 -0.43666840609E+02 -0.29894223606E+02  0.57094085539E+02  0.10566000000E+00 0. -1.
         22    1    1    0    0    0  0.15050802295E+02  0.25156478373E+02 -0.31633065649E+01  0.29485277043E+02  0.00000000000E+00 0.  1.
</event>
<event>
 5    1  0.6978980E-004  0.9118800E+02  0.7818608E-02  0.1130116E+00
         25   -1    0    0    0    0  0.00000000000E+00  0.00000000000E+00  0.99999998245E-14  0.12500000000E+03  0.12500000000E+03 0.  0.
        -13    1    3    3    0    0 -0.66541908432E+01 -0.19384451567E+02 -0.39827902870E+02  0.44791832173E+02  0.10566000000E+00 0. -1.
         23    2    1    0    0    0  0.23481138831E+02 -0.15256946246E+02  0.24678303557E+01  0.96888997239E+02  0.92721353041E+02 0.  0.
         13    1    3    3    0    0  0.30135329674E+02  0.41275053209E+01  0.42295733226E+02  0.52097165066E+02  0.10566000000E+00 0.  1.
         22    1    1    0    0    0 -0.23481138831E+02  0.15256946246E+02 -0.24678303557E+01  0.28111002761E+02  0.00000000000E+00 0. -1.
</event>
<event>
 5    1  0.6978980E-004  0.9118800E+02  0.7818608E-02  0.1130116E+00
         25   -1    0    0    0    0  0.00000000000E+00  0.00000000000E+00  0.99999998245E-14  0.12500000000E+03  0.12500000000E+03 0.  0.
        -13    1    3    3    0    0 -0.27691615359E+02  0.20901063814E+02  0.78022519013E+01  0.35560741395E+02  0.10566000000E+00 0.  1.
         23    2    1    0    0    0  0.14237923085E+02 -0.17967567120E+02 -0.15527553915E+02  0.97311431013E+02  0.93289108438E+02 0.  0.
         13    1    3    3    0    0  0.41929538444E+02 -0.38868630935E+02 -0.23329805816E+02  0.61750689618E+02  0.10566000000E+00 0. -1.
         22    1    1    0    0    0 -0.14237923085E+02  0.17967567120E+02  0.15527553915E+02  0.27688568987E+02  0.00000000000E+00 0. -1.
</event>
<event>
 5    1  0.6978980E-004  0.9118800E+02  0.7818608E-02  0.1130116E+00
         25   -1    0    0    0    0  0.00000000000E+00  0.00000000000E+00  0.99999998245E-14  0.12500000000E+03  0.12500000000E+03 0.  0.
        -13    1    3    3    0    0 -0.13512904959E+02  0.42991686675E+01  0.27170906459E+02  0.30648829888E+02  0.10566000000E+00 0. -1.
         23    2    1    0    0    0  0.23648210796E+02 -0.38410984784E+01 -0.21764608508E+02  0.92631958742E+02  0.86792797428E+02 0.  0.
         13    1    3    3    0    0  0.37161115755E+02 -0.81402671458E+01 -0.48935514968E+02  0.61983128854E+02  0.10566000000E+00 0.  1.
         22    1    1    0    0    0 -0.23648210796E+02  0.38410984784E+01  0.21764608508E+02  0.32368041258E+02  0.00000000000E+00 0.  1.
</event>
<event>
 5    1  0.6978980E-004  0.9118800E+02  0.7818608E-02  0.1130116E+00
         25   -1    0    0    0    0  0.00000000000E+00  0.00000000000E+00  0.99999998245E-14  0.12500000000E+03  0.12500000000E+03 0.  0.
        -13    1    3    3    0    0  0.11379126856E+02  0.29362521709E+02  0.15357661256E+02  0.35035854955E+02  0.10566000000E+00 0.  1.
         23    2    1    0    0    0 -0.28205495461E+02  0.20307912267E+01  0.28447117974E+02  0.84888747111E+02  0.74814348743E+02 0.  0.
         13    1    3    3    0    0 -0.39584622317E+02 -0.27331730482E+02  0.13089456718E+02  0.49852892157E+02  0.10566000000E+00 0. -1.
         22    1    1    0    0    0  0.28205495461E+02 -0.20307912267E+01 -0.28447117974E+02  0.40111252889E+02  0.00000000000E+00 0.  1.
</event>
<event>
 5    1  0.6978980E-004  0.9118800E+02  0.7818608E-02  0.1130116E+00
         25   -1    0    0    0    0  0.00000000000E+00  0.00000000000E+00  0.99999998245E-14  0.12500000000E+03  0.12500000000E+03 0.  0.
        -13    1    3    3    0    0 -0.10434120852E+02 -0.16816909541E+02 -0.26471901314E+02  0.33052262369E+02  0.10566000000E+00 0.  1.
         23    2    1    0    0    0  0.23594606108E+02  0.13418763301E+02  0.14438391364E+02  0.94255312798E+02  0.89100102130E+02 0.  0.
         13    1    3    3    0    0  0.34028726960E+02  0.30235672842E+02  0.40910292679E+02  0.61203050429E+02  0.10566000000E+00 0. -1.
         22    1    1    0    0    0 -0.23594606108E+02 -0.13418763301E+02 -0.14438391364E+02  0.30744687202E+02  0.00000000000E+00 0. -1.
</event>
<event>
 5    1  0.6978980E-004  0.9118800E+02  0.7818608E-02  0.1130116E+00
         25   -1    0    0    0    0  0.00000000000E+00  0.00000000000E+00  0.99999998245E-14  0.12500000000E+03  0.12500000000E+03 0.  0.
        -13    1    3    3    0    0 -0.14579829005E+02  0.37558207351E+02 -0.79929172051E+01  0.41074179757E+02  0.10566000000E+00 0.  1.
         23    2    1    0    0    0  0.12387888972E+02  0.10038462253E+01  0.24908244650E+02  0.97163187109E+02  0.93090261452E+02 0.  0.
         13    1    3    3    0    0  0.26967717977E+02 -0.36554361126E+02  0.32901161855E+02  0.56089007351E+02  0.10566000000E+00 0. -1.
         22    1    1    0    0    0 -0.12387888972E+02 -0.10038462253E+01 -0.24908244650E+02  0.27836812891E+02  0.00000000000E+00 0. -1.
</event>
<event>
 5    1  0.6978980E-004  0.9118800E+02  0.7818608E-02  0.1130116E+00
         25   -1    0    0    0    0  0.00000000000E+00  0.00000000000E+00  0.99999998245E-14  0.12500000000E+03  0.12500000000E+03 0.  0.
        -13    1    3    3    0    0  0.22716943136E+02 -0.37763193111E+02 -0.12089593538E+02  0.45697786547E+02  0.10566000000E+00 0. -1.
         23    2    1    0    0    0  0.25819005921E+02 -0.12499936014E+01  0.18320071117E+02  0.93317062061E+02  0.87773945537E+02 0.  0.
         13    1    3    3    0    0  0.31020627852E+01  0.36513199510E+02  0.30409664655E+02  0.47619275513E+02  0.10566000000E+00 0.  1.
         22    1    1    0    0    0 -0.25819005921E+02  0.12499936014E+01 -0.18320071117E+02  0.31682937939E+02  0.00000000000E+00 0. -1.
</event>
<event>
 5    1  0.6978980E-004  0.9118800E+02  0.7818608E-02  0.1130116E+00
         25   -1    0    0    0    0  0.00000000000E+00  0.00000000000E+00  0.99999998245E-14  0.12500000000E+03  0.12500000000E+03 0.  0.
        -13    1    3    3    0    0  0.29492648119E+02 -0.15347005431E+02 -0.58521707738E+01  0.33758049937E+02  0.10566000000E+00 0.  1.
         23    2    1    0    0    0 -0.21573862687E+02  0.17024185701E+02  0.91160290015E+01  0.96045614584E+02  0.91577309668E+02 0.  0.
         13    1    3    3    0    0 -0.51066510806E+02  0.32371191132E+02  0.14968199775E+02  0.62287564648E+02  0.10566000000E+00 0. -1.
         22    1    1    0    0    0  0.21573862687E+02 -0.17024185701E+02 -0.91160290015E+01  0.28954385416E+02  0.00000000000E+00 0. -1.
</event>
<event>
 5    1  0.6978980E-004  0.9118800E+02  0.7818608E-02  0.1130116E+00
         25   -1    0    0    0    0  0.00000000000E+00  0.00000000000E+00  0.99999998245E-14  0.12500000000E+03  0.12500000000E+03 0.  0.
        -13    1    3    3    0    0  0.41958189469E+02  0.31043763626E+02 -0.21693892345E+02  0.56522925019E+02  0.10566000000E+00 0.  1.
         23    2    1    0    0    0  0.21667967385E+02  0.18038954218E+02  0.88680709965E+01  0.95444165329E+02  0.90752638156E+02 0.  0.
         13    1    3    3    0    0 -0.20290222084E+02 -0.13004809408E+02  0.30561963342E+02  0.38921240310E+02  0.10566000000E+00 0. -1.
         22    1    1    0    0    0 -0.21667967385E+02 -0.18038954218E+02 -0.88680709965E+01  0.29555834671E+02  0.00000000000E+00 0.  1.
</event>
<event>
 5    1  0.6978980E-004  0.9118800E+02  0.7818608E-02  0.1130116E+00
         25   -1    0    0    0    0  0.00000000000E+00  0.00000000000E+00  0.99999998245E-14  0.12500000000E+03  0.12500000000E+03 0.  0.
        -13    1    3    3    0    0 -0.27653395679E+02  0.29479221062E+02 -0.97486515572E+01  0.41578625978E+02  0.10566000000E+00 0.  1.
         23    2    1    0    0    0  0.15697538545E+02  0.43459779547E+01 -0.26053198075E+02  0.94274288118E+02  0.89126718942E+02 0.  0.
         13    1    3    3    0    0  0.43350934224E+02 -0.25133243107E+02 -0.16304546518E+02  0.52695662140E+02  0.10566000000E+00 0. -1.
         22    1    1    0    0    0 -0.15697538545E+02 -0.43459779547E+01  0.26053198075E+02  0.30725711882E+02  0.00000000000E+00 0. -1.
</event>
<event>
 5    1  0.6978980E-004  0.9118800E+02  0.7818608E-02  0.1130116E+00
         25   -1    0    0    0    0  0.00000000000E+00  0.00000000000E+00  0.99999998245E-14  0.12500000000E+03  0.12500000000E+03 0.  0.
        -13    1    3    3    0    0 -0.18178612810E+02 -0.27878764187E+02  0.39187216847E+01  0.33512012771E+02  0.10566000000E+00 0.  1.
         23    2    1    0    0    0  0.13111750961E+02  0.25928163152E+02 -0.79726286576E+00  0.95934156028E+02  0.91425045841E+02 0.  0.
         13    1    3    3    0    0  0.31290363771E+02  0.53806927339E+02 -0.47159845505E+01  0.62422143258E+02  0.10566000000E+00 0. -1.
         22    1    1    0    0    0 -0.13111750961E+02 -0.25928163152E+02  0.79726286576E+00  0.29065843972E+02  0.00000000000E+00 0. -1.
</event>
<event>
 5    1  0.6978980E-004  0.9118800E+02  0.7818608E-02  0.1130116E+00
         25   -1    0    0    0    0  0.00000000000E+00  0.00000000000E+00  0.99999998245E-14  0.12500000000E+03  0.12500000000E+03 0.  0.
        -13    1    3    3    0    0 -0.17922635261E+02 -0.47613918060E+02  0.12933420652E+01  0.50891943817E+02  0.10566000000E+00 0.  1.
         23    2    1    0    0    0  0.18913092108E+02 -0.21123509396E+02  0.41053707455E+01  0.96351059859E+02  0.91993287607E+02 0.  0.
         13    1    3    3    0    0  0.36835727368E+02  0.26490408665E+02  0.28120286803E+01  0.45459116042E+02  0.10566000000E+00 0. -1.
         22    1    1    0    0    0 -0.18913092108E+02  0.21123509396E+02 -0.41053707455E+01  0.28648940141E+02  0.00000000000E+00 0. -1.
</event>
<event>
 5    1  0.6978980E-004  0.9118800E+02  0.7818608E-02  0.1130116E+00
         25   -1    0    0    0    0  0.00000000000E+00  0.00000000000E+00  0.99999998245E-14  0.12500000000E+03  0.12500000000E+03 0.  0.
        -13    1    3    3    0    0  0.17971014658E+02 -0.19525007862E+01 -0.26685975215E+02  0.32232313978E+02  0.10566000000E+00 0. -1.
         23    2    1    0    0    0 -0.13724118103E+02  0.24115784194E+02  0.17229686250E+02  0.92338332050E+02  0.86368877569E+02 0.  0.
         13    1    3    3    0    0 -0.31695132761E+02  0.26068284980E+02  0.43915661465E+02  0.60106018072E+02  0.10566000000E+00 0.  1.
         22    1    1    0    0    0  0.13724118103E+02 -0.24115784194E+02 -0.17229686250E+02  0.32661667950E+02  0.00000000000E+00 0.  1.
</event>
<event>
 5    1  0.6978980E-004  0.9118800E+02  0.7818608E-02  0.1130116E+00
         25   -1    0    0    0    0  0.00000000000E+00  0.00000000000E+00  0.99999998245E-14  0.12500000000E+03  0.12500000000E+03 0.  0.
        -13    1    3    3    0    0  0.26225198142E+02 -0.47694075949E+02  0.17468671765E+02  0.57163375998E+02  0.10566000000E+00 0.  1.
         23    2    1    0    0    0 -0.24959731403E+01 -0.29753826667E+02  0.27907914951E+00  0.95140362219E+02  0.90333219553E+02 0.  0.
         13    1    3    3    0    0 -0.28721171282E+02  0.17940249282E+02 -0.17189592616E+02  0.37976986221E+02  0.10566000000E+00 0. -1.
         22    1    1    0    0    0  0.24959731403E+01  0.29753826667E+02 -0.27907914951E+00  0.29859637781E+02  0.00000000000E+00 0. -1.
</event>
<event>
 5    1  0.6978980E-004  0.9118800E+02  0.7818608E-02  0.1130116E+00
         25   -1    0    0    0    0  0.00000000000E+00  0.00000000000E+00  0.99999998245E-14  0.12500000000E+03  0.12500000000E+03 0.  0.
        -13    1    3    3    0    0 -0.87193560957E+01 -0.25975694065E+02 -0.43493356715E+02  0.51404738063E+02  0.10566000000E+00 0. -1.
         23    2    1    0    0    0  0.36318707466E+01  0.12311230627E+02 -0.27415376404E+02  0.94728565477E+02  0.89761580698E+02 0.  0.
         13    1    3    3    0    0  0.12351226842E+02  0.38286924693E+02  0.16077980311E+02  0.43323827415E+02  0.10566000000E+00 0.  1.
         22    1    1    0    0    0 -0.36318707466E+01 -0.12311230627E+02  0.27415376404E+02  0.30271434523E+02  0.00000000000E+00 0. -1.
</event>
<event>
 5    1  0.6978980E-004  0.9118800E+02  0.7818608E-02  0.1130116E+00
         25   -1    0    0    0    0  0.00000000000E+00  0.00000000000E+00  0.99999998245E-14  0.12500000000E+03  0.12500000000E+03 0.  0.
        -13    1    3    3    0    0  0.38599790224E+00 -0.47393171788E+02 -0.29220851152E+02  0.55678820323E+02  0.10566000000E+00 0.  1.
         23    2    1    0    0    0  0.11171422718E+02 -0.92289069597E+01 -0.25703116573E+02  0.95493668294E+02  0.90820796481E+02 0.  0.
         13    1    3    3    0    0  0.10785424816E+02  0.38164264828E+02  0.35177345790E+01  0.39814847971E+02  0.10566000000E+00 0. -1.
         22    1    1    0    0    0 -0.11171422718E+02  0.92289069597E+01  0.25703116573E+02  0.29506331706E+02  0.00000000000E+00 0.  1.
</event>
<event>
 5    1  0.6978980E-004  0.9118800E+02  0.7818608E-02  0.1130116E+00
         25   -1    0    0    0    0  0.00000000000E+00  0.00000000000E+00  0.99999998245E-14  0.12500000000E+03  0.12500000000E+03 0.  0.
        -13    1    3    3    0    0 -0.71044413754E+01  0.18308297760E+02  0.41583041532E+02  0.45987252160E+02  0.10566000000E+00 0. -1.
         23    2    1    0    0    0  0.69560188894E+01 -0.22670405293E+02  0.12231031785E+02  0.98317953350E+02  0.94628158269E+02 0.  0.
         13    1    3    3    0    0  0.14060460265E+02 -0.40978703053E+02 -0.29352009747E+02  0.52330701189E+02  0.10566000000E+00 0.  1.
         22    1    1    0    0    0 -0.69560188894E+01  0.22670405293E+02 -0.12231031785E+02  0.26682046650E+02  0.00000000000E+00 0.  1.
</event>
<event>
 5    1  0.6978980E-004  0.9118800E+02  0.7818608E-02  0.1130116E+00
         25   -1    0    0    0    0  0.00000000000E+00  0.00000000000E+00  0.99999998245E-14  0.12500000000E+03  0.12500000000E+03 0.  0.
        -13    1    3    3    0    0  0.94338026496E+01  0.16296728697E+01  0.38065467734E+02  0.39251031375E+02  0.10566000000E+00 0.  1.
         23    2    1    0    0    0  0.84337707653E+01  0.24399297206E+02 -0.13672798912E+02  0.95786995643E+02  0.91223620356E+02 0.  0.
         13    1    3    3    0    0 -0.10000318843E+01  0.22769624336E+02 -0.51738266646E+02  0.56535964269E+02  0.10566000000E+00 0. -1.
         22    1    1    0    0    0 -0.84337707653E+01 -0.24399297206E+02  0.13672798912E+02  0.29213004357E+02  0.00000000000E+00 0. -1.
</event>
<event>
 5    1  0.6978980E-004  0.9118800E+02  0.7818608E-02  0.1130116E+00
         25   -1    0    0    0    0  0.00000000000E+00  0.00000000000E+00  0.99999998245E-14  0.12500000000E+03  0.12500000000E+03 0.  0.
        -13    1    3    3    0    0  0.27320377006E+02 -0.47138727298E+02 -0.28566069710E+02  0.61518242121E+02  0.10566000000E+00 0. -1.
         23    2    1    0    0    0  0.17952947000E+02 -0.22694538173E+02 -0.75342308906E+01  0.95098244132E+02  0.90274919180E+02 0.  0.
         13    1    3    3    0    0 -0.93674300062E+01  0.24444189125E+02  0.21031838819E+02  0.33580002011E+02  0.10566000000E+00 0.  1.
         22    1    1    0    0    0 -0.17952947000E+02  0.22694538173E+02  0.75342308906E+01  0.29901755868E+02  0.00000000000E+00 0. -1.
</event>
<event>
 5    1  0.6978980E-004  0.9118800E+02  0.7818608E-02  0.1130116E+00
         25   -1    0    0    0    0  0.00000000000E+00  0.00000000000E+00  0.99999998245E-14  0.12500000000E+03  0.12500000000E+03 0.  0.
        -13    1    3    3    0    0  0.11883612091E+02  0.34538638492E+02 -0.41304986600E+02  0.55138469939E+02  0.10566000000E+00 0. -1.
         23    2    1    0    0    0  0.85093608877E+01 -0.30780136415E+01 -0.28626155934E+02  0.94977671738E+02  0.90107812839E+02 0.  0.
         13    1    3    3    0    0 -0.33742512029E+01 -0.37616652134E+02  0.12678830666E+02  0.39839201799E+02  0.10566000000E+00 0.  1.
         22    1    1    0    0    0 -0.85093608877E+01  0.30780136415E+01  0.28626155934E+02  0.30022328262E+02  0.00000000000E+00 0.  1.
</event>
<event>
 5    1  0.6978980E-004  0.9118800E+02  0.7818608E-02  0.1130116E+00
         25   -1    0    0    0    0  0.00000000000E+00  0.00000000000E+00  0.99999998245E-14  0.12500000000E+03  0.12500000000E+03 0.  0.
        -13    1    3    3    0    0 -0.44001290909E+02 -0.21269662337E+02 -0.19695214721E+02  0.52691790485E+02  0.10566000000E+00 0.  1.
         23    2    1    0    0    0 -0.66844380239E+01 -0.13455526070E+01 -0.28324986716E+02  0.95865877464E+02  0.91331644932E+02 0.  0.
         13    1    3    3    0    0  0.37316852885E+02  0.19924109730E+02 -0.86297719950E+01  0.43174086979E+02  0.10566000000E+00 0. -1.
         22    1    1    0    0    0  0.66844380239E+01  0.13455526070E+01  0.28324986716E+02  0.29134122536E+02  0.00000000000E+00 0.  1.
</event>
<event>
 5    1  0.6978980E-004  0.9118800E+02  0.7818608E-02  0.1130116E+00
         25   -1    0    0    0    0  0.00000000000E+00  0.00000000000E+00  0.99999998245E-14  0.12500000000E+03  0.12500000000E+03 0.  0.
        -13    1    3    3    0    0 -0.26114705825E+02  0.47297903413E+01  0.31925865986E+02  0.41516513100E+02  0.10566000000E+00 0.  1.
         23    2    1    0    0    0 -0.12868522643E+02 -0.25086837899E+02 -0.10391502556E+02  0.94951179122E+02  0.90071054066E+02 0.  0.
         13    1    3    3    0    0  0.13246183182E+02 -0.29816628241E+02 -0.42317368542E+02  0.53434666022E+02  0.10566000000E+00 0. -1.
         22    1    1    0    0    0  0.12868522643E+02  0.25086837899E+02  0.10391502556E+02  0.30048820878E+02  0.00000000000E+00 0.  1.
</event>
<event>
 5    1  0.6978980E-004  0.9118800E+02  0.7818608E-02  0.1130116E+00
         25   -1    0    0    0    0  0.00000000000E+00  0.00000000000E+00  0.99999998245E-14  0.12500000000E+03  0.12500000000E+03 0.  0.
        -13    1    3    3    0    0  0.35537303498E+02  0.39081885106E+02  0.28761656839E+02  0.60145970368E+02  0.10566000000E+00 0.  1.
         23    2    1    0    0    0  0.10358621053E+02  0.26162184711E+02  0.65814145388E+01  0.96102319188E+02  0.91654676897E+02 0.  0.
         13    1    3    3    0    0 -0.25178682445E+02 -0.12919700395E+02 -0.22180242300E+02  0.35956348820E+02  0.10566000000E+00 0. -1.
         22    1    1    0    0    0 -0.10358621053E+02 -0.26162184711E+02 -0.65814145388E+01  0.28897680812E+02  0.00000000000E+00 0.  1.
</event>
<event>
 5    1  0.6978980E-004  0.9118800E+02  0.7818608E-02  0.1130116E+00
         25   -1    0    0    0    0  0.00000000000E+00  0.00000000000E+00  0.99999998245E-14  0.12500000000E+03  0.12500000000E+03 0.  0.
        -13    1    3    3    0    0  0.80493993605E+01 -0.17913055262E+02  0.30149821065E+02  0.35981846161E+02  0.10566000000E+00 0. -1.
         23    2    1    0    0    0  0.10757076771E+02 -0.21185778631E+01 -0.27276663412E+02  0.95602390578E+02  0.90970311886E+02 0.  0.
         13    1    3    3    0    0  0.27076774109E+01  0.15794477399E+02 -0.57426484476E+02  0.59620544417E+02  0.10566000000E+00 0.  1.
         22    1    1    0    0    0 -0.10757076771E+02  0.21185778631E+01  0.27276663412E+02  0.29397609422E+02  0.00000000000E+00 0.  1.
</event>
<event>
 5    1  0.6978980E-004  0.9118800E+02  0.7818608E-02  0.1130116E+00
         25   -1    0    0    0    0  0.00000000000E+00  0.00000000000E+00  0.99999998245E-14  0.12500000000E+03  0.12500000000E+03 0.  0.
        -13    1    3    3    0    0 -0.45605745119E+02 -0.29427546503E+02 -0.35239512126E+01  0.54390200195E+02  0.10566000000E+00 0.  1.
         23    2    1    0    0    0 -0.13716182446E+02 -0.18883730775E+02  0.19061961991E+02  0.94865512385E+02  0.89952087782E+02 0.  0.
         13    1    3    3    0    0  0.31889562674E+02  0.10543815729E+02  0.22585913204E+02  0.40475312190E+02  0.10566000000E+00 0. -1.
         22    1    1    0    0    0  0.13716182446E+02  0.18883730775E+02 -0.19061961991E+02  0.30134487615E+02  0.00000000000E+00 0.  1.
</event>
<event>
 5    1  0.6978980E-004  0.9118800E+02  0.7818608E-02  0.1130116E+00
         25   -1    0    0    0    0  0.00000000000E+00  0.00000000000E+00  0.99999998245E-14  0.12500000000E+03  0.12500000000E+03 0.  0.
        -13    1    3    3    0    0  0.31431466050E+01 -0.10974655166E+02 -0.33481806847E+02  0.35374637530E+02  0.10566000000E+00 0.  1.
         23    2    1    0    0    0 -0.58992922975E+01 -0.18282246804E+02  0.24135077022E+02  0.94152890886E+02  0.88956296694E+02 0.  0.
         13    1    3    3    0    0 -0.90424389024E+01 -0.73075916379E+01  0.57616883869E+02  0.58778253356E+02  0.10566000000E+00 0. -1.
         22    1    1    0    0    0  0.58992922975E+01  0.18282246804E+02 -0.24135077022E+02  0.30847109114E+02  0.00000000000E+00 0. -1.
</event>
<event>
 5    1  0.6978980E-004  0.9118800E+02  0.7818608E-02  0.1130116E+00
         25   -1    0    0    0    0  0.00000000000E+00  0.00000000000E+00  0.99999998245E-14  0.12500000000E+03  0.12500000000E+03 0.  0.
        -13    1    3    3    0    0 -0.19375558638E+02 -0.37569506504E+01  0.35224655141E+02  0.40377152507E+02  0.10566000000E+00 0.  1.
         23    2    1    0    0    0 -0.18339851865E+02 -0.65591740989E+01 -0.20813105891E+02  0.96494591599E+02  0.92188111488E+02 0.  0.
         13    1    3    3    0    0  0.10357067732E+01 -0.28022234485E+01 -0.56037761032E+02  0.56117439092E+02  0.10566000000E+00 0. -1.
         22    1    1    0    0    0  0.18339851865E+02  0.65591740989E+01  0.20813105891E+02  0.28505408401E+02  0.00000000000E+00 0. -1.
</event>
<event>
 5    1  0.6978980E-004  0.9118800E+02  0.7818608E-02  0.1130116E+00
         25   -1    0    0    0    0  0.00000000000E+00  0.00000000000E+00  0.99999998245E-14  0.12500000000E+03  0.12500000000E+03 0.  0.
        -13    1    3    3    0    0 -0.16377465884E+02  0.43990103443E+02  0.97042292480E+01  0.47932596624E+02  0.10566000000E+00 0. -1.
         23    2    1    0    0    0  0.11074174112E+02  0.16350334565E+02 -0.19978895426E+02  0.96908594996E+02  0.92747769509E+02 0.  0.
         13    1    3    3    0    0  0.27451639996E+02 -0.27639768878E+02 -0.29683124674E+02  0.48975998372E+02  0.10566000000E+00 0.  1.
         22    1    1    0    0    0 -0.11074174112E+02 -0.16350334565E+02  0.19978895426E+02  0.28091405004E+02  0.00000000000E+00 0.  1.
</event>
<event>
 5    1  0.6978980E-004  0.9118800E+02  0.7818608E-02  0.1130116E+00
         25   -1    0    0    0    0  0.00000000000E+00  0.00000000000E+00  0.99999998245E-14  0.12500000000E+03  0.12500000000E+03 0.  0.
        -13    1    3    3    0    0  0.18226215696E+02  0.19237498998E+02  0.49458732361E+01  0.26958285042E+02  0.10566000000E+00 0.  1.
         23    2    1    0    0    0 -0.22370215898E+02 -0.21529717984E+02 -0.18243820388E+02  0.88988997540E+02  0.81377204333E+02 0.  0.
         13    1    3    3    0    0 -0.40596431594E+02 -0.40767216982E+02 -0.23189693624E+02  0.62030712498E+02  0.10566000000E+00 0. -1.
         22    1    1    0    0    0  0.22370215898E+02  0.21529717984E+02  0.18243820388E+02  0.36011002460E+02  0.00000000000E+00 0. -1.
</event>
<event>
 5    1  0.6978980E-004  0.9118800E+02  0.7818608E-02  0.1130116E+00
         25   -1    0    0    0    0  0.00000000000E+00  0.00000000000E+00  0.99999998245E-14  0.12500000000E+03  0.12500000000E+03 0.  0.
        -13    1    3    3    0    0 -0.21027658004E+02 -0.65374399020E+01 -0.26970830677E+02  0.34818635715E+02  0.10566000000E+00 0.  1.
         23    2    1    0    0    0 -0.44735666053E+01  0.34217211905E+02  0.62345084841E+01  0.89932928768E+02  0.82814444345E+02 0.  0.
         13    1    3    3    0    0  0.16554091399E+02  0.40754651807E+02  0.33205339161E+02  0.55114293053E+02  0.10566000000E+00 0. -1.
         22    1    1    0    0    0  0.44735666053E+01 -0.34217211905E+02 -0.62345084841E+01  0.35067071232E+02  0.00000000000E+00 0. -1.
</event>
<event>
 5    1  0.6978980E-004  0.9118800E+02  0.7818608E-02  0.1130116E+00
         25   -1    0    0    0    0  0.00000000000E+00  0.00000000000E+00  0.99999998245E-14  0.12500000000E+03  0.12500000000E+03 0.  0.
        -13    1    3    3    0    0 -0.56103447331E+02 -0.27078063964E+02  0.20079178567E+01  0.62328655117E+02  0.10566000000E+00 0.  1.
         23    2    1    0    0    0 -0.23994106978E+02 -0.13487399705E+02  0.36468716068E+01  0.97234431520E+02  0.93185878115E+02 0.  0.
         13    1    3    3    0    0  0.32109340353E+02  0.13590664259E+02  0.16389537502E+01  0.34905776404E+02  0.10566000000E+00 0. -1.
         22    1    1    0    0    0  0.23994106978E+02  0.13487399705E+02 -0.36468716068E+01  0.27765568480E+02  0.00000000000E+00 0.  1.
</event>
<event>
 5    1  0.6978980E-004  0.9118800E+02  0.7818608E-02  0.1130116E+00
         25   -1    0    0    0    0  0.00000000000E+00  0.00000000000E+00  0.99999998245E-14  0.12500000000E+03  0.12500000000E+03 0.  0.
        -13    1    3    3    0    0 -0.23981560934E+02 -0.37486827220E+00  0.29709716841E+02  0.38182904943E+02  0.10566000000E+00 0.  1.
         23    2    1    0    0    0 -0.70476354262E+01  0.58027552351E-01 -0.26858051003E+02  0.97232619209E+02  0.93183447040E+02 0.  0.
         13    1    3    3    0    0  0.16933925508E+02  0.43289582456E+00 -0.56567767845E+02  0.59049714266E+02  0.10566000000E+00 0. -1.
         22    1    1    0    0    0  0.70476354262E+01 -0.58027552351E-01  0.26858051003E+02  0.27767380791E+02  0.00000000000E+00 0. -1.
</event>
<event>
 5    1  0.6978980E-004  0.9118800E+02  0.7818608E-02  0.1130116E+00
         25   -1    0    0    0    0  0.00000000000E+00  0.00000000000E+00  0.99999998245E-14  0.12500000000E+03  0.12500000000E+03 0.  0.
        -13    1    3    3    0    0  0.35642579405E+01  0.45835415323E+02  0.23971867805E+02  0.51848344646E+02  0.10566000000E+00 0. -1.
         23    2    1    0    0    0  0.25922072799E+02  0.12484794752E+02  0.73526206423E+01  0.95303451572E+02  0.90558615786E+02 0.  0.
         13    1    3    3    0    0  0.22357814859E+02 -0.33350620570E+02 -0.16619247162E+02  0.43455106926E+02  0.10566000000E+00 0.  1.
         22    1    1    0    0    0 -0.25922072799E+02 -0.12484794752E+02 -0.73526206423E+01  0.29696548428E+02  0.00000000000E+00 0. -1.
</event>
<event>
 5    1  0.6978980E-004  0.9118800E+02  0.7818608E-02  0.1130116E+00
         25   -1    0    0    0    0  0.00000000000E+00  0.00000000000E+00  0.99999998245E-14  0.12500000000E+03  0.12500000000E+03 0.  0.
        -13    1    3    3    0    0 -0.12074808798E+02  0.36369885771E+02 -0.27735675184E+01  0.38422303931E+02  0.10566000000E+00 0.  1.
         23    2    1    0    0    0  0.26899292228E+02 -0.28766895584E+01 -0.13503701226E+02  0.94764305664E+02  0.89811337904E+02 0.  0.
         13    1    3    3    0    0  0.38974101026E+02 -0.39246575330E+02 -0.10730133708E+02  0.56342001733E+02  0.10566000000E+00 0. -1.
         22    1    1    0    0    0 -0.26899292228E+02  0.28766895584E+01  0.13503701226E+02  0.30235694336E+02  0.00000000000E+00 0. -1.
</event>
<event>
 5    1  0.6978980E-004  0.9118800E+02  0.7818608E-02  0.1130116E+00
         25   -1    0    0    0    0  0.00000000000E+00  0.00000000000E+00  0.99999998245E-14  0.12500000000E+03  0.12500000000E+03 0.  0.
        -13    1    3    3    0    0  0.34471040072E+01 -0.78576811648E+00  0.35202865948E+02  0.35380120019E+02  0.10566000000E+00 0.  1.
         23    2    1    0    0    0 -0.15191746402E+02  0.15704205231E+02 -0.19649752859E+02  0.95614220989E+02  0.90986566300E+02 0.  0.
         13    1    3    3    0    0 -0.18638850410E+02  0.16489973348E+02 -0.54852618807E+02  0.60234100969E+02  0.10566000000E+00 0. -1.
         22    1    1    0    0    0  0.15191746402E+02 -0.15704205231E+02  0.19649752859E+02  0.29385779011E+02  0.00000000000E+00 0. -1.
</event>
<event>
 5    1  0.6978980E-004  0.9118800E+02  0.7818608E-02  0.1130116E+00
         25   -1    0    0    0    0  0.00000000000E+00  0.00000000000E+00  0.99999998245E-14  0.12500000000E+03  0.12500000000E+03 0.  0.
        -13    1    3    3    0    0 -0.28451400058E+02  0.28514437954E+02  0.27607566646E+01  0.40375590132E+02  0.10566000000E+00 0. -1.
         23    2    1    0    0    0  0.24699980426E+02  0.13290871383E+02  0.77815732876E+01  0.95891767865E+02  0.91367072659E+02 0.  0.
         13    1    3    3    0    0  0.53151380484E+02 -0.15223566571E+02  0.50208166230E+01  0.55516177733E+02  0.10566000000E+00 0.  1.
         22    1    1    0    0    0 -0.24699980426E+02 -0.13290871383E+02 -0.77815732876E+01  0.29108232135E+02  0.00000000000E+00 0.  1.
</event>
<event>
 5    1  0.6978980E-004  0.9118800E+02  0.7818608E-02  0.1130116E+00
         25   -1    0    0    0    0  0.00000000000E+00  0.00000000000E+00  0.99999998245E-14  0.12500000000E+03  0.12500000000E+03 0.  0.
        -13    1    3    3    0    0 -0.10252033747E+02 -0.19679757743E+02 -0.43265254820E+02  0.48623970421E+02  0.10566000000E+00 0.  1.
         23    2    1    0    0    0  0.17956435845E+02 -0.21506040103E+02 -0.44647358600E+01  0.96629641957E+02  0.92371047895E+02 0.  0.
         13    1    3    3    0    0  0.28208469593E+02 -0.18262823603E+01  0.38800518960E+02  0.48005671536E+02  0.10566000000E+00 0. -1.
         22    1    1    0    0    0 -0.17956435845E+02  0.21506040103E+02  0.44647358600E+01  0.28370358043E+02  0.00000000000E+00 0.  1.
</event>
<event>
 5    1  0.6978980E-004  0.9118800E+02  0.7818608E-02  0.1130116E+00
         25   -1    0    0    0    0  0.00000000000E+00  0.00000000000E+00  0.99999998245E-14  0.12500000000E+03  0.12500000000E+03 0.  0.
        -13    1    3    3    0    0 -0.53372725271E+02 -0.19280878598E+02 -0.21655736388E+02  0.60740284531E+02  0.10566000000E+00 0. -1.
         23    2    1    0    0    0 -0.24957047357E+02  0.91805675814E+00 -0.13758482276E+02  0.96486970075E+02  0.92177776707E+02 0.  0.
         13    1    3    3    0    0  0.28415677914E+02  0.20198935356E+02  0.78972541121E+01  0.35746685544E+02  0.10566000000E+00 0.  1.
         22    1    1    0    0    0  0.24957047357E+02 -0.91805675814E+00  0.13758482276E+02  0.28513029925E+02  0.00000000000E+00 0. -1.
</event>
<event>
 5    1  0.6978980E-004  0.9118800E+02  0.7818608E-02  0.1130116E+00
         25   -1    0    0    0    0  0.00000000000E+00  0.00000000000E+00  0.99999998245E-14  0.12500000000E+03  0.12500000000E+03 0.  0.
        -13    1    3    3    0    0 -0.28870474096E+02 -0.33237896105E+01 -0.23025924199E+02  0.37077704907E+02  0.10566000000E+00 0.  1.
         23    2    1    0    0    0  0.21694197211E+02 -0.44204715374E+01  0.13139717100E+02  0.99254496961E+02  0.95857311877E+02 0.  0.
         13    1    3    3    0    0  0.50564671307E+02 -0.10966819269E+01  0.36165641299E+02  0.62176792055E+02  0.10566000000E+00 0. -1.
         22    1    1    0    0    0 -0.21694197211E+02  0.44204715374E+01 -0.13139717100E+02  0.25745503039E+02  0.00000000000E+00 0. -1.
</event>
<event>
 5    1  0.6978980E-004  0.9118800E+02  0.7818608E-02  0.1130116E+00
         25   -1    0    0    0    0  0.00000000000E+00  0.00000000000E+00  0.99999998245E-14  0.12500000000E+03  0.12500000000E+03 0.  0.
        -13    1    3    3    0    0 -0.14828974498E+02  0.25926431858E+02 -0.22838190441E+02  0.37598835888E+02  0.10566000000E+00 0. -1.
         23    2    1    0    0    0  0.99010050980E+01  0.42214344360E+02  0.86089075196E+01  0.80793732793E+02  0.67627163169E+02 0.  0.
         13    1    3    3    0    0  0.24729979596E+02  0.16287912502E+02  0.31447097960E+02  0.43194896905E+02  0.10566000000E+00 0.  1.
         22    1    1    0    0    0 -0.99010050980E+01 -0.42214344360E+02 -0.86089075196E+01  0.44206267207E+02  0.00000000000E+00 0.  1.
</event>
<event>
 5    1  0.6978980E-004  0.9118800E+02  0.7818608E-02  0.1130116E+00
         25   -1    0    0    0    0  0.00000000000E+00  0.00000000000E+00  0.99999998245E-14  0.12500000000E+03  0.12500000000E+03 0.  0.
        -13    1    3    3    0    0  0.26148060750E+02  0.19712727615E+02  0.20564252651E+02  0.38667975925E+02  0.10566000000E+00 0.  1.
         23    2    1    0    0    0  0.27686885520E+02 -0.21415442557E+02 -0.84102647570E+01  0.89001147755E+02  0.81395865612E+02 0.  0.
         13    1    3    3    0    0  0.15388247701E+01 -0.41128170172E+02 -0.28974517408E+02  0.50333171830E+02  0.10566000000E+00 0. -1.
         22    1    1    0    0    0 -0.27686885520E+02  0.21415442557E+02  0.84102647570E+01  0.35998852245E+02  0.00000000000E+00 0. -1.
</event>
<event>
 5    1  0.6978980E-004  0.9118800E+02  0.7818608E-02  0.1130116E+00
         25   -1    0    0    0    0  0.00000000000E+00  0.00000000000E+00  0.99999998245E-14  0.12500000000E+03  0.12500000000E+03 0.  0.
        -13    1    3    3    0    0 -0.93815291825E+01 -0.75627321073E+01 -0.28526553160E+02  0.30967457208E+02  0.10566000000E+00 0. -1.
         23    2    1    0    0    0  0.80963810486E+01  0.83645070128E+01  0.29316213468E+02  0.93457065201E+02  0.87973099867E+02 0.  0.
         13    1    3    3    0    0  0.17477910231E+02  0.15927239120E+02  0.57842766627E+02  0.62489607993E+02  0.10566000000E+00 0.  1.
         22    1    1    0    0    0 -0.80963810486E+01 -0.83645070128E+01 -0.29316213468E+02  0.31542934799E+02  0.00000000000E+00 0.  1.
</event>
<event>
 5    1  0.6978980E-004  0.9118800E+02  0.7818608E-02  0.1130116E+00
         25   -1    0    0    0    0  0.00000000000E+00  0.00000000000E+00  0.99999998245E-14  0.12500000000E+03  0.12500000000E+03 0.  0.
        -13    1    3    3    0    0 -0.31339693934E+02  0.13498635936E+02 -0.62919480904E+01  0.34698549866E+02  0.10566000000E+00 0. -1.
         23    2    1    0    0    0  0.21769790934E+02 -0.17471516545E+02 -0.71523891814E+01  0.96184477122E+02  0.91766656693E+02 0.  0.
         13    1    3    3    0    0  0.53109484868E+02 -0.30970152481E+02 -0.86044109104E+00  0.61485927256E+02  0.10566000000E+00 0.  1.
         22    1    1    0    0    0 -0.21769790934E+02  0.17471516545E+02  0.71523891814E+01  0.28815522878E+02  0.00000000000E+00 0.  1.
</event>
<event>
 5    1  0.6978980E-004  0.9118800E+02  0.7818608E-02  0.1130116E+00
         25   -1    0    0    0    0  0.00000000000E+00  0.00000000000E+00  0.99999998245E-14  0.12500000000E+03  0.12500000000E+03 0.  0.
        -13    1    3    3    0    0 -0.28515896020E+02  0.28466572318E+00 -0.41549402275E+02  0.50394457570E+02  0.10566000000E+00 0. -1.
         23    2    1    0    0    0  0.12528848243E+02  0.98152423352E+01 -0.24357716715E+02  0.95903447215E+02  0.91383049871E+02 0.  0.
         13    1    3    3    0    0  0.41044744262E+02  0.95305766120E+01  0.17191685559E+02  0.45508989645E+02  0.10566000000E+00 0.  1.
         22    1    1    0    0    0 -0.12528848243E+02 -0.98152423352E+01  0.24357716715E+02  0.29096552785E+02  0.00000000000E+00 0.  1.
</event>
<event>
 5    1  0.6978980E-004  0.9118800E+02  0.7818608E-02  0.1130116E+00
         25   -1    0    0    0    0  0.00000000000E+00  0.00000000000E+00  0.99999998245E-14  0.12500000000E+03  0.12500000000E+03 0.  0.
        -13    1    3    3    0    0  0.98689992928E+00 -0.34545958839E+02  0.30362416529E+02  0.46003094951E+02  0.10566000000E+00 0.  1.
         23    2    1    0    0    0 -0.17475993596E+02 -0.22965699799E+02 -0.12080506009E+02  0.93714662462E+02  0.88338358687E+02 0.  0.
         13    1    3    3    0    0 -0.18462893525E+02  0.11580259040E+02 -0.42442922538E+02  0.47711567511E+02  0.10566000000E+00 0. -1.
         22    1    1    0    0    0  0.17475993596E+02  0.22965699799E+02  0.12080506009E+02  0.31285337538E+02  0.00000000000E+00 0. -1.
</event>
<event>
 5    1  0.6978980E-004  0.9118800E+02  0.7818608E-02  0.1130116E+00
         25   -1    0    0    0    0  0.00000000000E+00  0.00000000000E+00  0.99999998245E-14  0.12500000000E+03  0.12500000000E+03 0.  0.
        -13    1    3    3    0    0  0.24142935241E+02  0.31921862688E+02  0.22909111122E+02  0.46116430651E+02  0.10566000000E+00 0.  1.
         23    2    1    0    0    0  0.26120282905E+02 -0.69759409518E+01 -0.90408675397E+01  0.96492628724E+02  0.92185449942E+02 0.  0.
         13    1    3    3    0    0  0.19773476635E+01 -0.38897803640E+02 -0.31949978662E+02  0.50376198073E+02  0.10566000000E+00 0. -1.
         22    1    1    0    0    0 -0.26120282905E+02  0.69759409518E+01  0.90408675397E+01  0.28507371276E+02  0.00000000000E+00 0.  1.
</event>
<event>
 5    1  0.6978980E-004  0.9118800E+02  0.7818608E-02  0.1130116E+00
         25   -1    0    0    0    0  0.00000000000E+00  0.00000000000E+00  0.99999998245E-14  0.12500000000E+03  0.12500000000E+03 0.  0.
        -13    1    3    3    0    0  0.46114282145E+02  0.32885605769E+02 -0.21787947545E+02  0.60685384623E+02  0.10566000000E+00 0.  1.
         23    2    1    0    0    0  0.28167226512E+02  0.10376974869E+02 -0.35292912092E+01  0.94775338658E+02  0.89826692383E+02 0.  0.
         13    1    3    3    0    0 -0.17947055633E+02 -0.22508630900E+02  0.18258656335E+02  0.34089954035E+02  0.10566000000E+00 0. -1.
         22    1    1    0    0    0 -0.28167226512E+02 -0.10376974869E+02  0.35292912092E+01  0.30224661342E+02  0.00000000000E+00 0.  1.
</event>
<event>
 5    1  0.6978980E-004  0.9118800E+02  0.7818608E-02  0.1130116E+00
         25   -1    0    0    0    0  0.00000000000E+00  0.00000000000E+00  0.99999998245E-14  0.12500000000E+03  0.12500000000E+03 0.  0.
        -13    1    3    3    0    0  0.73023916157E+01  0.13368207904E+02  0.38104028556E+02  0.41036106810E+02  0.10566000000E+00 0. -1.
         23    2    1    0    0    0  0.10758691321E+02  0.21316739486E+02 -0.16275955615E+02  0.96102603016E+02  0.91655063985E+02 0.  0.
         13    1    3    3    0    0  0.34562997053E+01  0.79485315823E+01 -0.54379984171E+02  0.55066496206E+02  0.10566000000E+00 0.  1.
         22    1    1    0    0    0 -0.10758691321E+02 -0.21316739486E+02  0.16275955615E+02  0.28897396984E+02  0.00000000000E+00 0.  1.
</event>
<event>
 5    1  0.6978980E-004  0.9118800E+02  0.7818608E-02  0.1130116E+00
         25   -1    0    0    0    0  0.00000000000E+00  0.00000000000E+00  0.99999998245E-14  0.12500000000E+03  0.12500000000E+03 0.  0.
        -13    1    3    3    0    0  0.30450434438E+02  0.62549987762E+00  0.25892437992E+02  0.39975614026E+02  0.10566000000E+00 0. -1.
         23    2    1    0    0    0  0.21267874971E+01  0.20938688132E+02 -0.18887227295E+02  0.96721399599E+02  0.92495134466E+02 0.  0.
         13    1    3    3    0    0 -0.28323646941E+02  0.20313188254E+02 -0.44779665287E+02  0.56745785573E+02  0.10566000000E+00 0.  1.
         22    1    1    0    0    0 -0.21267874971E+01 -0.20938688132E+02  0.18887227295E+02  0.28278600401E+02  0.00000000000E+00 0.  1.
</event>
<event>
 5    1  0.6978980E-004  0.9118800E+02  0.7818608E-02  0.1130116E+00
         25   -1    0    0    0    0  0.00000000000E+00  0.00000000000E+00  0.99999998245E-14  0.12500000000E+03  0.12500000000E+03 0.  0.
        -13    1    3    3    0    0  0.22379701003E+02 -0.17508469083E+02 -0.53112016721E+02  0.60235330088E+02  0.10566000000E+00 0. -1.
         23    2    1    0    0    0  0.88950938726E+01  0.33460012812E+01 -0.27471265294E+02  0.95931308313E+02  0.91421152247E+02 0.  0.
         13    1    3    3    0    0 -0.13484607130E+02  0.20854470364E+02  0.25640751427E+02  0.35695978224E+02  0.10566000000E+00 0.  1.
         22    1    1    0    0    0 -0.88950938726E+01 -0.33460012812E+01  0.27471265294E+02  0.29068691687E+02  0.00000000000E+00 0. -1.
</event>
<event>
 5    1  0.6978980E-004  0.9118800E+02  0.7818608E-02  0.1130116E+00
         25   -1    0    0    0    0  0.00000000000E+00  0.00000000000E+00  0.99999998245E-14  0.12500000000E+03  0.12500000000E+03 0.  0.
        -13    1    3    3    0    0 -0.31351459074E+02  0.45976508967E+02 -0.14281090539E+00  0.55648763884E+02  0.10566000000E+00 0.  1.
         23    2    1    0    0    0 -0.16405028576E+02  0.17605827672E+02 -0.20293128953E+02  0.93521416593E+02  0.88064488577E+02 0.  0.
         13    1    3    3    0    0  0.14946430497E+02 -0.28370681295E+02 -0.20150318047E+02  0.37872652709E+02  0.10566000000E+00 0. -1.
         22    1    1    0    0    0  0.16405028576E+02 -0.17605827672E+02  0.20293128953E+02  0.31478583407E+02  0.00000000000E+00 0.  1.
</event>
<event>
 5    1  0.6978980E-004  0.9118800E+02  0.7818608E-02  0.1130116E+00
         25   -1    0    0    0    0  0.00000000000E+00  0.00000000000E+00  0.99999998245E-14  0.12500000000E+03  0.12500000000E+03 0.  0.
        -13    1    3    3    0    0  0.33609676040E+02  0.93953337631E+01  0.14734773972E+02  0.37881490837E+02  0.10566000000E+00 0.  1.
         23    2    1    0    0    0 -0.68094342784E+00 -0.11704050533E+02 -0.26812352334E+02  0.95736529247E+02  0.91154442085E+02 0.  0.
         13    1    3    3    0    0 -0.34290619467E+02 -0.21099384296E+02 -0.41547126306E+02  0.57855038410E+02  0.10566000000E+00 0. -1.
         22    1    1    0    0    0  0.68094342784E+00  0.11704050533E+02  0.26812352334E+02  0.29263470753E+02  0.00000000000E+00 0. -1.
</event>
<event>
 5    1  0.6978980E-004  0.9118800E+02  0.7818608E-02  0.1130116E+00
         25   -1    0    0    0    0  0.00000000000E+00  0.00000000000E+00  0.99999998245E-14  0.12500000000E+03  0.12500000000E+03 0.  0.
        -13    1    3    3    0    0 -0.26866559521E+02  0.20507565202E+02 -0.14619553675E+02  0.36825463537E+02  0.10566000000E+00 0. -1.
         23    2    1    0    0    0  0.10585759391E+02  0.82795812921E+01  0.27434020553E+02  0.94451100643E+02  0.89374354043E+02 0.  0.
         13    1    3    3    0    0  0.37452318912E+02 -0.12227983910E+02  0.42053574228E+02  0.57625637105E+02  0.10566000000E+00 0.  1.
         22    1    1    0    0    0 -0.10585759391E+02 -0.82795812921E+01 -0.27434020553E+02  0.30548899357E+02  0.00000000000E+00 0.  1.
</event>
<event>
 5    1  0.6978980E-004  0.9118800E+02  0.7818608E-02  0.1130116E+00
         25   -1    0    0    0    0  0.00000000000E+00  0.00000000000E+00  0.99999998245E-14  0.12500000000E+03  0.12500000000E+03 0.  0.
        -13    1    3    3    0    0  0.75826255812E+01  0.36883512004E+02  0.19837134916E+01  0.37707240044E+02  0.10566000000E+00 0.  1.
         23    2    1    0    0    0 -0.45980066094E-01 -0.13376348194E+02 -0.26018032919E+02  0.95744798033E+02  0.91165780358E+02 0.  0.
         13    1    3    3    0    0 -0.76286056473E+01 -0.50259860198E+02 -0.28001746410E+02  0.58037557989E+02  0.10566000000E+00 0. -1.
         22    1    1    0    0    0  0.45980066094E-01  0.13376348194E+02  0.26018032919E+02  0.29255201967E+02  0.00000000000E+00 0. -1.
</event>
<event>
 5    1  0.6978980E-004  0.9118800E+02  0.7818608E-02  0.1130116E+00
         25   -1    0    0    0    0  0.00000000000E+00  0.00000000000E+00  0.99999998245E-14  0.12500000000E+03  0.12500000000E+03 0.  0.
        -13    1    3    3    0    0  0.45450273220E+02 -0.83557247740E+01 -0.30013045896E+02  0.55102990483E+02  0.10566000000E+00 0. -1.
         23    2    1    0    0    0  0.28006021948E+02 -0.53419254049E+01  0.65678449765E+01  0.95742351085E+02  0.91162425216E+02 0.  0.
         13    1    3    3    0    0 -0.17444251272E+02  0.30137993691E+01  0.36580890872E+02  0.40639360602E+02  0.10566000000E+00 0.  1.
         22    1    1    0    0    0 -0.28006021948E+02  0.53419254049E+01 -0.65678449765E+01  0.29257648915E+02  0.00000000000E+00 0. -1.
</event>
<event>
 5    1  0.6978980E-004  0.9118800E+02  0.7818608E-02  0.1130116E+00
         25   -1    0    0    0    0  0.00000000000E+00  0.00000000000E+00  0.99999998245E-14  0.12500000000E+03  0.12500000000E+03 0.  0.
        -13    1    3    3    0    0 -0.39974715863E+02 -0.87516787587E+01  0.21240621165E+02  0.46105801597E+02  0.10566000000E+00 0.  1.
         23    2    1    0    0    0  0.29770128086E+01  0.14205738683E+02  0.26188124172E+02  0.95058666288E+02  0.90220100710E+02 0.  0.
         13    1    3    3    0    0  0.42951728671E+02  0.22957417441E+02  0.49475030076E+01  0.48952864691E+02  0.10566000000E+00 0. -1.
         22    1    1    0    0    0 -0.29770128086E+01 -0.14205738683E+02 -0.26188124172E+02  0.29941333712E+02  0.00000000000E+00 0. -1.
</event>
<event>
 5    1  0.6978980E-004  0.9118800E+02  0.7818608E-02  0.1130116E+00
         25   -1    0    0    0    0  0.00000000000E+00  0.00000000000E+00  0.99999998245E-14  0.12500000000E+03  0.12500000000E+03 0.  0.
        -13    1    3    3    0    0 -0.24963122914E+02 -0.26829206477E+02 -0.10215557749E+02  0.38043824860E+02  0.10566000000E+00 0.  1.
         23    2    1    0    0    0  0.15806521670E+02  0.17162626146E+02 -0.13375221856E+02  0.98105792013E+02  0.94347485411E+02 0.  0.
         13    1    3    3    0    0  0.40769644584E+02  0.43991832623E+02 -0.31596641072E+01  0.60061967153E+02  0.10566000000E+00 0. -1.
         22    1    1    0    0    0 -0.15806521670E+02 -0.17162626146E+02  0.13375221856E+02  0.26894207987E+02  0.00000000000E+00 0. -1.
</event>
<event>
 5    1  0.6978980E-004  0.9118800E+02  0.7818608E-02  0.1130116E+00
         25   -1    0    0    0    0  0.00000000000E+00  0.00000000000E+00  0.99999998245E-14  0.12500000000E+03  0.12500000000E+03 0.  0.
        -13    1    3    3    0    0  0.34133578048E+02  0.18471835328E+02 -0.17373510035E+02  0.42522463072E+02  0.10566000000E+00 0. -1.
         23    2    1    0    0    0 -0.16004327878E+02 -0.12877799532E+02 -0.10127845823E+02  0.10209695451E+03  0.99494917599E+02 0.  0.
         13    1    3    3    0    0 -0.50137905925E+02 -0.31349634860E+02  0.72456642124E+01  0.59574491440E+02  0.10566000000E+00 0.  1.
         22    1    1    0    0    0  0.16004327878E+02  0.12877799532E+02  0.10127845823E+02  0.22903045488E+02  0.00000000000E+00 0.  1.
</event>
<event>
 5    1  0.6978980E-004  0.9118800E+02  0.7818608E-02  0.1130116E+00
         25   -1    0    0    0    0  0.00000000000E+00  0.00000000000E+00  0.99999998245E-14  0.12500000000E+03  0.12500000000E+03 0.  0.
        -13    1    3    3    0    0 -0.27457851981E+01 -0.38162144938E+02  0.10735216053E+02  0.39738453296E+02  0.10566000000E+00 0.  1.
         23    2    1    0    0    0  0.10109824432E+02  0.20330346005E+02  0.11318510264E+02  0.99629935094E+02  0.96345647403E+02 0.  0.
         13    1    3    3    0    0  0.12855609630E+02  0.58492490944E+02  0.58329421156E+00  0.59891481798E+02  0.10566000000E+00 0. -1.
         22    1    1    0    0    0 -0.10109824432E+02 -0.20330346005E+02 -0.11318510264E+02  0.25370064906E+02  0.00000000000E+00 0. -1.
</event>
<event>
 5    1  0.6978980E-004  0.9118800E+02  0.7818608E-02  0.1130116E+00
         25   -1    0    0    0    0  0.00000000000E+00  0.00000000000E+00  0.99999998245E-14  0.12500000000E+03  0.12500000000E+03 0.  0.
        -13    1    3    3    0    0 -0.53437396903E+02  0.55457675174E+01 -0.90083127460E+00  0.53732053619E+02  0.10566000000E+00 0.  1.
         23    2    1    0    0    0 -0.22647220969E+02 -0.19972173166E+02  0.57219161656E+01  0.94266880354E+02  0.89116328967E+02 0.  0.
         13    1    3    3    0    0  0.30790175934E+02 -0.25517940683E+02  0.66227474402E+01  0.40534826735E+02  0.10566000000E+00 0. -1.
         22    1    1    0    0    0  0.22647220969E+02  0.19972173166E+02 -0.57219161656E+01  0.30733119646E+02  0.00000000000E+00 0.  1.
</event>
<event>
 5    1  0.6978980E-004  0.9118800E+02  0.7818608E-02  0.1130116E+00
         25   -1    0    0    0    0  0.00000000000E+00  0.00000000000E+00  0.99999998245E-14  0.12500000000E+03  0.12500000000E+03 0.  0.
        -13    1    3    3    0    0  0.69472559523E+00  0.16522938840E+02  0.32583146251E+02  0.36539878698E+02  0.10566000000E+00 0.  1.
         23    2    1    0    0    0 -0.18666566928E+02 -0.95192564765E+01 -0.18492834242E+02  0.97052873439E+02  0.92942016116E+02 0.  0.
         13    1    3    3    0    0 -0.19361292523E+02 -0.26042195317E+02 -0.51075980494E+02  0.60512994741E+02  0.10566000000E+00 0. -1.
         22    1    1    0    0    0  0.18666566928E+02  0.95192564765E+01  0.18492834242E+02  0.27947126561E+02  0.00000000000E+00 0. -1.
</event>
<event>
 5    1  0.6978980E-004  0.9118800E+02  0.7818608E-02  0.1130116E+00
         25   -1    0    0    0    0  0.00000000000E+00  0.00000000000E+00  0.99999998245E-14  0.12500000000E+03  0.12500000000E+03 0.  0.
        -13    1    3    3    0    0  0.23830478078E+02 -0.40370549562E+01 -0.39665783976E+02  0.46449704850E+02  0.10566000000E+00 0. -1.
         23    2    1    0    0    0 -0.10359500143E+02 -0.25118138052E+02 -0.11564446859E+02  0.95470751219E+02  0.90789249390E+02 0.  0.
         13    1    3    3    0    0 -0.34189978221E+02 -0.21081083096E+02  0.28101337118E+02  0.49021046369E+02  0.10566000000E+00 0.  1.
         22    1    1    0    0    0  0.10359500143E+02  0.25118138052E+02  0.11564446859E+02  0.29529248781E+02  0.00000000000E+00 0.  1.
</event>
<event>
 5    1  0.6978980E-004  0.9118800E+02  0.7818608E-02  0.1130116E+00
         25   -1    0    0    0    0  0.00000000000E+00  0.00000000000E+00  0.99999998245E-14  0.12500000000E+03  0.12500000000E+03 0.  0.
        -13    1    3    3    0    0  0.14113582376E+02  0.23637857075E+02 -0.38884121308E+02  0.47643756658E+02  0.10566000000E+00 0.  1.
         23    2    1    0    0    0 -0.23645626476E+02  0.31416116441E+01 -0.15409666146E+02  0.96602056661E+02  0.92333710882E+02 0.  0.
         13    1    3    3    0    0 -0.37759208852E+02 -0.20496245431E+02  0.23474455162E+02  0.48958300002E+02  0.10566000000E+00 0. -1.
         22    1    1    0    0    0  0.23645626476E+02 -0.31416116441E+01  0.15409666146E+02  0.28397943339E+02  0.00000000000E+00 0. -1.
</event>
<event>
 5    1  0.6978980E-004  0.9118800E+02  0.7818608E-02  0.1130116E+00
         25   -1    0    0    0    0  0.00000000000E+00  0.00000000000E+00  0.99999998245E-14  0.12500000000E+03  0.12500000000E+03 0.  0.
        -13    1    3    3    0    0  0.34232067938E+02 -0.94705263565E+01  0.16712314216E+02  0.39253508827E+02  0.10566000000E+00 0.  1.
         23    2    1    0    0    0 -0.19526696283E+02 -0.21244778100E+02  0.28602100765E+01  0.96003219732E+02  0.91519423802E+02 0.  0.
         13    1    3    3    0    0 -0.53758764221E+02 -0.11774251743E+02 -0.13852104139E+02  0.56749710905E+02  0.10566000000E+00 0. -1.
         22    1    1    0    0    0  0.19526696283E+02  0.21244778100E+02 -0.28602100765E+01  0.28996780268E+02  0.00000000000E+00 0. -1.
</event>
<event>
 5    1  0.6978980E-004  0.9118800E+02  0.7818608E-02  0.1130116E+00
         25   -1    0    0    0    0  0.00000000000E+00  0.00000000000E+00  0.99999998245E-14  0.12500000000E+03  0.12500000000E+03 0.  0.
        -13    1    3    3    0    0  0.74079065816E+01 -0.38986697483E+02  0.21602138454E+02  0.45182996917E+02  0.10566000000E+00 0.  1.
         23    2    1    0    0    0  0.21208060944E+02  0.95496965959E+01  0.17658731984E+02  0.95797099983E+02  0.91237464870E+02 0.  0.
         13    1    3    3    0    0  0.13800154363E+02  0.48536394079E+02 -0.39434064696E+01  0.50614103067E+02  0.10566000000E+00 0. -1.
         22    1    1    0    0    0 -0.21208060944E+02 -0.95496965959E+01 -0.17658731984E+02  0.29202900017E+02  0.00000000000E+00 0. -1.
</event>
<event>
 5    1  0.6978980E-004  0.9118800E+02  0.7818608E-02  0.1130116E+00
         25   -1    0    0    0    0  0.00000000000E+00  0.00000000000E+00  0.99999998245E-14  0.12500000000E+03  0.12500000000E+03 0.  0.
        -13    1    3    3    0    0 -0.23167766660E+02 -0.30564330888E+02 -0.39907587359E+02  0.55349348935E+02  0.10566000000E+00 0. -1.
         23    2    1    0    0    0 -0.30967735273E+01 -0.32438725407E+02 -0.10968796944E+02  0.90617222062E+02  0.83840953689E+02 0.  0.
         13    1    3    3    0    0  0.20070993133E+02 -0.18743945190E+01  0.28938790415E+02  0.35267873127E+02  0.10566000000E+00 0.  1.
         22    1    1    0    0    0  0.30967735273E+01  0.32438725407E+02  0.10968796944E+02  0.34382777938E+02  0.00000000000E+00 0. -1.
</event>
<event>
 5    1  0.6978980E-004  0.9118800E+02  0.7818608E-02  0.1130116E+00
         25   -1    0    0    0    0  0.00000000000E+00  0.00000000000E+00  0.99999998245E-14  0.12500000000E+03  0.12500000000E+03 0.  0.
        -13    1    3    3    0    0 -0.48544952652E+01 -0.91801364184E+01  0.33795720331E+02  0.35355380152E+02  0.10566000000E+00 0. -1.
         23    2    1    0    0    0  0.21057435675E+02  0.43747610512E+01 -0.19384954358E+02  0.96046060943E+02  0.91577918931E+02 0.  0.
         13    1    3    3    0    0  0.25911930940E+02  0.13554897470E+02 -0.53180674689E+02  0.60690680791E+02  0.10566000000E+00 0.  1.
         22    1    1    0    0    0 -0.21057435675E+02 -0.43747610512E+01  0.19384954358E+02  0.28953939057E+02  0.00000000000E+00 0.  1.
</event>
<event>
 5    1  0.6978980E-004  0.9118800E+02  0.7818608E-02  0.1130116E+00
         25   -1    0    0    0    0  0.00000000000E+00  0.00000000000E+00  0.99999998245E-14  0.12500000000E+03  0.12500000000E+03 0.  0.
        -13    1    3    3    0    0 -0.31779879536E+01  0.44351066639E+02  0.29032219296E+02  0.53103649976E+02  0.10566000000E+00 0. -1.
         23    2    1    0    0    0 -0.38867494672E+01  0.25742718400E+02 -0.10597997263E+02  0.96891070493E+02  0.92724148005E+02 0.  0.
         13    1    3    3    0    0 -0.70876151361E+00 -0.18608348239E+02 -0.39630216559E+02  0.43787420518E+02  0.10566000000E+00 0.  1.
         22    1    1    0    0    0  0.38867494672E+01 -0.25742718400E+02  0.10597997263E+02  0.28108929507E+02  0.00000000000E+00 0. -1.
</event>
<event>
 5    1  0.6978980E-004  0.9118800E+02  0.7818608E-02  0.1130116E+00
         25   -1    0    0    0    0  0.00000000000E+00  0.00000000000E+00  0.99999998245E-14  0.12500000000E+03  0.12500000000E+03 0.  0.
        -13    1    3    3    0    0 -0.20829427905E+02 -0.41032902090E+01  0.56345033559E+02  0.60211925963E+02  0.10566000000E+00 0. -1.
         23    2    1    0    0    0 -0.19441321782E+02  0.10419629838E+00  0.19010600077E+02  0.97808479910E+02  0.93952753965E+02 0.  0.
         13    1    3    3    0    0  0.13881061230E+01  0.42074865074E+01 -0.37334433482E+02  0.37596553948E+02  0.10566000000E+00 0.  1.
         22    1    1    0    0    0  0.19441321782E+02 -0.10419629838E+00 -0.19010600077E+02  0.27191520090E+02  0.00000000000E+00 0. -1.
</event>
<event>
 5    1  0.6978980E-004  0.9118800E+02  0.7818608E-02  0.1130116E+00
         25   -1    0    0    0    0  0.00000000000E+00  0.00000000000E+00  0.99999998245E-14  0.12500000000E+03  0.12500000000E+03 0.  0.
        -13    1    3    3    0    0  0.99516161356E+01  0.38715227241E+01 -0.60638734468E+02  0.61571833120E+02  0.10566000000E+00 0.  1.
         23    2    1    0    0    0  0.87872134972E+01  0.47333073542E+01 -0.16628540159E+02  0.10560598888E+03  0.10380990906E+03 0.  0.
         13    1    3    3    0    0 -0.11644026383E+01  0.86178463017E+00  0.44010194309E+02  0.44034155759E+02  0.10566000000E+00 0. -1.
         22    1    1    0    0    0 -0.87872134972E+01 -0.47333073542E+01  0.16628540159E+02  0.19394011121E+02  0.00000000000E+00 0.  1.
</event>
<event>
 5    1  0.6978980E-004  0.9118800E+02  0.7818608E-02  0.1130116E+00
         25   -1    0    0    0    0  0.00000000000E+00  0.00000000000E+00  0.99999998245E-14  0.12500000000E+03  0.12500000000E+03 0.  0.
        -13    1    3    3    0    0  0.25216850764E+02  0.19195887366E+02  0.17504136198E+02  0.36204662715E+02  0.10566000000E+00 0.  1.
         23    2    1    0    0    0  0.71352654807E+01 -0.31945697013E+02  0.47933189342E+01  0.91918049067E+02  0.85758453033E+02 0.  0.
         13    1    3    3    0    0 -0.18081585284E+02 -0.51141584379E+02 -0.12710817264E+02  0.55713386351E+02  0.10566000000E+00 0. -1.
         22    1    1    0    0    0 -0.71352654807E+01  0.31945697013E+02 -0.47933189342E+01  0.33081950933E+02  0.00000000000E+00 0. -1.
</event>
<event>
 5    1  0.6978980E-004  0.9118800E+02  0.7818608E-02  0.1130116E+00
         25   -1    0    0    0    0  0.00000000000E+00  0.00000000000E+00  0.99999998245E-14  0.12500000000E+03  0.12500000000E+03 0.  0.
        -13    1    3    3    0    0 -0.56983382924E+02  0.20647522658E+02  0.13354332792E+02  0.62062673885E+02  0.10566000000E+00 0. -1.
         23    2    1    0    0    0 -0.26827858335E+02  0.10195108775E+02  0.10102362293E+01  0.96282500056E+02  0.91900081686E+02 0.  0.
         13    1    3    3    0    0  0.30155524588E+02 -0.10452413883E+02 -0.12344096563E+02  0.34219826171E+02  0.10566000000E+00 0.  1.
         22    1    1    0    0    0  0.26827858335E+02 -0.10195108775E+02 -0.10102362293E+01  0.28717499944E+02  0.00000000000E+00 0. -1.
</event>
<event>
 5    1  0.6978980E-004  0.9118800E+02  0.7818608E-02  0.1130116E+00
         25   -1    0    0    0    0  0.00000000000E+00  0.00000000000E+00  0.99999998245E-14  0.12500000000E+03  0.12500000000E+03 0.  0.
        -13    1    3    3    0    0 -0.21342276405E+02 -0.29630114140E+02 -0.23404703071E+02  0.43373122045E+02  0.10566000000E+00 0.  1.
         23    2    1    0    0    0 -0.23872590476E+02  0.59988983187E+01  0.15281578309E+02  0.96027357859E+02  0.91552386450E+02 0.  0.
         13    1    3    3    0    0 -0.25303140704E+01  0.35629012459E+02  0.38686281379E+02  0.52654235813E+02  0.10566000000E+00 0. -1.
         22    1    1    0    0    0  0.23872590476E+02 -0.59988983187E+01 -0.15281578309E+02  0.28972642141E+02  0.00000000000E+00 0. -1.
</event>
<event>
 5    1  0.6978980E-004  0.9118800E+02  0.7818608E-02  0.1130116E+00
         25   -1    0    0    0    0  0.00000000000E+00  0.00000000000E+00  0.99999998245E-14  0.12500000000E+03  0.12500000000E+03 0.  0.
        -13    1    3    3    0    0 -0.29173735680E+02  0.38136418938E+02 -0.38937233296E+02  0.61819192842E+02  0.10566000000E+00 0. -1.
         23    2    1    0    0    0 -0.21796467454E+02  0.18041656470E+02 -0.23636787131E+02  0.88131516609E+02  0.80049229555E+02 0.  0.
         13    1    3    3    0    0  0.73772682254E+01 -0.20094762469E+02  0.15300446165E+02  0.26312323767E+02  0.10566000000E+00 0.  1.
         22    1    1    0    0    0  0.21796467454E+02 -0.18041656470E+02  0.23636787131E+02  0.36868483391E+02  0.00000000000E+00 0. -1.
</event>
<event>
 5    1  0.6978980E-004  0.9118800E+02  0.7818608E-02  0.1130116E+00
         25   -1    0    0    0    0  0.00000000000E+00  0.00000000000E+00  0.99999998245E-14  0.12500000000E+03  0.12500000000E+03 0.  0.
        -13    1    3    3    0    0 -0.30404184126E+02 -0.98344332544E+01  0.12836273254E+02  0.34437066728E+02  0.10566000000E+00 0.  1.
         23    2    1    0    0    0  0.18199677351E+02  0.24180130212E+02  0.59146863466E+01  0.94163488081E+02  0.88971186461E+02 0.  0.
         13    1    3    3    0    0  0.48603861476E+02  0.34014563467E+02 -0.69215869069E+01  0.59726421353E+02  0.10566000000E+00 0. -1.
         22    1    1    0    0    0 -0.18199677351E+02 -0.24180130212E+02 -0.59146863466E+01  0.30836511919E+02  0.00000000000E+00 0. -1.
</event>
<event>
 5    1  0.6978980E-004  0.9118800E+02  0.7818608E-02  0.1130116E+00
         25   -1    0    0    0    0  0.00000000000E+00  0.00000000000E+00  0.99999998245E-14  0.12500000000E+03  0.12500000000E+03 0.  0.
        -13    1    3    3    0    0 -0.34525099114E+02 -0.81037809998E+01 -0.28482656750E+02  0.45485455201E+02  0.10566000000E+00 0.  1.
         23    2    1    0    0    0  0.13260030432E+02  0.10961957352E+02 -0.21590002401E+02  0.97393458752E+02  0.93398954426E+02 0.  0.
         13    1    3    3    0    0  0.47785129545E+02  0.19065738352E+02  0.68926543493E+01  0.51908003550E+02  0.10566000000E+00 0. -1.
         22    1    1    0    0    0 -0.13260030432E+02 -0.10961957352E+02  0.21590002401E+02  0.27606541248E+02  0.00000000000E+00 0. -1.
</event>
<event>
 5    1  0.6978980E-004  0.9118800E+02  0.7818608E-02  0.1130116E+00
         25   -1    0    0    0    0  0.00000000000E+00  0.00000000000E+00  0.99999998245E-14  0.12500000000E+03  0.12500000000E+03 0.  0.
        -13    1    3    3    0    0 -0.53822848291E+00 -0.49139338153E+02  0.14296140633E+02  0.51179635062E+02  0.10566000000E+00 0.  1.
         23    2    1    0    0    0  0.95802050918E+01 -0.21022798404E+02 -0.18393771021E+02  0.95469182289E+02  0.90787089237E+02 0.  0.
         13    1    3    3    0    0  0.10118433575E+02  0.28116539750E+02 -0.32689911655E+02  0.44289547226E+02  0.10566000000E+00 0. -1.
         22    1    1    0    0    0 -0.95802050918E+01  0.21022798404E+02  0.18393771021E+02  0.29530817711E+02  0.00000000000E+00 0.  1.
</event>
<event>
 5    1  0.6978980E-004  0.9118800E+02  0.7818608E-02  0.1130116E+00
         25   -1    0    0    0    0  0.00000000000E+00  0.00000000000E+00  0.99999998245E-14  0.12500000000E+03  0.12500000000E+03 0.  0.
        -13    1    3    3    0    0  0.25210860725E+02  0.25132675861E+02  0.74920434129E+00  0.35606338840E+02  0.10566000000E+00 0.  1.
         23    2    1    0    0    0  0.77608026407E+00 -0.13796566292E+02  0.31292744687E+02  0.90792056301E+02  0.84101213281E+02 0.  0.
         13    1    3    3    0    0 -0.24434780461E+02 -0.38929242153E+02  0.30543540346E+02  0.55185717461E+02  0.10566000000E+00 0. -1.
         22    1    1    0    0    0 -0.77608026407E+00  0.13796566292E+02 -0.31292744687E+02  0.34207943699E+02  0.00000000000E+00 0. -1.
</event>
<event>
 5    1  0.6978980E-004  0.9118800E+02  0.7818608E-02  0.1130116E+00
         25   -1    0    0    0    0  0.00000000000E+00  0.00000000000E+00  0.99999998245E-14  0.12500000000E+03  0.12500000000E+03 0.  0.
        -13    1    3    3    0    0  0.11406008774E+02  0.34208376422E+02  0.83431320894E+01  0.37012552880E+02  0.10566000000E+00 0.  1.
         23    2    1    0    0    0 -0.44950518114E+01 -0.21682823800E+02  0.18674442682E+02  0.96033033500E+02  0.91560135294E+02 0.  0.
         13    1    3    3    0    0 -0.15901060586E+02 -0.55891200222E+02  0.10331310593E+02  0.59020480620E+02  0.10566000000E+00 0. -1.
         22    1    1    0    0    0  0.44950518114E+01  0.21682823800E+02 -0.18674442682E+02  0.28966966500E+02  0.00000000000E+00 0. -1.
</event>
<event>
 5    1  0.6978980E-004  0.9118800E+02  0.7818608E-02  0.1130116E+00
         25   -1    0    0    0    0  0.00000000000E+00  0.00000000000E+00  0.99999998245E-14  0.12500000000E+03  0.12500000000E+03 0.  0.
        -13    1    3    3    0    0  0.29489723481E+02  0.25087475163E+02  0.22189842589E+02  0.44625390522E+02  0.10566000000E+00 0.  1.
         23    2    1    0    0    0 -0.15024680029E+02 -0.70201340799E+01  0.19252607035E+02  0.99589644432E+02  0.96293359625E+02 0.  0.
         13    1    3    3    0    0 -0.44514403510E+02 -0.32107609243E+02 -0.29372355535E+01  0.54964253910E+02  0.10566000000E+00 0. -1.
         22    1    1    0    0    0  0.15024680029E+02  0.70201340799E+01 -0.19252607035E+02  0.25410355568E+02  0.00000000000E+00 0. -1.
</event>
<event>
 5    1  0.6978980E-004  0.9118800E+02  0.7818608E-02  0.1130116E+00
         25   -1    0    0    0    0  0.00000000000E+00  0.00000000000E+00  0.99999998245E-14  0.12500000000E+03  0.12500000000E+03 0.  0.
        -13    1    3    3    0    0 -0.31726141974E+02 -0.10698635013E+02 -0.15908342467E+02  0.37068792802E+02  0.10566000000E+00 0.  1.
         23    2    1    0    0    0  0.24539229778E+02 -0.16920730939E+02 -0.38798214031E+01  0.94941092040E+02  0.90057054194E+02 0.  0.
         13    1    3    3    0    0  0.56265371752E+02 -0.62220959263E+01  0.12028521064E+02  0.57872299238E+02  0.10566000000E+00 0. -1.
         22    1    1    0    0    0 -0.24539229778E+02  0.16920730939E+02  0.38798214031E+01  0.30058907960E+02  0.00000000000E+00 0. -1.
</event>
<event>
 5    1  0.6978980E-004  0.9118800E+02  0.7818608E-02  0.1130116E+00
         25   -1    0    0    0    0  0.00000000000E+00  0.00000000000E+00  0.99999998245E-14  0.12500000000E+03  0.12500000000E+03 0.  0.
        -13    1    3    3    0    0  0.29417335603E+02 -0.30549594161E+02 -0.29021547449E+02  0.51389869796E+02  0.10566000000E+00 0.  1.
         23    2    1    0    0    0  0.89790685420E+01  0.89508334146E+01 -0.26127532101E+02  0.95958839135E+02  0.91458787351E+02 0.  0.
         13    1    3    3    0    0 -0.20438267061E+02  0.39500427575E+02  0.28940153478E+01  0.44568969339E+02  0.10566000000E+00 0. -1.
         22    1    1    0    0    0 -0.89790685420E+01 -0.89508334146E+01  0.26127532101E+02  0.29041160865E+02  0.00000000000E+00 0.  1.
</event>
<event>
 5    1  0.6978980E-004  0.9118800E+02  0.7818608E-02  0.1130116E+00
         25   -1    0    0    0    0  0.00000000000E+00  0.00000000000E+00  0.99999998245E-14  0.12500000000E+03  0.12500000000E+03 0.  0.
        -13    1    3    3    0    0 -0.18129838152E+02  0.41920872826E+02  0.19552168899E+02  0.49682482653E+02  0.10566000000E+00 0.  1.
         23    2    1    0    0    0 -0.10582530153E+02  0.20891883137E+02 -0.19401068864E+02  0.94588452875E+02  0.89566250445E+02 0.  0.
         13    1    3    3    0    0  0.75473079992E+01 -0.21028989689E+02 -0.38953237763E+02  0.44905970222E+02  0.10566000000E+00 0. -1.
         22    1    1    0    0    0  0.10582530153E+02 -0.20891883137E+02  0.19401068864E+02  0.30411547125E+02  0.00000000000E+00 0.  1.
</event>
<event>
 5    1  0.6978980E-004  0.9118800E+02  0.7818608E-02  0.1130116E+00
         25   -1    0    0    0    0  0.00000000000E+00  0.00000000000E+00  0.99999998245E-14  0.12500000000E+03  0.12500000000E+03 0.  0.
        -13    1    3    3    0    0 -0.44445910542E+02 -0.33662322639E+02  0.94630203340E+01  0.56552195778E+02  0.10566000000E+00 0.  1.
         23    2    1    0    0    0 -0.38256268173E+02 -0.52679336439E+01  0.34517618517E+01  0.86228775628E+02  0.77020736864E+02 0.  0.
         13    1    3    3    0    0  0.61896423693E+01  0.28394388995E+02 -0.60112584823E+01  0.29676579851E+02  0.10566000000E+00 0. -1.
         22    1    1    0    0    0  0.38256268173E+02  0.52679336439E+01 -0.34517618517E+01  0.38771224372E+02  0.00000000000E+00 0.  1.
</event>
<event>
 5    1  0.6978980E-004  0.9118800E+02  0.7818608E-02  0.1130116E+00
         25   -1    0    0    0    0  0.00000000000E+00  0.00000000000E+00  0.99999998245E-14  0.12500000000E+03  0.12500000000E+03 0.  0.
        -13    1    3    3    0    0  0.71271480160E+01  0.28034533785E+02 -0.33120616602E+02  0.43974057483E+02  0.10566000000E+00 0.  1.
         23    2    1    0    0    0 -0.22798472151E+02 -0.80874703067E+01 -0.22267474052E+02  0.92121163204E+02  0.86053999332E+02 0.  0.
         13    1    3    3    0    0 -0.29925620167E+02 -0.36122004092E+02  0.10853142550E+02  0.48147105721E+02  0.10566000000E+00 0. -1.
         22    1    1    0    0    0  0.22798472151E+02  0.80874703067E+01  0.22267474052E+02  0.32878836796E+02  0.00000000000E+00 0.  1.
</event>
<event>
 5    1  0.6978980E-004  0.9118800E+02  0.7818608E-02  0.1130116E+00
         25   -1    0    0    0    0  0.00000000000E+00  0.00000000000E+00  0.99999998245E-14  0.12500000000E+03  0.12500000000E+03 0.  0.
        -13    1    3    3    0    0  0.22119196519E+01 -0.28574016900E+01  0.32667484989E+02  0.32866899344E+02  0.10566000000E+00 0.  1.
         23    2    1    0    0    0  0.51249001292E+01  0.11465654095E+01 -0.29401505832E+02  0.95133166241E+02  0.90323261458E+02 0.  0.
         13    1    3    3    0    0  0.29129804773E+01  0.40039670995E+01 -0.62068990821E+02  0.62266266897E+02  0.10566000000E+00 0. -1.
         22    1    1    0    0    0 -0.51249001292E+01 -0.11465654095E+01  0.29401505832E+02  0.29866833759E+02  0.00000000000E+00 0. -1.
</event>
<event>
 5    1  0.6978980E-004  0.9118800E+02  0.7818608E-02  0.1130116E+00
         25   -1    0    0    0    0  0.00000000000E+00  0.00000000000E+00  0.99999998245E-14  0.12500000000E+03  0.12500000000E+03 0.  0.
        -13    1    3    3    0    0 -0.28317556977E+01 -0.24091138429E+02 -0.31365537645E+02  0.39651102216E+02  0.10566000000E+00 0.  1.
         23    2    1    0    0    0  0.25076876404E+02  0.15522711573E+02 -0.41828408605E+01  0.95212410933E+02  0.90432863126E+02 0.  0.
         13    1    3    3    0    0  0.27908632102E+02  0.39613850002E+02  0.27182696784E+02  0.55561308717E+02  0.10566000000E+00 0. -1.
         22    1    1    0    0    0 -0.25076876404E+02 -0.15522711573E+02  0.41828408605E+01  0.29787589067E+02  0.00000000000E+00 0. -1.
</event>
<event>
 4    1  0.6978980E-004  0.9118800E+02  0.7818608E-02  0.1130116E+00
         25   -1    0    0    0    0  0.00000000000E+00  0.00000000000E+00  0.99999998245E-14  0.12500000000E+03  0.12500000000E+03 0.  0.
        -13    1    1    0    0    0 -0.18811825126E+02  0.53746768938E+02  0.23315825543E+02  0.61532420891E+02  0.10566000000E+00 0.  1.
         13    1    1    0    0    0 -0.16990574707E+01 -0.93134280235E+01 -0.52567397436E+00  0.94823116907E+01  0.10566000000E+00 0. -1.
         22    1    1    0    0    0  0.20510882596E+02 -0.44433340915E+02 -0.22790151568E+02  0.53985267419E+02  0.00000000000E+00 0.  1.
</event>
<event>
 5    1  0.6978980E-004  0.9118800E+02  0.7818608E-02  0.1130116E+00
         25   -1    0    0    0    0  0.00000000000E+00  0.00000000000E+00  0.99999998245E-14  0.12500000000E+03  0.12500000000E+03 0.  0.
        -13    1    3    3    0    0 -0.11596964222E+02 -0.40428078471E+02  0.84171778292E+01  0.42892646860E+02  0.10566000000E+00 0. -1.
         23    2    1    0    0    0 -0.22792031157E+02  0.11706579730E+02  0.12728675008E+02  0.96389864371E+02  0.92045999874E+02 0.  0.
         13    1    3    3    0    0 -0.11195066935E+02  0.52134658201E+02  0.43114971792E+01  0.53497217511E+02  0.10566000000E+00 0.  1.
         22    1    1    0    0    0  0.22792031157E+02 -0.11706579730E+02 -0.12728675008E+02  0.28610135629E+02  0.00000000000E+00 0. -1.
</event>
<event>
 5    1  0.6978980E-004  0.9118800E+02  0.7818608E-02  0.1130116E+00
         25   -1    0    0    0    0  0.00000000000E+00  0.00000000000E+00  0.99999998245E-14  0.12500000000E+03  0.12500000000E+03 0.  0.
        -13    1    3    3    0    0  0.31876041561E+02 -0.36879874781E+02 -0.26926745658E+02  0.55689029308E+02  0.10566000000E+00 0.  1.
         23    2    1    0    0    0 -0.25874228784E+01 -0.28194521243E+02 -0.12622440450E+02  0.94000777620E+02  0.88742292087E+02 0.  0.
         13    1    3    3    0    0 -0.34463464439E+02  0.86853535386E+01  0.14304305208E+02  0.38311748312E+02  0.10566000000E+00 0. -1.
         22    1    1    0    0    0  0.25874228784E+01  0.28194521243E+02  0.12622440450E+02  0.30999222380E+02  0.00000000000E+00 0.  1.
</event>
<event>
 5    1  0.6978980E-004  0.9118800E+02  0.7818608E-02  0.1130116E+00
         25   -1    0    0    0    0  0.00000000000E+00  0.00000000000E+00  0.99999998245E-14  0.12500000000E+03  0.12500000000E+03 0.  0.
        -13    1    3    3    0    0  0.13403950489E+02 -0.25835572626E+02  0.22657330070E+02  0.36885071121E+02  0.10566000000E+00 0. -1.
         23    2    1    0    0    0  0.68768604050E+01  0.12123322778E+02 -0.23914407296E+02  0.97320313576E+02  0.93301009609E+02 0.  0.
         13    1    3    3    0    0 -0.65270900841E+01  0.37958895404E+02 -0.46571737366E+02  0.60435242455E+02  0.10566000000E+00 0.  1.
         22    1    1    0    0    0 -0.68768604050E+01 -0.12123322778E+02  0.23914407296E+02  0.27679686424E+02  0.00000000000E+00 0.  1.
</event>
<event>
 5    1  0.6978980E-004  0.9118800E+02  0.7818608E-02  0.1130116E+00
         25   -1    0    0    0    0  0.00000000000E+00  0.00000000000E+00  0.99999998245E-14  0.12500000000E+03  0.12500000000E+03 0.  0.
        -13    1    3    3    0    0 -0.29523372017E+02 -0.32741811775E+02  0.27701200509E+01  0.44173979475E+02  0.10566000000E+00 0.  1.
         23    2    1    0    0    0 -0.19486445335E+02  0.15190015438E+02  0.16807574505E+02  0.95117686141E+02  0.90301835725E+02 0.  0.
         13    1    3    3    0    0  0.10036926682E+02  0.47931827214E+02  0.14037454454E+02  0.50943706666E+02  0.10566000000E+00 0. -1.
         22    1    1    0    0    0  0.19486445335E+02 -0.15190015438E+02 -0.16807574505E+02  0.29882313859E+02  0.00000000000E+00 0. -1.
</event>
<event>
 5    1  0.6978980E-004  0.9118800E+02  0.7818608E-02  0.1130116E+00
         25   -1    0    0    0    0  0.00000000000E+00  0.00000000000E+00  0.99999998245E-14  0.12500000000E+03  0.12500000000E+03 0.  0.
        -13    1    3    3    0    0 -0.27779252099E+02  0.31400971575E+02 -0.26917132784E+02  0.49822194496E+02  0.10566000000E+00 0. -1.
         23    2    1    0    0    0 -0.10082854102E+01 -0.74892952571E+00 -0.32892535083E+02  0.92083493516E+02  0.85999263828E+02 0.  0.
         13    1    3    3    0    0  0.26770966689E+02 -0.32149901101E+02 -0.59754022993E+01  0.42261299021E+02  0.10566000000E+00 0.  1.
         22    1    1    0    0    0  0.10082854102E+01  0.74892952571E+00  0.32892535083E+02  0.32916506484E+02  0.00000000000E+00 0. -1.
</event>
<event>
 5    1  0.6978980E-004  0.9118800E+02  0.7818608E-02  0.1130116E+00
         25   -1    0    0    0    0  0.00000000000E+00  0.00000000000E+00  0.99999998245E-14  0.12500000000E+03  0.12500000000E+03 0.  0.
        -13    1    3    3    0    0  0.49047495195E+02  0.18163119377E+01 -0.94282106632E+01  0.49978576354E+02  0.10566000000E+00 0. -1.
         23    2    1    0    0    0  0.89512212318E+01 -0.24229546491E+02 -0.85217805073E+01  0.97800440671E+02  0.93942057502E+02 0.  0.
         13    1    3    3    0    0 -0.40096273964E+02 -0.26045858429E+02  0.90643015593E+00  0.47821864317E+02  0.10566000000E+00 0.  1.
         22    1    1    0    0    0 -0.89512212318E+01  0.24229546491E+02  0.85217805073E+01  0.27199559329E+02  0.00000000000E+00 0.  1.
</event>
<event>
 5    1  0.6978980E-004  0.9118800E+02  0.7818608E-02  0.1130116E+00
         25   -1    0    0    0    0  0.00000000000E+00  0.00000000000E+00  0.99999998245E-14  0.12500000000E+03  0.12500000000E+03 0.  0.
        -13    1    3    3    0    0  0.97065985077E+00 -0.27962253181E+02  0.25094768667E+02  0.37584416478E+02  0.10566000000E+00 0. -1.
         23    2    1    0    0    0  0.20925941119E+02  0.42126394383E+01 -0.19503288613E+02  0.96085996309E+02  0.91632412809E+02 0.  0.
         13    1    3    3    0    0  0.19955281268E+02  0.32174892619E+02 -0.44598057280E+02  0.58501579831E+02  0.10566000000E+00 0.  1.
         22    1    1    0    0    0 -0.20925941119E+02 -0.42126394383E+01  0.19503288613E+02  0.28914003691E+02  0.00000000000E+00 0.  1.
</event>
<event>
 5    1  0.6978980E-004  0.9118800E+02  0.7818608E-02  0.1130116E+00
         25   -1    0    0    0    0  0.00000000000E+00  0.00000000000E+00  0.99999998245E-14  0.12500000000E+03  0.12500000000E+03 0.  0.
        -13    1    3    3    0    0 -0.31189901228E+02 -0.43481033782E+02  0.60675588894E+00  0.53514386422E+02  0.10566000000E+00 0. -1.
         23    2    1    0    0    0 -0.29268539497E+02 -0.13413017237E+01  0.17985394814E+00  0.95700190410E+02  0.91104597043E+02 0.  0.
         13    1    3    3    0    0  0.19213617311E+01  0.42139732058E+02 -0.42690194080E+00  0.42185803988E+02  0.10566000000E+00 0.  1.
         22    1    1    0    0    0  0.29268539497E+02  0.13413017237E+01 -0.17985394814E+00  0.29299809590E+02  0.00000000000E+00 0. -1.
</event>
<event>
 5    1  0.6978980E-004  0.9118800E+02  0.7818608E-02  0.1130116E+00
         25   -1    0    0    0    0  0.00000000000E+00  0.00000000000E+00  0.99999998245E-14  0.12500000000E+03  0.12500000000E+03 0.  0.
        -13    1    3    3    0    0 -0.35796577733E+02  0.36575716266E+02 -0.16516864001E+02  0.53777281060E+02  0.10566000000E+00 0.  1.
         23    2    1    0    0    0 -0.44160148719E+01  0.35416378007E+02  0.10909736990E+00  0.89309203978E+02  0.81867582072E+02 0.  0.
         13    1    3    3    0    0  0.31380562861E+02 -0.11593382588E+01  0.16625961371E+02  0.35531922918E+02  0.10566000000E+00 0. -1.
         22    1    1    0    0    0  0.44160148719E+01 -0.35416378007E+02 -0.10909736990E+00  0.35690796022E+02  0.00000000000E+00 0.  1.
</event>
<event>
 5    1  0.6978980E-004  0.9118800E+02  0.7818608E-02  0.1130116E+00
         25   -1    0    0    0    0  0.00000000000E+00  0.00000000000E+00  0.99999998245E-14  0.12500000000E+03  0.12500000000E+03 0.  0.
        -13    1    3    3    0    0  0.57034125968E+02 -0.16861542137E+02  0.18966129043E+02  0.62425382202E+02  0.10566000000E+00 0. -1.
         23    2    1    0    0    0  0.25554755838E+02 -0.84560050226E+01  0.10649193900E+02  0.96052549376E+02  0.91586774941E+02 0.  0.
         13    1    3    3    0    0 -0.31479370130E+02  0.84055371145E+01 -0.83169351427E+01  0.33627167174E+02  0.10566000000E+00 0.  1.
         22    1    1    0    0    0 -0.25554755838E+02  0.84560050226E+01 -0.10649193900E+02  0.28947450624E+02  0.00000000000E+00 0. -1.
</event>
<event>
 5    1  0.6978980E-004  0.9118800E+02  0.7818608E-02  0.1130116E+00
         25   -1    0    0    0    0  0.00000000000E+00  0.00000000000E+00  0.99999998245E-14  0.12500000000E+03  0.12500000000E+03 0.  0.
        -13    1    3    3    0    0 -0.18579861018E+02  0.33756516502E+02  0.22411949607E+02  0.44576005777E+02  0.10566000000E+00 0. -1.
         23    2    1    0    0    0  0.18827349985E+02  0.23071876455E+01  0.25121147969E+02  0.93522002961E+02  0.88065320872E+02 0.  0.
         13    1    3    3    0    0  0.37407211003E+02 -0.31449328856E+02  0.27091983616E+01  0.48945997184E+02  0.10566000000E+00 0.  1.
         22    1    1    0    0    0 -0.18827349985E+02 -0.23071876455E+01 -0.25121147969E+02  0.31477997039E+02  0.00000000000E+00 0. -1.
</event>
<event>
 5    1  0.6978980E-004  0.9118800E+02  0.7818608E-02  0.1130116E+00
         25   -1    0    0    0    0  0.00000000000E+00  0.00000000000E+00  0.99999998245E-14  0.12500000000E+03  0.12500000000E+03 0.  0.
        -13    1    3    3    0    0 -0.26768504122E+01 -0.54908143751E+02 -0.29606540777E+02  0.62438995821E+02  0.10566000000E+00 0. -1.
         23    2    1    0    0    0 -0.25766087075E+01 -0.20365354619E+02 -0.12210984704E+02  0.10111496852E+03  0.98253458620E+02 0.  0.
         13    1    3    3    0    0  0.10024170472E+00  0.34542789132E+02  0.17395556073E+02  0.38675972703E+02  0.10566000000E+00 0.  1.
         22    1    1    0    0    0  0.25766087075E+01  0.20365354619E+02  0.12210984704E+02  0.23885031476E+02  0.00000000000E+00 0. -1.
</event>
<event>
 5    1  0.6978980E-004  0.9118800E+02  0.7818608E-02  0.1130116E+00
         25   -1    0    0    0    0  0.00000000000E+00  0.00000000000E+00  0.99999998245E-14  0.12500000000E+03  0.12500000000E+03 0.  0.
        -13    1    3    3    0    0 -0.19568578159E+02  0.56245085317E+02  0.74245793300E+01  0.60013118697E+02  0.10566000000E+00 0. -1.
         23    2    1    0    0    0 -0.15684178669E+02  0.24795146870E+02 -0.70100326330E+01  0.94834898867E+02  0.89909536295E+02 0.  0.
         13    1    3    3    0    0  0.38843994900E+01 -0.31449938447E+02 -0.14434611963E+02  0.34821780171E+02  0.10566000000E+00 0.  1.
         22    1    1    0    0    0  0.15684178669E+02 -0.24795146870E+02  0.70100326330E+01  0.30165101133E+02  0.00000000000E+00 0. -1.
</event>
<event>
 5    1  0.6978980E-004  0.9118800E+02  0.7818608E-02  0.1130116E+00
         25   -1    0    0    0    0  0.00000000000E+00  0.00000000000E+00  0.99999998245E-14  0.12500000000E+03  0.12500000000E+03 0.  0.
        -13    1    3    3    0    0  0.31512618869E+02  0.41856450609E+02 -0.91079388866E+01  0.53178692353E+02  0.10566000000E+00 0. -1.
         23    2    1    0    0    0 -0.81557647570E+01  0.25042716757E+02 -0.11348731735E+02  0.96321648002E+02  0.91953314244E+02 0.  0.
         13    1    3    3    0    0 -0.39668383626E+02 -0.16813733852E+02 -0.22407928484E+01  0.43142955649E+02  0.10566000000E+00 0.  1.
         22    1    1    0    0    0  0.81557647570E+01 -0.25042716757E+02  0.11348731735E+02  0.28678351998E+02  0.00000000000E+00 0. -1.
</event>
<event>
 5    1  0.6978980E-004  0.9118800E+02  0.7818608E-02  0.1130116E+00
         25   -1    0    0    0    0  0.00000000000E+00  0.00000000000E+00  0.99999998245E-14  0.12500000000E+03  0.12500000000E+03 0.  0.
        -13    1    3    3    0    0  0.11371071926E+01  0.21674346950E+02 -0.44647570844E+02  0.49643600542E+02  0.10566000000E+00 0.  1.
         23    2    1    0    0    0 -0.13629652951E+02 -0.14755619567E+02 -0.22790330031E+02  0.94620814835E+02  0.89611403899E+02 0.  0.
         13    1    3    3    0    0 -0.14766760144E+02 -0.36429966517E+02  0.21857240813E+02  0.44977214293E+02  0.10566000000E+00 0. -1.
         22    1    1    0    0    0  0.13629652951E+02  0.14755619567E+02  0.22790330031E+02  0.30379185165E+02  0.00000000000E+00 0. -1.
</event>
<event>
 5    1  0.6978980E-004  0.9118800E+02  0.7818608E-02  0.1130116E+00
         25   -1    0    0    0    0  0.00000000000E+00  0.00000000000E+00  0.99999998245E-14  0.12500000000E+03  0.12500000000E+03 0.  0.
        -13    1    3    3    0    0 -0.36808508392E+02  0.67569946177E+01  0.41639699313E+02  0.55985703436E+02  0.10566000000E+00 0.  1.
         23    2    1    0    0    0 -0.26104252766E+02 -0.11243123523E+02  0.82419370404E+01  0.95406599296E+02  0.90700881055E+02 0.  0.
         13    1    3    3    0    0  0.10704255626E+02 -0.18000118141E+02 -0.33397762272E+02  0.39420895861E+02  0.10566000000E+00 0. -1.
         22    1    1    0    0    0  0.26104252766E+02  0.11243123523E+02 -0.82419370404E+01  0.29593400704E+02  0.00000000000E+00 0.  1.
</event>
<event>
 5    1  0.6978980E-004  0.9118800E+02  0.7818608E-02  0.1130116E+00
         25   -1    0    0    0    0  0.00000000000E+00  0.00000000000E+00  0.99999998245E-14  0.12500000000E+03  0.12500000000E+03 0.  0.
        -13    1    3    3    0    0 -0.10572931816E+01  0.33271783716E+02 -0.25459573905E+01  0.33385962972E+02  0.10566000000E+00 0.  1.
         23    2    1    0    0    0 -0.54845259910E+01 -0.28246776784E+02 -0.75059357066E+01  0.95262826380E+02  0.90502522590E+02 0.  0.
         13    1    3    3    0    0 -0.44272328093E+01 -0.61518560500E+02 -0.49599783161E+01  0.61876863408E+02  0.10566000000E+00 0. -1.
         22    1    1    0    0    0  0.54845259910E+01  0.28246776784E+02  0.75059357066E+01  0.29737173620E+02  0.00000000000E+00 0. -1.
</event>
<event>
 5    1  0.6978980E-004  0.9118800E+02  0.7818608E-02  0.1130116E+00
         25   -1    0    0    0    0  0.00000000000E+00  0.00000000000E+00  0.99999998245E-14  0.12500000000E+03  0.12500000000E+03 0.  0.
        -13    1    3    3    0    0  0.32218218009E+02  0.18882750516E+02 -0.49737300907E+02  0.62196319057E+02  0.10566000000E+00 0. -1.
         23    2    1    0    0    0  0.99486373128E+01  0.91806853742E+01 -0.22927698318E+02  0.98374078073E+02  0.94702267756E+02 0.  0.
         13    1    3    3    0    0 -0.22269580696E+02 -0.97020651413E+01  0.26809602589E+02  0.36177759016E+02  0.10566000000E+00 0.  1.
         22    1    1    0    0    0 -0.99486373128E+01 -0.91806853742E+01  0.22927698318E+02  0.26625921927E+02  0.00000000000E+00 0. -1.
</event>
<event>
 5    1  0.6978980E-004  0.9118800E+02  0.7818608E-02  0.1130116E+00
         25   -1    0    0    0    0  0.00000000000E+00  0.00000000000E+00  0.99999998245E-14  0.12500000000E+03  0.12500000000E+03 0.  0.
        -13    1    3    3    0    0  0.20040544981E+02  0.36424292652E+02 -0.43597340764E+02  0.60241944059E+02  0.10566000000E+00 0.  1.
         23    2    1    0    0    0  0.82579662740E+01  0.25323916337E+02 -0.11915542577E+02  0.95819957153E+02  0.91268774991E+02 0.  0.
         13    1    3    3    0    0 -0.11782578707E+02 -0.11100376315E+02  0.31681798187E+02  0.35578013094E+02  0.10566000000E+00 0. -1.
         22    1    1    0    0    0 -0.82579662740E+01 -0.25323916337E+02  0.11915542577E+02  0.29180042847E+02  0.00000000000E+00 0.  1.
</event>
<event>
 5    1  0.6978980E-004  0.9118800E+02  0.7818608E-02  0.1130116E+00
         25   -1    0    0    0    0  0.00000000000E+00  0.00000000000E+00  0.99999998245E-14  0.12500000000E+03  0.12500000000E+03 0.  0.
        -13    1    3    3    0    0 -0.12276830694E+02 -0.31483974408E+02  0.81408795604E+01  0.34759837463E+02  0.10566000000E+00 0. -1.
         23    2    1    0    0    0  0.15794763869E+02  0.18916894370E+02 -0.14120807688E+02  0.96597171478E+02  0.92327097158E+02 0.  0.
         13    1    3    3    0    0  0.28071594562E+02  0.50400868778E+02 -0.22261687249E+02  0.61837334015E+02  0.10566000000E+00 0.  1.
         22    1    1    0    0    0 -0.15794763869E+02 -0.18916894370E+02  0.14120807688E+02  0.28402828522E+02  0.00000000000E+00 0.  1.
</event>
<event>
 5    1  0.6978980E-004  0.9118800E+02  0.7818608E-02  0.1130116E+00
         25   -1    0    0    0    0  0.00000000000E+00  0.00000000000E+00  0.99999998245E-14  0.12500000000E+03  0.12500000000E+03 0.  0.
        -13    1    3    3    0    0 -0.58136886114E+01 -0.54378592502E+02  0.39020949741E+01  0.54827619017E+02  0.10566000000E+00 0. -1.
         23    2    1    0    0    0 -0.60396120197E+00 -0.34578523757E+01  0.16981985016E+02  0.10765902750E+03  0.10625326760E+03 0.  0.
         13    1    3    3    0    0  0.52097274094E+01  0.50920740127E+02  0.13079890042E+02  0.52831408483E+02  0.10566000000E+00 0.  1.
         22    1    1    0    0    0  0.60396120197E+00  0.34578523757E+01 -0.16981985016E+02  0.17340972501E+02  0.00000000000E+00 0. -1.
</event>
<event>
 5    1  0.6978980E-004  0.9118800E+02  0.7818608E-02  0.1130116E+00
         25   -1    0    0    0    0  0.00000000000E+00  0.00000000000E+00  0.99999998245E-14  0.12500000000E+03  0.12500000000E+03 0.  0.
        -13    1    3    3    0    0 -0.29747541318E+02  0.16478207639E+01 -0.53366690101E+02  0.61119933770E+02  0.10566000000E+00 0.  1.
         23    2    1    0    0    0 -0.13360403634E+02  0.99357308074E+01 -0.23035361631E+02  0.96577350274E+02  0.92300257684E+02 0.  0.
         13    1    3    3    0    0  0.16387137684E+02  0.82879100435E+01  0.30331328470E+02  0.35457416504E+02  0.10566000000E+00 0. -1.
         22    1    1    0    0    0  0.13360403634E+02 -0.99357308074E+01  0.23035361631E+02  0.28422649726E+02  0.00000000000E+00 0.  1.
</event>
<event>
 5    1  0.6978980E-004  0.9118800E+02  0.7818608E-02  0.1130116E+00
         25   -1    0    0    0    0  0.00000000000E+00  0.00000000000E+00  0.99999998245E-14  0.12500000000E+03  0.12500000000E+03 0.  0.
        -13    1    3    3    0    0 -0.33502748129E+02  0.75673852726E+01  0.17624455381E+02  0.38604818917E+02  0.10566000000E+00 0.  1.
         23    2    1    0    0    0  0.15133688118E+02  0.25919601828E+02 -0.36322597102E+01  0.94766780099E+02  0.89814781772E+02 0.  0.
         13    1    3    3    0    0  0.48636436247E+02  0.18352216556E+02 -0.21256715091E+02  0.56161961182E+02  0.10566000000E+00 0. -1.
         22    1    1    0    0    0 -0.15133688118E+02 -0.25919601828E+02  0.36322597102E+01  0.30233219901E+02  0.00000000000E+00 0. -1.
</event>
<event>
 5    1  0.6978980E-004  0.9118800E+02  0.7818608E-02  0.1130116E+00
         25   -1    0    0    0    0  0.00000000000E+00  0.00000000000E+00  0.99999998245E-14  0.12500000000E+03  0.12500000000E+03 0.  0.
        -13    1    3    3    0    0 -0.22380370821E+02 -0.10714663526E+02  0.25686280930E+02  0.35713879719E+02  0.10566000000E+00 0.  1.
         23    2    1    0    0    0  0.10234963312E+01  0.23149077386E+02 -0.17940012764E+02  0.95695198575E+02  0.91097747743E+02 0.  0.
         13    1    3    3    0    0  0.23403867152E+02  0.33863740912E+02 -0.43626293694E+02  0.59981318856E+02  0.10566000000E+00 0. -1.
         22    1    1    0    0    0 -0.10234963312E+01 -0.23149077386E+02  0.17940012764E+02  0.29304801425E+02  0.00000000000E+00 0. -1.
</event>
<event>
 5    1  0.6978980E-004  0.9118800E+02  0.7818608E-02  0.1130116E+00
         25   -1    0    0    0    0  0.00000000000E+00  0.00000000000E+00  0.99999998245E-14  0.12500000000E+03  0.12500000000E+03 0.  0.
        -13    1    3    3    0    0  0.60264704605E+02 -0.59448608537E+01  0.70085004678E+01  0.60961514372E+02  0.10566000000E+00 0. -1.
         23    2    1    0    0    0  0.28430782389E+02 -0.79959055366E+01 -0.49980081116E+01  0.95046302771E+02  0.90202969423E+02 0.  0.
         13    1    3    3    0    0 -0.31833922216E+02 -0.20510446829E+01 -0.12006508579E+02  0.34084788400E+02  0.10566000000E+00 0.  1.
         22    1    1    0    0    0 -0.28430782389E+02  0.79959055366E+01  0.49980081116E+01  0.29953697229E+02  0.00000000000E+00 0. -1.
</event>
<event>
 5    1  0.6978980E-004  0.9118800E+02  0.7818608E-02  0.1130116E+00
         25   -1    0    0    0    0  0.00000000000E+00  0.00000000000E+00  0.99999998245E-14  0.12500000000E+03  0.12500000000E+03 0.  0.
        -13    1    3    3    0    0  0.15482511768E+02  0.26513580256E+02  0.30406128592E+02  0.43211363420E+02  0.10566000000E+00 0.  1.
         23    2    1    0    0    0  0.26743786916E+02 -0.38703860971E+01 -0.11029874604E+02  0.95813219415E+02  0.91259546645E+02 0.  0.
         13    1    3    3    0    0  0.11261275148E+02 -0.30383966353E+02 -0.41436003196E+02  0.52601855995E+02  0.10566000000E+00 0. -1.
         22    1    1    0    0    0 -0.26743786916E+02  0.38703860971E+01  0.11029874604E+02  0.29186780585E+02  0.00000000000E+00 0. -1.
</event>
<event>
 5    1  0.6978980E-004  0.9118800E+02  0.7818608E-02  0.1130116E+00
         25   -1    0    0    0    0  0.00000000000E+00  0.00000000000E+00  0.99999998245E-14  0.12500000000E+03  0.12500000000E+03 0.  0.
        -13    1    3    3    0    0  0.50353996299E+02  0.15692084561E+01 -0.15205189252E+02  0.52623153675E+02  0.10566000000E+00 0. -1.
         23    2    1    0    0    0  0.32201224847E+02  0.21492672969E+02  0.45183326480E+01  0.86022196022E+02  0.76684737762E+02 0.  0.
         13    1    3    3    0    0 -0.18152771452E+02  0.19923464513E+02  0.19723521900E+02  0.33399042348E+02  0.10566000000E+00 0.  1.
         22    1    1    0    0    0 -0.32201224847E+02 -0.21492672969E+02 -0.45183326480E+01  0.38977803978E+02  0.00000000000E+00 0. -1.
</event>
<event>
 5    1  0.6978980E-004  0.9118800E+02  0.7818608E-02  0.1130116E+00
         25   -1    0    0    0    0  0.00000000000E+00  0.00000000000E+00  0.99999998245E-14  0.12500000000E+03  0.12500000000E+03 0.  0.
        -13    1    3    3    0    0  0.20473199664E+02  0.31897560628E+02  0.40604922154E+02  0.55546171296E+02  0.10566000000E+00 0.  1.
         23    2    1    0    0    0 -0.75156749454E+01  0.90357254466E+01  0.29329036624E+02  0.93403764567E+02  0.87897332962E+02 0.  0.
         13    1    3    3    0    0 -0.27988874610E+02 -0.22861835181E+02 -0.11275885529E+02  0.37857593271E+02  0.10566000000E+00 0. -1.
         22    1    1    0    0    0  0.75156749454E+01 -0.90357254466E+01 -0.29329036624E+02  0.31596235433E+02  0.00000000000E+00 0. -1.
</event>
<event>
 5    1  0.6978980E-004  0.9118800E+02  0.7818608E-02  0.1130116E+00
         25   -1    0    0    0    0  0.00000000000E+00  0.00000000000E+00  0.99999998245E-14  0.12500000000E+03  0.12500000000E+03 0.  0.
        -13    1    3    3    0    0 -0.26612111978E+01  0.30889791613E+02  0.12625973846E+02  0.33476673230E+02  0.10566000000E+00 0.  1.
         23    2    1    0    0    0  0.89467297148E+01 -0.18713416870E+02 -0.21759023191E+02  0.94938545714E+02  0.90053519801E+02 0.  0.
         13    1    3    3    0    0  0.11607940913E+02 -0.49603208483E+02 -0.34384997037E+02  0.61461872485E+02  0.10566000000E+00 0. -1.
         22    1    1    0    0    0 -0.89467297148E+01  0.18713416870E+02  0.21759023191E+02  0.30061454286E+02  0.00000000000E+00 0. -1.
</event>
<event>
 5    1  0.6978980E-004  0.9118800E+02  0.7818608E-02  0.1130116E+00
         25   -1    0    0    0    0  0.00000000000E+00  0.00000000000E+00  0.99999998245E-14  0.12500000000E+03  0.12500000000E+03 0.  0.
        -13    1    3    3    0    0 -0.51716520043E+02 -0.13017391233E+02 -0.32254327397E+02  0.62324984716E+02  0.10566000000E+00 0. -1.
         23    2    1    0    0    0 -0.19521107191E+02 -0.77824290219E+01 -0.14561485045E+02  0.99432898597E+02  0.96089669836E+02 0.  0.
         13    1    3    3    0    0  0.32195412853E+02  0.52349622111E+01  0.17692842352E+02  0.37107913881E+02  0.10566000000E+00 0.  1.
         22    1    1    0    0    0  0.19521107191E+02  0.77824290219E+01  0.14561485045E+02  0.25567101403E+02  0.00000000000E+00 0. -1.
</event>
<event>
 5    1  0.6978980E-004  0.9118800E+02  0.7818608E-02  0.1130116E+00
         25   -1    0    0    0    0  0.00000000000E+00  0.00000000000E+00  0.99999998245E-14  0.12500000000E+03  0.12500000000E+03 0.  0.
        -13    1    3    3    0    0  0.25535850647E+01 -0.46851185523E+02 -0.15156905214E+02  0.49308187162E+02  0.10566000000E+00 0.  1.
         23    2    1    0    0    0 -0.23221557031E+02 -0.90770995287E+01 -0.16575478075E+02  0.95060378757E+02  0.90222473305E+02 0.  0.
         13    1    3    3    0    0 -0.25775142095E+02  0.37774085994E+02 -0.14185728613E+01  0.45752191595E+02  0.10566000000E+00 0. -1.
         22    1    1    0    0    0  0.23221557031E+02  0.90770995287E+01  0.16575478075E+02  0.29939621243E+02  0.00000000000E+00 0.  1.
</event>
<event>
 5    1  0.6978980E-004  0.9118800E+02  0.7818608E-02  0.1130116E+00
         25   -1    0    0    0    0  0.00000000000E+00  0.00000000000E+00  0.99999998245E-14  0.12500000000E+03  0.12500000000E+03 0.  0.
        -13    1    3    3    0    0 -0.66509632243E+01 -0.16489735276E+02  0.34457534931E+02  0.38774728353E+02  0.10566000000E+00 0. -1.
         23    2    1    0    0    0 -0.91421670907E+01  0.24519112363E+02 -0.77819120240E+01  0.97699372811E+02  0.93807479460E+02 0.  0.
         13    1    3    3    0    0 -0.24912038664E+01  0.41008847639E+02 -0.42239446955E+02  0.58924644458E+02  0.10566000000E+00 0.  1.
         22    1    1    0    0    0  0.91421670907E+01 -0.24519112363E+02  0.77819120240E+01  0.27300627189E+02  0.00000000000E+00 0.  1.
</event>
<event>
 5    1  0.6978980E-004  0.9118800E+02  0.7818608E-02  0.1130116E+00
         25   -1    0    0    0    0  0.00000000000E+00  0.00000000000E+00  0.99999998245E-14  0.12500000000E+03  0.12500000000E+03 0.  0.
        -13    1    3    3    0    0 -0.33694503987E+02 -0.99640004449E+01  0.17010303799E+02  0.39037962333E+02  0.10566000000E+00 0. -1.
         23    2    1    0    0    0 -0.38958019734E+01  0.19785554671E+02 -0.21087677671E+02  0.95822344230E+02  0.91272044228E+02 0.  0.
         13    1    3    3    0    0  0.29798702013E+02  0.29749555115E+02 -0.38097981471E+02  0.56784381897E+02  0.10566000000E+00 0.  1.
         22    1    1    0    0    0  0.38958019734E+01 -0.19785554671E+02  0.21087677671E+02  0.29177655770E+02  0.00000000000E+00 0.  1.
</event>
<event>
 5    1  0.6978980E-004  0.9118800E+02  0.7818608E-02  0.1130116E+00
         25   -1    0    0    0    0  0.00000000000E+00  0.00000000000E+00  0.99999998245E-14  0.12500000000E+03  0.12500000000E+03 0.  0.
        -13    1    3    3    0    0  0.26781114407E+02  0.36235575747E+02 -0.24473323499E+02  0.51275722966E+02  0.10566000000E+00 0.  1.
         23    2    1    0    0    0  0.14959291119E+02  0.26751944555E+02  0.13006610443E+02  0.91704071668E+02  0.85445994154E+02 0.  0.
         13    1    3    3    0    0 -0.11821823288E+02 -0.94836311921E+01  0.37479933942E+02  0.40428348702E+02  0.10566000000E+00 0. -1.
         22    1    1    0    0    0 -0.14959291119E+02 -0.26751944555E+02 -0.13006610443E+02  0.33295928332E+02  0.00000000000E+00 0.  1.
</event>
<event>
 5    1  0.6978980E-004  0.9118800E+02  0.7818608E-02  0.1130116E+00
         25   -1    0    0    0    0  0.00000000000E+00  0.00000000000E+00  0.99999998245E-14  0.12500000000E+03  0.12500000000E+03 0.  0.
        -13    1    3    3    0    0 -0.12372154358E+02  0.45616241260E+02 -0.39037907920E+02  0.61301558618E+02  0.10566000000E+00 0. -1.
         23    2    1    0    0    0 -0.15026193567E+01  0.28309326459E+02 -0.14753071322E+02  0.93041762519E+02  0.87381008404E+02 0.  0.
         13    1    3    3    0    0  0.10869535001E+02 -0.17306914801E+02  0.24284836598E+02  0.31740203901E+02  0.10566000000E+00 0.  1.
         22    1    1    0    0    0  0.15026193567E+01 -0.28309326459E+02  0.14753071322E+02  0.31958237481E+02  0.00000000000E+00 0. -1.
</event>
<event>
 5    1  0.6978980E-004  0.9118800E+02  0.7818608E-02  0.1130116E+00
         25   -1    0    0    0    0  0.00000000000E+00  0.00000000000E+00  0.99999998245E-14  0.12500000000E+03  0.12500000000E+03 0.  0.
        -13    1    3    3    0    0 -0.57259395423E+02  0.22630822039E+02  0.38837870611E+01  0.61691874962E+02  0.10566000000E+00 0. -1.
         23    2    1    0    0    0 -0.24541797281E+02  0.44090204598E+01 -0.33727724115E+01  0.99838226038E+02  0.96615508638E+02 0.  0.
         13    1    3    3    0    0  0.32717598142E+02 -0.18221801580E+02 -0.72565594726E+01  0.38146351076E+02  0.10566000000E+00 0.  1.
         22    1    1    0    0    0  0.24541797281E+02 -0.44090204598E+01  0.33727724115E+01  0.25161773962E+02  0.00000000000E+00 0. -1.
</event>
<event>
 5    1  0.6978980E-004  0.9118800E+02  0.7818608E-02  0.1130116E+00
         25   -1    0    0    0    0  0.00000000000E+00  0.00000000000E+00  0.99999998245E-14  0.12500000000E+03  0.12500000000E+03 0.  0.
        -13    1    3    3    0    0  0.32054915653E+02  0.23014155491E+02  0.44307100589E+02  0.59332110169E+02  0.10566000000E+00 0.  1.
         23    2    1    0    0    0  0.23589327625E+02  0.15418969737E+02  0.10626199578E+02  0.94881614867E+02  0.89974461470E+02 0.  0.
         13    1    3    3    0    0 -0.84655880283E+01 -0.75951857546E+01 -0.33680901011E+02  0.35549504697E+02  0.10566000000E+00 0. -1.
         22    1    1    0    0    0 -0.23589327625E+02 -0.15418969737E+02 -0.10626199578E+02  0.30118385133E+02  0.00000000000E+00 0.  1.
</event>
<event>
 5    1  0.6978980E-004  0.9118800E+02  0.7818608E-02  0.1130116E+00
         25   -1    0    0    0    0  0.00000000000E+00  0.00000000000E+00  0.99999998245E-14  0.12500000000E+03  0.12500000000E+03 0.  0.
        -13    1    3    3    0    0 -0.34458812600E+02  0.13160632647E+02 -0.37253691122E+02  0.52425763549E+02  0.10566000000E+00 0. -1.
         23    2    1    0    0    0 -0.49413926245E+01 -0.15851555781E+02 -0.23867733655E+02  0.95924961022E+02  0.91412473194E+02 0.  0.
         13    1    3    3    0    0  0.29517419975E+02 -0.29012188429E+02  0.13385957467E+02  0.43499197473E+02  0.10566000000E+00 0.  1.
         22    1    1    0    0    0  0.49413926245E+01  0.15851555781E+02  0.23867733655E+02  0.29075038978E+02  0.00000000000E+00 0. -1.
</event>
<event>
 5    1  0.6978980E-004  0.9118800E+02  0.7818608E-02  0.1130116E+00
         25   -1    0    0    0    0  0.00000000000E+00  0.00000000000E+00  0.99999998245E-14  0.12500000000E+03  0.12500000000E+03 0.  0.
        -13    1    3    3    0    0  0.12756884593E+01 -0.49063635210E+02  0.15188924478E+02  0.51376865143E+02  0.10566000000E+00 0.  1.
         23    2    1    0    0    0 -0.13520486140E+02 -0.64796731416E+01  0.23408701204E+02  0.97201492818E+02  0.93141683497E+02 0.  0.
         13    1    3    3    0    0 -0.14796174599E+02  0.42583962068E+02  0.82197767257E+01  0.45824627676E+02  0.10566000000E+00 0. -1.
         22    1    1    0    0    0  0.13520486140E+02  0.64796731416E+01 -0.23408701204E+02  0.27798507182E+02  0.00000000000E+00 0. -1.
</event>
<event>
 5    1  0.6978980E-004  0.9118800E+02  0.7818608E-02  0.1130116E+00
         25   -1    0    0    0    0  0.00000000000E+00  0.00000000000E+00  0.99999998245E-14  0.12500000000E+03  0.12500000000E+03 0.  0.
        -13    1    3    3    0    0 -0.16717396128E+01 -0.17349399553E+02  0.39620476452E+02  0.43284982343E+02  0.10566000000E+00 0. -1.
         23    2    1    0    0    0 -0.35046995874E+02 -0.10174528250E+02  0.26680699321E+02  0.79793002078E+02  0.65751429790E+02 0.  0.
         13    1    3    3    0    0 -0.33375256261E+02  0.71748713023E+01 -0.12939777131E+02  0.36508019734E+02  0.10566000000E+00 0.  1.
         22    1    1    0    0    0  0.35046995874E+02  0.10174528250E+02 -0.26680699321E+02  0.45206997922E+02  0.00000000000E+00 0. -1.
</event>
<event>
 5    1  0.6978980E-004  0.9118800E+02  0.7818608E-02  0.1130116E+00
         25   -1    0    0    0    0  0.00000000000E+00  0.00000000000E+00  0.99999998245E-14  0.12500000000E+03  0.12500000000E+03 0.  0.
        -13    1    3    3    0    0  0.94968761543E+00  0.31837074558E+01 -0.35235046468E+02  0.35391489985E+02  0.10566000000E+00 0. -1.
         23    2    1    0    0    0  0.55305991348E+01  0.15324203718E+02  0.23978686936E+02  0.96010412670E+02  0.91529247608E+02 0.  0.
         13    1    3    3    0    0  0.45809115194E+01  0.12140496262E+02  0.59213733404E+02  0.60618922685E+02  0.10566000000E+00 0.  1.
         22    1    1    0    0    0 -0.55305991348E+01 -0.15324203718E+02 -0.23978686936E+02  0.28989587330E+02  0.00000000000E+00 0.  1.
</event>
<event>
 5    1  0.6978980E-004  0.9118800E+02  0.7818608E-02  0.1130116E+00
         25   -1    0    0    0    0  0.00000000000E+00  0.00000000000E+00  0.99999998245E-14  0.12500000000E+03  0.12500000000E+03 0.  0.
        -13    1    3    3    0    0  0.44007268026E+02 -0.33173453876E+02 -0.55513766642E+01  0.55389047907E+02  0.10566000000E+00 0. -1.
         23    2    1    0    0    0  0.18696956355E+02 -0.16225564913E+02  0.18413674707E+02  0.94146984752E+02  0.88947997099E+02 0.  0.
         13    1    3    3    0    0 -0.25310311671E+02  0.16947888963E+02  0.23965051371E+02  0.38757936845E+02  0.10566000000E+00 0.  1.
         22    1    1    0    0    0 -0.18696956355E+02  0.16225564913E+02 -0.18413674707E+02  0.30853015248E+02  0.00000000000E+00 0. -1.
</event>
<event>
 5    1  0.6978980E-004  0.9118800E+02  0.7818608E-02  0.1130116E+00
         25   -1    0    0    0    0  0.00000000000E+00  0.00000000000E+00  0.99999998245E-14  0.12500000000E+03  0.12500000000E+03 0.  0.
        -13    1    3    3    0    0  0.16184868574E+02  0.96502391311E+01 -0.39200788128E+02  0.43494712782E+02  0.10566000000E+00 0. -1.
         23    2    1    0    0    0  0.11169528370E+02  0.22930854568E+02  0.12132582213E+02  0.96754964925E+02  0.92540484283E+02 0.  0.
         13    1    3    3    0    0 -0.50153402040E+01  0.13280615437E+02  0.51333370341E+02  0.53260252143E+02  0.10566000000E+00 0.  1.
         22    1    1    0    0    0 -0.11169528370E+02 -0.22930854568E+02 -0.12132582213E+02  0.28245035075E+02  0.00000000000E+00 0.  1.
</event>
<event>
 5    1  0.6978980E-004  0.9118800E+02  0.7818608E-02  0.1130116E+00
         25   -1    0    0    0    0  0.00000000000E+00  0.00000000000E+00  0.99999998245E-14  0.12500000000E+03  0.12500000000E+03 0.  0.
        -13    1    3    3    0    0  0.75317669570E+01 -0.27193019256E+02  0.29802317407E+02  0.41041163442E+02  0.10566000000E+00 0.  1.
         23    2    1    0    0    0 -0.13694362885E+02 -0.44509495844E+01 -0.20357484325E+02  0.10006460959E+03  0.96907958376E+02 0.  0.
         13    1    3    3    0    0 -0.21226129842E+02  0.22742069672E+02 -0.50159801732E+02  0.59023446145E+02  0.10566000000E+00 0. -1.
         22    1    1    0    0    0  0.13694362885E+02  0.44509495844E+01  0.20357484325E+02  0.24935390413E+02  0.00000000000E+00 0. -1.
</event>
<event>
 5    1  0.6978980E-004  0.9118800E+02  0.7818608E-02  0.1130116E+00
         25   -1    0    0    0    0  0.00000000000E+00  0.00000000000E+00  0.99999998245E-14  0.12500000000E+03  0.12500000000E+03 0.  0.
        -13    1    3    3    0    0  0.34787720853E+01  0.71111382503E+01 -0.58716942708E+02  0.59248296747E+02  0.10566000000E+00 0.  1.
         23    2    1    0    0    0  0.15674070080E+02  0.27924863714E+01 -0.25014935419E+02  0.95348331463E+02  0.90620543288E+02 0.  0.
         13    1    3    3    0    0  0.12195297994E+02 -0.43186518789E+01  0.33702007288E+02  0.36100034716E+02  0.10566000000E+00 0. -1.
         22    1    1    0    0    0 -0.15674070080E+02 -0.27924863714E+01  0.25014935419E+02  0.29651668537E+02  0.00000000000E+00 0.  1.
</event>
<event>
 5    1  0.6978980E-004  0.9118800E+02  0.7818608E-02  0.1130116E+00
         25   -1    0    0    0    0  0.00000000000E+00  0.00000000000E+00  0.99999998245E-14  0.12500000000E+03  0.12500000000E+03 0.  0.
        -13    1    3    3    0    0  0.32981133983E+02  0.16419625675E+01  0.21042674680E+02  0.39156820116E+02  0.10566000000E+00 0. -1.
         23    2    1    0    0    0  0.69620468583E+01 -0.46168265080E+01 -0.28410584630E+02  0.95386717465E+02  0.90673476641E+02 0.  0.
         13    1    3    3    0    0 -0.26019087124E+02 -0.62587890755E+01 -0.49453259310E+02  0.56229897349E+02  0.10566000000E+00 0.  1.
         22    1    1    0    0    0 -0.69620468583E+01  0.46168265080E+01  0.28410584630E+02  0.29613282535E+02  0.00000000000E+00 0.  1.
</event>
<event>
 5    1  0.6978980E-004  0.9118800E+02  0.7818608E-02  0.1130116E+00
         25   -1    0    0    0    0  0.00000000000E+00  0.00000000000E+00  0.99999998245E-14  0.12500000000E+03  0.12500000000E+03 0.  0.
        -13    1    3    3    0    0  0.17488409818E+02 -0.50168874040E+02  0.29067034673E+01  0.53209214329E+02  0.10566000000E+00 0.  1.
         23    2    1    0    0    0  0.31972662564E+01 -0.41492122452E+02  0.21454239866E+02  0.78180098833E+02  0.62610100689E+02 0.  0.
         13    1    3    3    0    0 -0.14291143562E+02  0.86767515882E+01  0.18547536399E+02  0.24970884504E+02  0.10566000000E+00 0. -1.
         22    1    1    0    0    0 -0.31972662564E+01  0.41492122452E+02 -0.21454239866E+02  0.46819901167E+02  0.00000000000E+00 0.  1.
</event>
<event>
 5    1  0.6978980E-004  0.9118800E+02  0.7818608E-02  0.1130116E+00
         25   -1    0    0    0    0  0.00000000000E+00  0.00000000000E+00  0.99999998245E-14  0.12500000000E+03  0.12500000000E+03 0.  0.
        -13    1    3    3    0    0  0.34666678523E+02  0.90320641529E+01 -0.62779351853E+01  0.36370048349E+02  0.10566000000E+00 0. -1.
         23    2    1    0    0    0 -0.19345793043E+02 -0.12943175435E+02 -0.17660222691E+02  0.95782386061E+02  0.91217303815E+02 0.  0.
         13    1    3    3    0    0 -0.54012471565E+02 -0.21975239588E+02 -0.11382287506E+02  0.59412337712E+02  0.10566000000E+00 0.  1.
         22    1    1    0    0    0  0.19345793043E+02  0.12943175435E+02  0.17660222691E+02  0.29217613939E+02  0.00000000000E+00 0.  1.
</event>
<event>
 5    1  0.6978980E-004  0.9118800E+02  0.7818608E-02  0.1130116E+00
         25   -1    0    0    0    0  0.00000000000E+00  0.00000000000E+00  0.99999998245E-14  0.12500000000E+03  0.12500000000E+03 0.  0.
        -13    1    3    3    0    0 -0.16212977156E+00  0.40884727454E+02  0.19954943558E+02  0.45495034471E+02  0.10566000000E+00 0. -1.
         23    2    1    0    0    0 -0.88298582062E+01  0.16558246914E+02 -0.22816346426E+02  0.95458036608E+02  0.90771742035E+02 0.  0.
         13    1    3    3    0    0 -0.86677284346E+01 -0.24326480539E+02 -0.42771289984E+02  0.49963002137E+02  0.10566000000E+00 0.  1.
         22    1    1    0    0    0  0.88298582062E+01 -0.16558246914E+02  0.22816346426E+02  0.29541963392E+02  0.00000000000E+00 0.  1.
</event>
<event>
 5    1  0.6978980E-004  0.9118800E+02  0.7818608E-02  0.1130116E+00
         25   -1    0    0    0    0  0.00000000000E+00  0.00000000000E+00  0.99999998245E-14  0.12500000000E+03  0.12500000000E+03 0.  0.
        -13    1    3    3    0    0 -0.28903433344E+02 -0.98938615803E+01 -0.27863735640E+02  0.41348468943E+02  0.10566000000E+00 0.  1.
         23    2    1    0    0    0 -0.94928707648E+01  0.30875426971E+02 -0.39117505644E+01  0.92462200774E+02  0.86547964699E+02 0.  0.
         13    1    3    3    0    0  0.19410562579E+02  0.40769288551E+02  0.23951985076E+02  0.51113731831E+02  0.10566000000E+00 0. -1.
         22    1    1    0    0    0  0.94928707648E+01 -0.30875426971E+02  0.39117505644E+01  0.32537799226E+02  0.00000000000E+00 0.  1.
</event>
<event>
 5    1  0.6978980E-004  0.9118800E+02  0.7818608E-02  0.1130116E+00
         25   -1    0    0    0    0  0.00000000000E+00  0.00000000000E+00  0.99999998245E-14  0.12500000000E+03  0.12500000000E+03 0.  0.
        -13    1    3    3    0    0  0.42331503793E+02  0.20920896606E+02  0.10597585840E+02  0.48393802474E+02  0.10566000000E+00 0.  1.
         23    2    1    0    0    0  0.94467734763E+01  0.18761321029E+02 -0.21884021815E+02  0.94666205205E+02  0.89674697107E+02 0.  0.
         13    1    3    3    0    0 -0.32884730317E+02 -0.21595755774E+01 -0.32481607655E+02  0.46272402731E+02  0.10566000000E+00 0. -1.
         22    1    1    0    0    0 -0.94467734763E+01 -0.18761321029E+02  0.21884021815E+02  0.30333794795E+02  0.00000000000E+00 0. -1.
</event>
<event>
 5    1  0.6978980E-004  0.9118800E+02  0.7818608E-02  0.1130116E+00
         25   -1    0    0    0    0  0.00000000000E+00  0.00000000000E+00  0.99999998245E-14  0.12500000000E+03  0.12500000000E+03 0.  0.
        -13    1    3    3    0    0  0.63610571692E+00 -0.30741549499E+02 -0.11957110786E+02  0.32991380063E+02  0.10566000000E+00 0. -1.
         23    2    1    0    0    0 -0.83919315847E+01  0.19872943122E+02  0.21668245297E+02  0.94424335849E+02  0.89336912652E+02 0.  0.
         13    1    3    3    0    0 -0.90280373017E+01  0.50614492621E+02  0.33625356083E+02  0.61432955785E+02  0.10566000000E+00 0.  1.
         22    1    1    0    0    0  0.83919315847E+01 -0.19872943122E+02 -0.21668245297E+02  0.30575664151E+02  0.00000000000E+00 0.  1.
</event>
<event>
 5    1  0.6978980E-004  0.9118800E+02  0.7818608E-02  0.1130116E+00
         25   -1    0    0    0    0  0.00000000000E+00  0.00000000000E+00  0.99999998245E-14  0.12500000000E+03  0.12500000000E+03 0.  0.
        -13    1    3    3    0    0 -0.33685424036E+02  0.77132287287E+01 -0.10076683453E+02  0.35996560994E+02  0.10566000000E+00 0.  1.
         23    2    1    0    0    0  0.21456175272E+02  0.10670425276E+02  0.15089618232E+02  0.96681772456E+02  0.92441565943E+02 0.  0.
         13    1    3    3    0    0  0.55141599308E+02  0.29571965470E+01  0.25166301685E+02  0.60685211462E+02  0.10566000000E+00 0. -1.
         22    1    1    0    0    0 -0.21456175272E+02 -0.10670425276E+02 -0.15089618232E+02  0.28318227544E+02  0.00000000000E+00 0. -1.
</event>
<event>
 5    1  0.6978980E-004  0.9118800E+02  0.7818608E-02  0.1130116E+00
         25   -1    0    0    0    0  0.00000000000E+00  0.00000000000E+00  0.99999998245E-14  0.12500000000E+03  0.12500000000E+03 0.  0.
        -13    1    3    3    0    0 -0.56450372558E+02 -0.18667264995E+02 -0.77449358432E+01  0.59959207296E+02  0.10566000000E+00 0. -1.
         23    2    1    0    0    0 -0.19710425789E+02 -0.17037799850E+02 -0.10658287681E+02  0.96850637577E+02  0.92669624982E+02 0.  0.
         13    1    3    3    0    0  0.36739946768E+02  0.16294651454E+01 -0.29133518382E+01  0.36891430281E+02  0.10566000000E+00 0.  1.
         22    1    1    0    0    0  0.19710425789E+02  0.17037799850E+02  0.10658287681E+02  0.28149362423E+02  0.00000000000E+00 0. -1.
</event>
<event>
 5    1  0.6978980E-004  0.9118800E+02  0.7818608E-02  0.1130116E+00
         25   -1    0    0    0    0  0.00000000000E+00  0.00000000000E+00  0.99999998245E-14  0.12500000000E+03  0.12500000000E+03 0.  0.
        -13    1    3    3    0    0  0.40188058604E+02 -0.36694568813E+02 -0.88104434383E+01  0.55128998833E+02  0.10566000000E+00 0. -1.
         23    2    1    0    0    0  0.22912704010E+02 -0.83865550327E+01  0.15362572937E+02  0.96167120199E+02  0.91743010904E+02 0.  0.
         13    1    3    3    0    0 -0.17275354593E+02  0.28308013780E+02  0.24173016376E+02  0.41038121366E+02  0.10566000000E+00 0.  1.
         22    1    1    0    0    0 -0.22912704010E+02  0.83865550327E+01 -0.15362572937E+02  0.28832879801E+02  0.00000000000E+00 0. -1.
</event>
<event>
 5    1  0.6978980E-004  0.9118800E+02  0.7818608E-02  0.1130116E+00
         25   -1    0    0    0    0  0.00000000000E+00  0.00000000000E+00  0.99999998245E-14  0.12500000000E+03  0.12500000000E+03 0.  0.
        -13    1    3    3    0    0  0.22365476841E+02 -0.43863741694E+02 -0.37286779792E+02  0.61762104084E+02  0.10566000000E+00 0.  1.
         23    2    1    0    0    0  0.15992037935E+02 -0.18527599427E+02 -0.13745649673E+02  0.96929372954E+02  0.92775768596E+02 0.  0.
         13    1    3    3    0    0 -0.63734389062E+01  0.25336142267E+02  0.23541130118E+02  0.35167268870E+02  0.10566000000E+00 0. -1.
         22    1    1    0    0    0 -0.15992037935E+02  0.18527599427E+02  0.13745649673E+02  0.28070627046E+02  0.00000000000E+00 0.  1.
</event>
<event>
 5    1  0.6978980E-004  0.9118800E+02  0.7818608E-02  0.1130116E+00
         25   -1    0    0    0    0  0.00000000000E+00  0.00000000000E+00  0.99999998245E-14  0.12500000000E+03  0.12500000000E+03 0.  0.
        -13    1    3    3    0    0  0.40672956519E+02  0.16633686810E+02  0.51493397311E+01  0.44243596063E+02  0.10566000000E+00 0. -1.
         23    2    1    0    0    0  0.10249419415E+02 -0.15056193436E+02 -0.22424629645E+02  0.96110493707E+02  0.91665824748E+02 0.  0.
         13    1    3    3    0    0 -0.30423537104E+02 -0.31689880246E+02 -0.27573969377E+02  0.51866897643E+02  0.10566000000E+00 0.  1.
         22    1    1    0    0    0 -0.10249419415E+02  0.15056193436E+02  0.22424629645E+02  0.28889506293E+02  0.00000000000E+00 0.  1.
</event>
<event>
 5    1  0.6978980E-004  0.9118800E+02  0.7818608E-02  0.1130116E+00
         25   -1    0    0    0    0  0.00000000000E+00  0.00000000000E+00  0.99999998245E-14  0.12500000000E+03  0.12500000000E+03 0.  0.
        -13    1    3    3    0    0 -0.32875347938E+02  0.84748002532E+01 -0.35337666992E+02  0.49003802034E+02  0.10566000000E+00 0.  1.
         23    2    1    0    0    0 -0.94376075392E+01  0.26393212802E+02  0.23569763306E+01  0.96871269928E+02  0.92697451324E+02 0.  0.
         13    1    3    3    0    0  0.23437740399E+02  0.17918412549E+02  0.37694643322E+02  0.47867467893E+02  0.10566000000E+00 0. -1.
         22    1    1    0    0    0  0.94376075392E+01 -0.26393212802E+02 -0.23569763306E+01  0.28128730072E+02  0.00000000000E+00 0.  1.
</event>
<event>
 5    1  0.6978980E-004  0.9118800E+02  0.7818608E-02  0.1130116E+00
         25   -1    0    0    0    0  0.00000000000E+00  0.00000000000E+00  0.99999998245E-14  0.12500000000E+03  0.12500000000E+03 0.  0.
        -13    1    3    3    0    0  0.30507510981E+02 -0.39251231286E+02 -0.21473562950E+02  0.54152492588E+02  0.10566000000E+00 0. -1.
         23    2    1    0    0    0  0.21434745941E+02  0.75931315927E+00 -0.20708574938E+02  0.95186077649E+02  0.90396456856E+02 0.  0.
         13    1    3    3    0    0 -0.90727650402E+01  0.40010544445E+02  0.76498801148E+00  0.41033585061E+02  0.10566000000E+00 0.  1.
         22    1    1    0    0    0 -0.21434745941E+02 -0.75931315927E+00  0.20708574938E+02  0.29813922351E+02  0.00000000000E+00 0. -1.
</event>
<event>
 5    1  0.6978980E-004  0.9118800E+02  0.7818608E-02  0.1130116E+00
         25   -1    0    0    0    0  0.00000000000E+00  0.00000000000E+00  0.99999998245E-14  0.12500000000E+03  0.12500000000E+03 0.  0.
        -13    1    3    3    0    0 -0.17568214633E+02 -0.35334376064E+02  0.34229121807E+01  0.39609188189E+02  0.10566000000E+00 0.  1.
         23    2    1    0    0    0  0.97636036103E+01  0.19988571777E+02 -0.58241979489E+01  0.10200451699E+03  0.99378716269E+02 0.  0.
         13    1    3    3    0    0  0.27331818243E+02  0.55322947841E+02 -0.92471101295E+01  0.62395328800E+02  0.10566000000E+00 0. -1.
         22    1    1    0    0    0 -0.97636036103E+01 -0.19988571777E+02  0.58241979489E+01  0.22995483011E+02  0.00000000000E+00 0. -1.
</event>
<event>
 5    1  0.6978980E-004  0.9118800E+02  0.7818608E-02  0.1130116E+00
         25   -1    0    0    0    0  0.00000000000E+00  0.00000000000E+00  0.99999998245E-14  0.12500000000E+03  0.12500000000E+03 0.  0.
        -13    1    3    3    0    0  0.22560656324E+02  0.29372832012E+02  0.68042795859E+01  0.37657082454E+02  0.10566000000E+00 0. -1.
         23    2    1    0    0    0 -0.21335411377E+02 -0.87193890799E+00 -0.18575983510E+02  0.96697575732E+02  0.92462932751E+02 0.  0.
         13    1    3    3    0    0 -0.43896067701E+02 -0.30244770920E+02 -0.25380263096E+02  0.59040493278E+02  0.10566000000E+00 0.  1.
         22    1    1    0    0    0  0.21335411377E+02  0.87193890799E+00  0.18575983510E+02  0.28302424268E+02  0.00000000000E+00 0.  1.
</event>
<event>
 5    1  0.6978980E-004  0.9118800E+02  0.7818608E-02  0.1130116E+00
         25   -1    0    0    0    0  0.00000000000E+00  0.00000000000E+00  0.99999998245E-14  0.12500000000E+03  0.12500000000E+03 0.  0.
        -13    1    3    3    0    0  0.82742738589E+01  0.56258831578E+02 -0.19152903961E+02  0.60003038528E+02  0.10566000000E+00 0.  1.
         23    2    1    0    0    0  0.73261128606E+01  0.26270820919E+02 -0.21746658230E+02  0.90118126404E+02  0.83093511184E+02 0.  0.
         13    1    3    3    0    0 -0.94816099832E+00 -0.29988010659E+02 -0.25937542693E+01  0.30115087876E+02  0.10566000000E+00 0. -1.
         22    1    1    0    0    0 -0.73261128606E+01 -0.26270820919E+02  0.21746658230E+02  0.34881873596E+02  0.00000000000E+00 0.  1.
</event>
<event>
 5    1  0.6978980E-004  0.9118800E+02  0.7818608E-02  0.1130116E+00
         25   -1    0    0    0    0  0.00000000000E+00  0.00000000000E+00  0.99999998245E-14  0.12500000000E+03  0.12500000000E+03 0.  0.
        -13    1    3    3    0    0  0.13477273990E+00  0.43821435810E+02  0.12027877455E+02  0.45442462524E+02  0.10566000000E+00 0. -1.
         23    2    1    0    0    0 -0.11477030552E+02  0.79386326887E+01 -0.23766598357E+02  0.97439243176E+02  0.93460209683E+02 0.  0.
         13    1    3    3    0    0 -0.11611803291E+02 -0.35882803121E+02 -0.35794475812E+02  0.51996780652E+02  0.10566000000E+00 0.  1.
         22    1    1    0    0    0  0.11477030552E+02 -0.79386326887E+01  0.23766598357E+02  0.27560756824E+02  0.00000000000E+00 0. -1.
</event>
<event>
 5    1  0.6978980E-004  0.9118800E+02  0.7818608E-02  0.1130116E+00
         25   -1    0    0    0    0  0.00000000000E+00  0.00000000000E+00  0.99999998245E-14  0.12500000000E+03  0.12500000000E+03 0.  0.
        -13    1    3    3    0    0  0.16435806594E+02  0.36071120302E+01 -0.21684368526E+02  0.27447586378E+02  0.10566000000E+00 0. -1.
         23    2    1    0    0    0 -0.20440284175E+02 -0.83564320072E+01  0.27280640408E+02  0.89902015526E+02  0.82767770790E+02 0.  0.
         13    1    3    3    0    0 -0.36876090769E+02 -0.11963544037E+02  0.48965008933E+02  0.62454429148E+02  0.10566000000E+00 0.  1.
         22    1    1    0    0    0  0.20440284175E+02  0.83564320072E+01 -0.27280640408E+02  0.35097984474E+02  0.00000000000E+00 0.  1.
</event>
<event>
 5    1  0.6978980E-004  0.9118800E+02  0.7818608E-02  0.1130116E+00
         25   -1    0    0    0    0  0.00000000000E+00  0.00000000000E+00  0.99999998245E-14  0.12500000000E+03  0.12500000000E+03 0.  0.
        -13    1    3    3    0    0 -0.34407747570E+00  0.30535611657E+02 -0.45040904994E+02  0.54417242261E+02  0.10566000000E+00 0.  1.
         23    2    1    0    0    0 -0.15360318319E+02 -0.20979582791E+01 -0.25085484786E+02  0.95510639974E+02  0.90844152225E+02 0.  0.
         13    1    3    3    0    0 -0.15016240843E+02 -0.32633569936E+02  0.19955420208E+02  0.41093397713E+02  0.10566000000E+00 0. -1.
         22    1    1    0    0    0  0.15360318319E+02  0.20979582791E+01  0.25085484786E+02  0.29489360026E+02  0.00000000000E+00 0. -1.
</event>
<event>
 5    1  0.6978980E-004  0.9118800E+02  0.7818608E-02  0.1130116E+00
         25   -1    0    0    0    0  0.00000000000E+00  0.00000000000E+00  0.99999998245E-14  0.12500000000E+03  0.12500000000E+03 0.  0.
        -13    1    3    3    0    0  0.46234322973E+02  0.16217339757E+01 -0.98123960725E+01  0.47292038681E+02  0.10566000000E+00 0.  1.
         23    2    1    0    0    0  0.87626638959E+01  0.25278487724E+02  0.10777819519E+02  0.96156497893E+02  0.91728536854E+02 0.  0.
         13    1    3    3    0    0 -0.37471659078E+02  0.23656753749E+02  0.20590215592E+02  0.48864459212E+02  0.10566000000E+00 0. -1.
         22    1    1    0    0    0 -0.87626638959E+01 -0.25278487724E+02 -0.10777819519E+02  0.28843502107E+02  0.00000000000E+00 0.  1.
</event>
<event>
 5    1  0.6978980E-004  0.9118800E+02  0.7818608E-02  0.1130116E+00
         25   -1    0    0    0    0  0.00000000000E+00  0.00000000000E+00  0.99999998245E-14  0.12500000000E+03  0.12500000000E+03 0.  0.
        -13    1    3    3    0    0  0.32744410537E+02 -0.14481852736E+02  0.24340993083E+02  0.43294521459E+02  0.10566000000E+00 0. -1.
         23    2    1    0    0    0 -0.17517813381E+02 -0.20559087061E+02  0.12222577537E+02  0.95353056682E+02  0.90627060918E+02 0.  0.
         13    1    3    3    0    0 -0.50262223918E+02 -0.60772343243E+01 -0.12118415546E+02  0.52058535223E+02  0.10566000000E+00 0.  1.
         22    1    1    0    0    0  0.17517813381E+02  0.20559087061E+02 -0.12222577537E+02  0.29646943318E+02  0.00000000000E+00 0.  1.
</event>
<event>
 5    1  0.6978980E-004  0.9118800E+02  0.7818608E-02  0.1130116E+00
         25   -1    0    0    0    0  0.00000000000E+00  0.00000000000E+00  0.99999998245E-14  0.12500000000E+03  0.12500000000E+03 0.  0.
        -13    1    3    3    0    0  0.36474137945E+02 -0.20730070133E+02  0.44956056907E+01  0.42193840559E+02  0.10566000000E+00 0.  1.
         23    2    1    0    0    0 -0.16739583678E+02 -0.22539752021E+02  0.87077487232E+01  0.95604779798E+02  0.90973594793E+02 0.  0.
         13    1    3    3    0    0 -0.53213721623E+02 -0.18096818885E+01  0.42121430325E+01  0.53410939240E+02  0.10566000000E+00 0. -1.
         22    1    1    0    0    0  0.16739583678E+02  0.22539752021E+02 -0.87077487232E+01  0.29395220202E+02  0.00000000000E+00 0. -1.
</event>
<event>
 5    1  0.6978980E-004  0.9118800E+02  0.7818608E-02  0.1130116E+00
         25   -1    0    0    0    0  0.00000000000E+00  0.00000000000E+00  0.99999998245E-14  0.12500000000E+03  0.12500000000E+03 0.  0.
        -13    1    3    3    0    0  0.47709383227E+01 -0.19278256298E+01  0.30620474213E+02  0.31050007556E+02  0.10566000000E+00 0. -1.
         23    2    1    0    0    0  0.23790260229E+02  0.10790444187E+02 -0.23533997807E+02  0.89839521899E+02  0.82673335936E+02 0.  0.
         13    1    3    3    0    0  0.19019321906E+02  0.12718269816E+02 -0.54154472020E+02  0.58789514343E+02  0.10566000000E+00 0.  1.
         22    1    1    0    0    0 -0.23790260229E+02 -0.10790444187E+02  0.23533997807E+02  0.35160478101E+02  0.00000000000E+00 0.  1.
</event>
<event>
 5    1  0.6978980E-004  0.9118800E+02  0.7818608E-02  0.1130116E+00
         25   -1    0    0    0    0  0.00000000000E+00  0.00000000000E+00  0.99999998245E-14  0.12500000000E+03  0.12500000000E+03 0.  0.
        -13    1    3    3    0    0 -0.24174785026E+02 -0.24044490046E+02 -0.21123915838E+02  0.40109708513E+02  0.10566000000E+00 0. -1.
         23    2    1    0    0    0 -0.12172228895E+02  0.60616947658E+01  0.25034661508E+02  0.96510676096E+02  0.92209918251E+02 0.  0.
         13    1    3    3    0    0  0.12002556131E+02  0.30106184812E+02  0.46158577346E+02  0.56400967583E+02  0.10566000000E+00 0.  1.
         22    1    1    0    0    0  0.12172228895E+02 -0.60616947658E+01 -0.25034661508E+02  0.28489323904E+02  0.00000000000E+00 0.  1.
</event>
<event>
 5    1  0.6978980E-004  0.9118800E+02  0.7818608E-02  0.1130116E+00
         25   -1    0    0    0    0  0.00000000000E+00  0.00000000000E+00  0.99999998245E-14  0.12500000000E+03  0.12500000000E+03 0.  0.
        -13    1    3    3    0    0 -0.16819597251E+01 -0.28040717754E+02 -0.14599062724E+02  0.31658405474E+02  0.10566000000E+00 0.  1.
         23    2    1    0    0    0 -0.26888041842E+02 -0.23737173619E+01  0.27113580579E+02  0.86741045753E+02  0.77847681008E+02 0.  0.
         13    1    3    3    0    0 -0.25206082117E+02  0.25667000392E+02  0.41712643303E+02  0.55082640280E+02  0.10566000000E+00 0. -1.
         22    1    1    0    0    0  0.26888041842E+02  0.23737173619E+01 -0.27113580579E+02  0.38258954247E+02  0.00000000000E+00 0. -1.
</event>
<event>
 5    1  0.6978980E-004  0.9118800E+02  0.7818608E-02  0.1130116E+00
         25   -1    0    0    0    0  0.00000000000E+00  0.00000000000E+00  0.99999998245E-14  0.12500000000E+03  0.12500000000E+03 0.  0.
        -13    1    3    3    0    0 -0.17907994118E+02  0.51887226774E+01  0.58717178792E+02  0.61606309301E+02  0.10566000000E+00 0.  1.
         23    2    1    0    0    0 -0.82182277041E+01  0.98367924316E+01  0.26627577250E+02  0.95447849111E+02  0.90757711947E+02 0.  0.
         13    1    3    3    0    0  0.96897664135E+01  0.46480697542E+01 -0.32089601542E+02  0.33841539811E+02  0.10566000000E+00 0. -1.
         22    1    1    0    0    0  0.82182277041E+01 -0.98367924316E+01 -0.26627577250E+02  0.29552150889E+02  0.00000000000E+00 0.  1.
</event>
<event>
 5    1  0.6978980E-004  0.9118800E+02  0.7818608E-02  0.1130116E+00
         25   -1    0    0    0    0  0.00000000000E+00  0.00000000000E+00  0.99999998245E-14  0.12500000000E+03  0.12500000000E+03 0.  0.
        -13    1    3    3    0    0  0.11707113125E+01  0.19665182294E+02 -0.32049565416E+02  0.37620151077E+02  0.10566000000E+00 0.  1.
         23    2    1    0    0    0 -0.37346315632E+01  0.44570885240E+01  0.26272429883E+02  0.98091754368E+02  0.94328885247E+02 0.  0.
         13    1    3    3    0    0 -0.49053428758E+01 -0.15208093770E+02  0.58321995299E+02  0.60471603291E+02  0.10566000000E+00 0. -1.
         22    1    1    0    0    0  0.37346315632E+01 -0.44570885240E+01 -0.26272429883E+02  0.26908245632E+02  0.00000000000E+00 0. -1.
</event>
<event>
 5    1  0.6978980E-004  0.9118800E+02  0.7818608E-02  0.1130116E+00
         25   -1    0    0    0    0  0.00000000000E+00  0.00000000000E+00  0.99999998245E-14  0.12500000000E+03  0.12500000000E+03 0.  0.
        -13    1    3    3    0    0 -0.40755696920E+02  0.79855003793E+01 -0.13354084629E+02  0.43624967485E+02  0.10566000000E+00 0. -1.
         23    2    1    0    0    0  0.11139226550E+02  0.58961121062E+01 -0.25135634634E+02  0.96881560595E+02  0.92711326972E+02 0.  0.
         13    1    3    3    0    0  0.51894923469E+02 -0.20893882731E+01 -0.11781550005E+02  0.53256593111E+02  0.10566000000E+00 0.  1.
         22    1    1    0    0    0 -0.11139226550E+02 -0.58961121062E+01  0.25135634634E+02  0.28118439405E+02  0.00000000000E+00 0.  1.
</event>
<event>
 5    1  0.6978980E-004  0.9118800E+02  0.7818608E-02  0.1130116E+00
         25   -1    0    0    0    0  0.00000000000E+00  0.00000000000E+00  0.99999998245E-14  0.12500000000E+03  0.12500000000E+03 0.  0.
        -13    1    3    3    0    0 -0.21627785698E+02 -0.28820602165E+02 -0.12940083849E+02  0.38286357327E+02  0.10566000000E+00 0.  1.
         23    2    1    0    0    0 -0.44381329200E+01  0.26206337319E+02 -0.11726721876E+02  0.95948577566E+02  0.91444761422E+02 0.  0.
         13    1    3    3    0    0  0.17189652778E+02  0.55026939483E+02  0.12133619725E+01  0.57662220239E+02  0.10566000000E+00 0. -1.
         22    1    1    0    0    0  0.44381329200E+01 -0.26206337319E+02  0.11726721876E+02  0.29051422434E+02  0.00000000000E+00 0. -1.
</event>
<event>
 5    1  0.6978980E-004  0.9118800E+02  0.7818608E-02  0.1130116E+00
         25   -1    0    0    0    0  0.00000000000E+00  0.00000000000E+00  0.99999998245E-14  0.12500000000E+03  0.12500000000E+03 0.  0.
        -13    1    3    3    0    0 -0.23960099141E+01 -0.44343812762E+02 -0.35245033558E+02  0.56695133374E+02  0.10566000000E+00 0. -1.
         23    2    1    0    0    0  0.17787967386E+02 -0.18953202974E+02 -0.13905178034E+02  0.95521369386E+02  0.90858914514E+02 0.  0.
         13    1    3    3    0    0  0.20183977300E+02  0.25390609788E+02  0.21339855524E+02  0.38826236012E+02  0.10566000000E+00 0.  1.
         22    1    1    0    0    0 -0.17787967386E+02  0.18953202974E+02  0.13905178034E+02  0.29478630614E+02  0.00000000000E+00 0. -1.
</event>
<event>
 5    1  0.6978980E-004  0.9118800E+02  0.7818608E-02  0.1130116E+00
         25   -1    0    0    0    0  0.00000000000E+00  0.00000000000E+00  0.99999998245E-14  0.12500000000E+03  0.12500000000E+03 0.  0.
        -13    1    3    3    0    0  0.33141447638E+02  0.71056383165E+01  0.31020573481E+01  0.34036444751E+02  0.10566000000E+00 0.  1.
         23    2    1    0    0    0 -0.27984250923E+02 -0.29373174614E+00  0.82506253700E+01  0.95823341571E+02  0.91273410108E+02 0.  0.
         13    1    3    3    0    0 -0.61125698562E+02 -0.73993700626E+01  0.51485680219E+01  0.61786896820E+02  0.10566000000E+00 0. -1.
         22    1    1    0    0    0  0.27984250923E+02  0.29373174614E+00 -0.82506253700E+01  0.29176658429E+02  0.00000000000E+00 0. -1.
</event>
<event>
 5    1  0.6978980E-004  0.9118800E+02  0.7818608E-02  0.1130116E+00
         25   -1    0    0    0    0  0.00000000000E+00  0.00000000000E+00  0.99999998245E-14  0.12500000000E+03  0.12500000000E+03 0.  0.
        -13    1    3    3    0    0 -0.57178345922E+02  0.11725178124E+02  0.85006131440E+01  0.58984020144E+02  0.10566000000E+00 0. -1.
         23    2    1    0    0    0 -0.23289326007E+02  0.32975204183E+01  0.18236322722E+02  0.95237106774E+02  0.90466992288E+02 0.  0.
         13    1    3    3    0    0  0.33889019915E+02 -0.84276577061E+01  0.97357095776E+01  0.36253086631E+02  0.10566000000E+00 0.  1.
         22    1    1    0    0    0  0.23289326007E+02 -0.32975204183E+01 -0.18236322722E+02  0.29762893226E+02  0.00000000000E+00 0. -1.
</event>
<event>
 5    1  0.6978980E-004  0.9118800E+02  0.7818608E-02  0.1130116E+00
         25   -1    0    0    0    0  0.00000000000E+00  0.00000000000E+00  0.99999998245E-14  0.12500000000E+03  0.12500000000E+03 0.  0.
        -13    1    3    3    0    0  0.61089403007E+02 -0.71874550670E+01 -0.74440927005E+00  0.61515363766E+02  0.10566000000E+00 0.  1.
         23    2    1    0    0    0  0.26848383775E+02 -0.10210528970E+02  0.31217547497E+01  0.96106471903E+02  0.91660340256E+02 0.  0.
         13    1    3    3    0    0 -0.34241019232E+02 -0.30230739035E+01  0.38661640197E+01  0.34591108137E+02  0.10566000000E+00 0. -1.
         22    1    1    0    0    0 -0.26848383775E+02  0.10210528970E+02 -0.31217547497E+01  0.28893528097E+02  0.00000000000E+00 0.  1.
</event>
<event>
 5    1  0.6978980E-004  0.9118800E+02  0.7818608E-02  0.1130116E+00
         25   -1    0    0    0    0  0.00000000000E+00  0.00000000000E+00  0.99999998245E-14  0.12500000000E+03  0.12500000000E+03 0.  0.
        -13    1    3    3    0    0  0.53661869833E+02  0.55265075246E+01 -0.27979390335E+02  0.60770025563E+02  0.10566000000E+00 0.  1.
         23    2    1    0    0    0  0.28952357136E+02 -0.10381031788E+00 -0.37968193237E+01  0.95799561693E+02  0.91240837476E+02 0.  0.
         13    1    3    3    0    0 -0.24709512697E+02 -0.56303178425E+01  0.24182571011E+02  0.35029536130E+02  0.10566000000E+00 0. -1.
         22    1    1    0    0    0 -0.28952357136E+02  0.10381031788E+00  0.37968193237E+01  0.29200438307E+02  0.00000000000E+00 0.  1.
</event>
<event>
 5    1  0.6978980E-004  0.9118800E+02  0.7818608E-02  0.1130116E+00
         25   -1    0    0    0    0  0.00000000000E+00  0.00000000000E+00  0.99999998245E-14  0.12500000000E+03  0.12500000000E+03 0.  0.
        -13    1    3    3    0    0  0.14474297529E+02 -0.41166963594E+02  0.10757984534E+02  0.44944071642E+02  0.10566000000E+00 0.  1.
         23    2    1    0    0    0 -0.26382463937E+02 -0.11290199716E+02  0.47074252425E+01  0.95919716896E+02  0.91405301946E+02 0.  0.
         13    1    3    3    0    0 -0.40856761465E+02  0.29876763878E+02 -0.60505592914E+01  0.50975645254E+02  0.10566000000E+00 0. -1.
         22    1    1    0    0    0  0.26382463937E+02  0.11290199716E+02 -0.47074252425E+01  0.29080283104E+02  0.00000000000E+00 0.  1.
</event>
<event>
 5    1  0.6978980E-004  0.9118800E+02  0.7818608E-02  0.1130116E+00
         25   -1    0    0    0    0  0.00000000000E+00  0.00000000000E+00  0.99999998245E-14  0.12500000000E+03  0.12500000000E+03 0.  0.
        -13    1    3    3    0    0  0.17590107020E+02 -0.24161524883E+02 -0.48029105213E+02  0.56568518288E+02  0.10566000000E+00 0. -1.
         23    2    1    0    0    0  0.64914053980E+01 -0.26475749383E+02 -0.10475083287E+02  0.95796729305E+02  0.91236957020E+02 0.  0.
         13    1    3    3    0    0 -0.11098701622E+02 -0.23142244994E+01  0.37554021926E+02  0.39228211017E+02  0.10566000000E+00 0.  1.
         22    1    1    0    0    0 -0.64914053980E+01  0.26475749383E+02  0.10475083287E+02  0.29203270695E+02  0.00000000000E+00 0. -1.
</event>
<event>
 5    1  0.6978980E-004  0.9118800E+02  0.7818608E-02  0.1130116E+00
         25   -1    0    0    0    0  0.00000000000E+00  0.00000000000E+00  0.99999998245E-14  0.12500000000E+03  0.12500000000E+03 0.  0.
        -13    1    3    3    0    0 -0.26134034793E+02  0.42634333118E+00 -0.31278814548E+02  0.40762052779E+02  0.10566000000E+00 0. -1.
         23    2    1    0    0    0 -0.21946318017E+02  0.27147086099E+01  0.21736701020E+02  0.93992022179E+02  0.88729958553E+02 0.  0.
         13    1    3    3    0    0  0.41877167759E+01  0.22883652787E+01  0.53015515567E+02  0.53229969400E+02  0.10566000000E+00 0.  1.
         22    1    1    0    0    0  0.21946318017E+02 -0.27147086099E+01 -0.21736701020E+02  0.31007977821E+02  0.00000000000E+00 0.  1.
</event>
<event>
 5    1  0.6978980E-004  0.9118800E+02  0.7818608E-02  0.1130116E+00
         25   -1    0    0    0    0  0.00000000000E+00  0.00000000000E+00  0.99999998245E-14  0.12500000000E+03  0.12500000000E+03 0.  0.
        -13    1    3    3    0    0  0.48755783768E+00  0.37829580419E+01  0.60739362925E+02  0.60859098390E+02  0.10566000000E+00 0.  1.
         23    2    1    0    0    0  0.91389580555E+01  0.63267449803E+01  0.26565073025E+02  0.96203275165E+02  0.91792258886E+02 0.  0.
         13    1    3    3    0    0  0.86514002178E+01  0.25437869384E+01 -0.34174289901E+02  0.35344176776E+02  0.10566000000E+00 0. -1.
         22    1    1    0    0    0 -0.91389580555E+01 -0.63267449803E+01 -0.26565073025E+02  0.28796724835E+02  0.00000000000E+00 0.  1.
</event>
<event>
 5    1  0.6978980E-004  0.9118800E+02  0.7818608E-02  0.1130116E+00
         25   -1    0    0    0    0  0.00000000000E+00  0.00000000000E+00  0.99999998245E-14  0.12500000000E+03  0.12500000000E+03 0.  0.
        -13    1    3    3    0    0  0.25521847449E+02  0.29705276597E+02  0.59817866786E+01  0.39617686590E+02  0.10566000000E+00 0.  1.
         23    2    1    0    0    0  0.91371265172E+01 -0.24361551472E+02  0.11836824944E+02  0.96415341599E+02  0.92080591874E+02 0.  0.
         13    1    3    3    0    0 -0.16384720931E+02 -0.54066828069E+02  0.58550382658E+01  0.56797655009E+02  0.10566000000E+00 0. -1.
         22    1    1    0    0    0 -0.91371265172E+01  0.24361551472E+02 -0.11836824944E+02  0.28584658401E+02  0.00000000000E+00 0. -1.
</event>
<event>
 5    1  0.6978980E-004  0.9118800E+02  0.7818608E-02  0.1130116E+00
         25   -1    0    0    0    0  0.00000000000E+00  0.00000000000E+00  0.99999998245E-14  0.12500000000E+03  0.12500000000E+03 0.  0.
        -13    1    3    3    0    0 -0.19579248154E+02  0.19325670758E+02 -0.47276861812E+02  0.54698641074E+02  0.10566000000E+00 0. -1.
         23    2    1    0    0    0 -0.33293945934E+01  0.26844768320E+02 -0.98073841539E+01  0.96226553240E+02  0.91823952812E+02 0.  0.
         13    1    3    3    0    0  0.16249853561E+02  0.75190975615E+01  0.37469477658E+02  0.41527912166E+02  0.10566000000E+00 0.  1.
         22    1    1    0    0    0  0.33293945934E+01 -0.26844768320E+02  0.98073841539E+01  0.28773446760E+02  0.00000000000E+00 0. -1.
</event>
<event>
 5    1  0.6978980E-004  0.9118800E+02  0.7818608E-02  0.1130116E+00
         25   -1    0    0    0    0  0.00000000000E+00  0.00000000000E+00  0.99999998245E-14  0.12500000000E+03  0.12500000000E+03 0.  0.
        -13    1    3    3    0    0 -0.74890064673E+01 -0.12060915394E+02 -0.60332945849E+02  0.61980855244E+02  0.10566000000E+00 0.  1.
         23    2    1    0    0    0 -0.73995416882E+01 -0.15153313887E+01 -0.28541566170E+02  0.95475934463E+02  0.90796385477E+02 0.  0.
         13    1    3    3    0    0  0.89464779121E-01  0.10545584005E+02  0.31791379679E+02  0.33495079219E+02  0.10566000000E+00 0. -1.
         22    1    1    0    0    0  0.73995416882E+01  0.15153313887E+01  0.28541566170E+02  0.29524065537E+02  0.00000000000E+00 0.  1.
</event>
<event>
 5    1  0.6978980E-004  0.9118800E+02  0.7818608E-02  0.1130116E+00
         25   -1    0    0    0    0  0.00000000000E+00  0.00000000000E+00  0.99999998245E-14  0.12500000000E+03  0.12500000000E+03 0.  0.
        -13    1    3    3    0    0 -0.15315341223E+02  0.30464181503E+02 -0.93760282045E+01  0.35363075380E+02  0.10566000000E+00 0. -1.
         23    2    1    0    0    0  0.23613247682E+02  0.22864222296E+00  0.21114472197E+02  0.93322584078E+02  0.87781809160E+02 0.  0.
         13    1    3    3    0    0  0.38928588905E+02 -0.30235539280E+02  0.30490500402E+02  0.57959508698E+02  0.10566000000E+00 0.  1.
         22    1    1    0    0    0 -0.23613247682E+02 -0.22864222296E+00 -0.21114472197E+02  0.31677415922E+02  0.00000000000E+00 0.  1.
</event>
<event>
 5    1  0.6978980E-004  0.9118800E+02  0.7818608E-02  0.1130116E+00
         25   -1    0    0    0    0  0.00000000000E+00  0.00000000000E+00  0.99999998245E-14  0.12500000000E+03  0.12500000000E+03 0.  0.
        -13    1    3    3    0    0  0.37104425968E+02 -0.13571093773E+02 -0.66283577572E+01  0.40060695241E+02  0.10566000000E+00 0.  1.
         23    2    1    0    0    0 -0.16659219857E+02  0.51749419374E+00 -0.21691313388E+02  0.97644735736E+02  0.93734646390E+02 0.  0.
         13    1    3    3    0    0 -0.53763645825E+02  0.14088587967E+02 -0.15062955630E+02  0.57584040495E+02  0.10566000000E+00 0. -1.
         22    1    1    0    0    0  0.16659219857E+02 -0.51749419374E+00  0.21691313388E+02  0.27355264264E+02  0.00000000000E+00 0. -1.
</event>
<event>
 5    1  0.6978980E-004  0.9118800E+02  0.7818608E-02  0.1130116E+00
         25   -1    0    0    0    0  0.00000000000E+00  0.00000000000E+00  0.99999998245E-14  0.12500000000E+03  0.12500000000E+03 0.  0.
        -13    1    3    3    0    0 -0.22991378712E+02 -0.21920548424E+02 -0.34122142762E+02  0.46620228753E+02  0.10566000000E+00 0. -1.
         23    2    1    0    0    0  0.21231525926E+02 -0.12935722155E+02 -0.16980225234E+02  0.94892880413E+02  0.89990111142E+02 0.  0.
         13    1    3    3    0    0  0.44222904639E+02  0.89848262687E+01  0.17141917528E+02  0.48272651660E+02  0.10566000000E+00 0.  1.
         22    1    1    0    0    0 -0.21231525926E+02  0.12935722155E+02  0.16980225234E+02  0.30107119587E+02  0.00000000000E+00 0.  1.
</event>
<event>
 5    1  0.6978980E-004  0.9118800E+02  0.7818608E-02  0.1130116E+00
         25   -1    0    0    0    0  0.00000000000E+00  0.00000000000E+00  0.99999998245E-14  0.12500000000E+03  0.12500000000E+03 0.  0.
        -13    1    3    3    0    0  0.26881516788E+02  0.15791941366E+02 -0.38584661470E+02  0.49606336508E+02  0.10566000000E+00 0.  1.
         23    2    1    0    0    0  0.14738323938E+02 -0.21042912458E+02 -0.11883200497E+02  0.96693943912E+02  0.92458022789E+02 0.  0.
         13    1    3    3    0    0 -0.12143192850E+02 -0.36834853824E+02  0.26701460974E+02  0.47087607404E+02  0.10566000000E+00 0. -1.
         22    1    1    0    0    0 -0.14738323938E+02  0.21042912458E+02  0.11883200497E+02  0.28306056088E+02  0.00000000000E+00 0.  1.
</event>
<event>
 5    1  0.6978980E-004  0.9118800E+02  0.7818608E-02  0.1130116E+00
         25   -1    0    0    0    0  0.00000000000E+00  0.00000000000E+00  0.99999998245E-14  0.12500000000E+03  0.12500000000E+03 0.  0.
        -13    1    3    3    0    0  0.45354656595E+01 -0.25507121708E+02  0.36674958580E+02  0.44902644214E+02  0.10566000000E+00 0.  1.
         23    2    1    0    0    0 -0.18602858312E+01  0.18393422905E+02 -0.50816050925E+01  0.10582706648E+03  0.10407577345E+03 0.  0.
         13    1    3    3    0    0 -0.63957514907E+01  0.43900544612E+02 -0.41756563673E+02  0.60924422264E+02  0.10566000000E+00 0. -1.
         22    1    1    0    0    0  0.18602858312E+01 -0.18393422905E+02  0.50816050925E+01  0.19172933522E+02  0.00000000000E+00 0. -1.
</event>
<event>
 5    1  0.6978980E-004  0.9118800E+02  0.7818608E-02  0.1130116E+00
         25   -1    0    0    0    0  0.00000000000E+00  0.00000000000E+00  0.99999998245E-14  0.12500000000E+03  0.12500000000E+03 0.  0.
        -13    1    3    3    0    0  0.43782473980E+02 -0.17764220354E+02  0.21245263607E+02  0.51805838883E+02  0.10566000000E+00 0.  1.
         23    2    1    0    0    0 -0.36793150375E+01  0.21419064128E+00  0.22128767509E+02  0.10256641829E+03  0.10008298843E+03 0.  0.
         13    1    3    3    0    0 -0.47461789018E+02  0.17978410996E+02  0.88350390216E+00  0.50760579408E+02  0.10566000000E+00 0. -1.
         22    1    1    0    0    0  0.36793150375E+01 -0.21419064128E+00 -0.22128767509E+02  0.22433581708E+02  0.00000000000E+00 0.  1.
</event>
<event>
 5    1  0.6978980E-004  0.9118800E+02  0.7818608E-02  0.1130116E+00
         25   -1    0    0    0    0  0.00000000000E+00  0.00000000000E+00  0.99999998245E-14  0.12500000000E+03  0.12500000000E+03 0.  0.
        -13    1    3    3    0    0 -0.37150433870E+02 -0.77735041039E+01  0.17467995092E+02  0.41781863522E+02  0.10566000000E+00 0.  1.
         23    2    1    0    0    0 -0.76716845175E+01  0.31097506703E+02  0.22235164838E+01  0.92893089653E+02  0.87168069918E+02 0.  0.
         13    1    3    3    0    0  0.29478749353E+02  0.38871010807E+02 -0.15244478608E+02  0.51111226131E+02  0.10566000000E+00 0. -1.
         22    1    1    0    0    0  0.76716845175E+01 -0.31097506703E+02 -0.22235164838E+01  0.32106910347E+02  0.00000000000E+00 0.  1.
</event>
<event>
 5    1  0.6978980E-004  0.9118800E+02  0.7818608E-02  0.1130116E+00
         25   -1    0    0    0    0  0.00000000000E+00  0.00000000000E+00  0.99999998245E-14  0.12500000000E+03  0.12500000000E+03 0.  0.
        -13    1    3    3    0    0 -0.46729294896E+02  0.31337274804E+02  0.22876488041E+02  0.60737111083E+02  0.10566000000E+00 0.  1.
         23    2    1    0    0    0 -0.14693101267E+02  0.22405950017E+02  0.10411458008E+02  0.96254352001E+02  0.91861787487E+02 0.  0.
         13    1    3    3    0    0  0.32036193629E+02 -0.89313247875E+01 -0.12465030033E+02  0.35517240918E+02  0.10566000000E+00 0. -1.
         22    1    1    0    0    0  0.14693101267E+02 -0.22405950017E+02 -0.10411458008E+02  0.28745647999E+02  0.00000000000E+00 0.  1.
</event>
<event>
 5    1  0.6978980E-004  0.9118800E+02  0.7818608E-02  0.1130116E+00
         25   -1    0    0    0    0  0.00000000000E+00  0.00000000000E+00  0.99999998245E-14  0.12500000000E+03  0.12500000000E+03 0.  0.
        -13    1    3    3    0    0 -0.14785400292E+02 -0.51769103840E+02 -0.11023634805E+02  0.54956163099E+02  0.10566000000E+00 0.  1.
         23    2    1    0    0    0  0.14861582574E+02 -0.22359646415E+02  0.21729053861E-01  0.98151892123E+02  0.94408543209E+02 0.  0.
         13    1    3    3    0    0  0.29646982866E+02  0.29409457425E+02  0.11045363859E+02  0.43195729024E+02  0.10566000000E+00 0. -1.
         22    1    1    0    0    0 -0.14861582574E+02  0.22359646415E+02 -0.21729053861E-01  0.26848107877E+02  0.00000000000E+00 0. -1.
</event>
<event>
 5    1  0.6978980E-004  0.9118800E+02  0.7818608E-02  0.1130116E+00
         25   -1    0    0    0    0  0.00000000000E+00  0.00000000000E+00  0.99999998245E-14  0.12500000000E+03  0.12500000000E+03 0.  0.
        -13    1    3    3    0    0 -0.33148001646E+02 -0.59918872020E+00  0.13325308412E+02  0.35731275496E+02  0.10566000000E+00 0. -1.
         23    2    1    0    0    0  0.21809254685E+02 -0.18572796440E+02 -0.39603485768E+01  0.96081550554E+02  0.91626347949E+02 0.  0.
         13    1    3    3    0    0  0.54957256331E+02 -0.17973607720E+02 -0.17285656989E+02  0.60350275058E+02  0.10566000000E+00 0.  1.
         22    1    1    0    0    0 -0.21809254685E+02  0.18572796440E+02  0.39603485768E+01  0.28918449446E+02  0.00000000000E+00 0.  1.
</event>
<event>
 5    1  0.6978980E-004  0.9118800E+02  0.7818608E-02  0.1130116E+00
         25   -1    0    0    0    0  0.00000000000E+00  0.00000000000E+00  0.99999998245E-14  0.12500000000E+03  0.12500000000E+03 0.  0.
        -13    1    3    3    0    0  0.28122632283E+02  0.40823075706E+02  0.36373013540E+02  0.61485065134E+02  0.10566000000E+00 0. -1.
         23    2    1    0    0    0  0.14697889900E+02  0.11825832683E+02  0.20418253262E+02  0.97201018860E+02  0.93141047423E+02 0.  0.
         13    1    3    3    0    0 -0.13424742382E+02 -0.28997243023E+02 -0.15954760278E+02  0.35715953726E+02  0.10566000000E+00 0.  1.
         22    1    1    0    0    0 -0.14697889900E+02 -0.11825832683E+02 -0.20418253262E+02  0.27798981140E+02  0.00000000000E+00 0. -1.
</event>
<event>
 5    1  0.6978980E-004  0.9118800E+02  0.7818608E-02  0.1130116E+00
         25   -1    0    0    0    0  0.00000000000E+00  0.00000000000E+00  0.99999998245E-14  0.12500000000E+03  0.12500000000E+03 0.  0.
        -13    1    3    3    0    0 -0.39670392703E+02  0.38876554180E+02  0.13414943849E+02  0.57141039583E+02  0.10566000000E+00 0.  1.
         23    2    1    0    0    0 -0.23849049387E+02  0.25868489054E+01  0.14904778845E+02  0.96757808577E+02  0.92544325295E+02 0.  0.
         13    1    3    3    0    0  0.15821343316E+02 -0.36289705274E+02  0.14898349965E+01  0.39616768995E+02  0.10566000000E+00 0. -1.
         22    1    1    0    0    0  0.23849049387E+02 -0.25868489054E+01 -0.14904778845E+02  0.28242191423E+02  0.00000000000E+00 0.  1.
</event>
<event>
 5    1  0.6978980E-004  0.9118800E+02  0.7818608E-02  0.1130116E+00
         25   -1    0    0    0    0  0.00000000000E+00  0.00000000000E+00  0.99999998245E-14  0.12500000000E+03  0.12500000000E+03 0.  0.
        -13    1    3    3    0    0 -0.29911769967E+01  0.40822063431E+02 -0.11266150050E+02  0.42453801992E+02  0.10566000000E+00 0. -1.
         23    2    1    0    0    0 -0.18208601715E+02  0.25139475608E+01  0.22647399706E+02  0.95831904035E+02  0.91285135749E+02 0.  0.
         13    1    3    3    0    0 -0.15217424719E+02 -0.38308115870E+02  0.33913549756E+02  0.53378102043E+02  0.10566000000E+00 0.  1.
         22    1    1    0    0    0  0.18208601715E+02 -0.25139475608E+01 -0.22647399706E+02  0.29168095965E+02  0.00000000000E+00 0. -1.
</event>
<event>
 5    1  0.6978980E-004  0.9118800E+02  0.7818608E-02  0.1130116E+00
         25   -1    0    0    0    0  0.00000000000E+00  0.00000000000E+00  0.99999998245E-14  0.12500000000E+03  0.12500000000E+03 0.  0.
        -13    1    3    3    0    0  0.32137111375E+02 -0.37110771358E+02  0.34001714098E+02  0.59717091389E+02  0.10566000000E+00 0.  1.
         23    2    1    0    0    0  0.13659733608E+02 -0.73540135620E+01  0.24485292359E+02  0.96013807087E+02  0.91533883189E+02 0.  0.
         13    1    3    3    0    0 -0.18477377767E+02  0.29756757796E+02 -0.95164217392E+01  0.36296715698E+02  0.10566000000E+00 0. -1.
         22    1    1    0    0    0 -0.13659733608E+02  0.73540135620E+01 -0.24485292359E+02  0.28986192913E+02  0.00000000000E+00 0.  1.
</event>
<event>
 5    1  0.6978980E-004  0.9118800E+02  0.7818608E-02  0.1130116E+00
         25   -1    0    0    0    0  0.00000000000E+00  0.00000000000E+00  0.99999998245E-14  0.12500000000E+03  0.12500000000E+03 0.  0.
        -13    1    3    3    0    0  0.57616639957E+02  0.16756241172E+02  0.17917221887E+01  0.60030577630E+02  0.10566000000E+00 0. -1.
         23    2    1    0    0    0  0.26795478752E+02  0.33321995224E+01  0.12406338369E+02  0.95284373354E+02  0.90532277882E+02 0.  0.
         13    1    3    3    0    0 -0.30821161205E+02 -0.13424041649E+02  0.10614616181E+02  0.35253795724E+02  0.10566000000E+00 0.  1.
         22    1    1    0    0    0 -0.26795478752E+02 -0.33321995224E+01 -0.12406338369E+02  0.29715626646E+02  0.00000000000E+00 0. -1.
</event>
<event>
 5    1  0.6978980E-004  0.9118800E+02  0.7818608E-02  0.1130116E+00
         25   -1    0    0    0    0  0.00000000000E+00  0.00000000000E+00  0.99999998245E-14  0.12500000000E+03  0.12500000000E+03 0.  0.
        -13    1    3    3    0    0 -0.15809310020E+02 -0.16981274535E+02 -0.28582465429E+02  0.36813943855E+02  0.10566000000E+00 0.  1.
         23    2    1    0    0    0 -0.81852276255E+00  0.26351599532E+02  0.10063348268E+02  0.96780365775E+02  0.92574788381E+02 0.  0.
         13    1    3    3    0    0  0.14990787258E+02  0.43332874067E+02  0.38645813697E+02  0.59966421920E+02  0.10566000000E+00 0. -1.
         22    1    1    0    0    0  0.81852276255E+00 -0.26351599532E+02 -0.10063348268E+02  0.28219634225E+02  0.00000000000E+00 0. -1.
</event>
<event>
 5    1  0.6978980E-004  0.9118800E+02  0.7818608E-02  0.1130116E+00
         25   -1    0    0    0    0  0.00000000000E+00  0.00000000000E+00  0.99999998245E-14  0.12500000000E+03  0.12500000000E+03 0.  0.
        -13    1    3    3    0    0  0.15678090942E+02  0.12900946666E+02 -0.28887662448E+02  0.35309278755E+02  0.10566000000E+00 0.  1.
         23    2    1    0    0    0 -0.53863790761E+01 -0.56025169184E+01  0.26497212185E+02  0.97386533558E+02  0.93389685670E+02 0.  0.
         13    1    3    3    0    0 -0.21064470018E+02 -0.18503463584E+02  0.55384874633E+02  0.62077254803E+02  0.10566000000E+00 0. -1.
         22    1    1    0    0    0  0.53863790761E+01  0.56025169184E+01 -0.26497212185E+02  0.27613466442E+02  0.00000000000E+00 0. -1.
</event>
<event>
 5    1  0.6978980E-004  0.9118800E+02  0.7818608E-02  0.1130116E+00
         25   -1    0    0    0    0  0.00000000000E+00  0.00000000000E+00  0.99999998245E-14  0.12500000000E+03  0.12500000000E+03 0.  0.
        -13    1    3    3    0    0 -0.15092797040E+02  0.37888049045E+02  0.42366252388E+02  0.58806524200E+02  0.10566000000E+00 0. -1.
         23    2    1    0    0    0 -0.18576729012E+02  0.73370171245E+01  0.19079585228E+02  0.97378319140E+02  0.93378690208E+02 0.  0.
         13    1    3    3    0    0 -0.34839319721E+01 -0.30551031921E+02 -0.23286667161E+02  0.38571794940E+02  0.10566000000E+00 0.  1.
         22    1    1    0    0    0  0.18576729012E+02 -0.73370171245E+01 -0.19079585228E+02  0.27621680860E+02  0.00000000000E+00 0. -1.
</event>
<event>
 5    1  0.6978980E-004  0.9118800E+02  0.7818608E-02  0.1130116E+00
         25   -1    0    0    0    0  0.00000000000E+00  0.00000000000E+00  0.99999998245E-14  0.12500000000E+03  0.12500000000E+03 0.  0.
        -13    1    3    3    0    0  0.52718680000E+02  0.18183465064E+02 -0.25224289466E+02  0.61205992891E+02  0.10566000000E+00 0. -1.
         23    2    1    0    0    0  0.14977833004E+02  0.13848597571E+02 -0.11395767377E+02  0.10163372836E+03  0.98911233388E+02 0.  0.
         13    1    3    3    0    0 -0.37740846995E+02 -0.43348674930E+01  0.13828522089E+02  0.40427735471E+02  0.10566000000E+00 0.  1.
         22    1    1    0    0    0 -0.14977833004E+02 -0.13848597571E+02  0.11395767377E+02  0.23366271639E+02  0.00000000000E+00 0. -1.
</event>
<event>
 5    1  0.6978980E-004  0.9118800E+02  0.7818608E-02  0.1130116E+00
         25   -1    0    0    0    0  0.00000000000E+00  0.00000000000E+00  0.99999998245E-14  0.12500000000E+03  0.12500000000E+03 0.  0.
        -13    1    3    3    0    0  0.33648585999E+02  0.36389853513E+01 -0.21455347722E+02  0.40072592430E+02  0.10566000000E+00 0.  1.
         23    2    1    0    0    0  0.81458308475E+01  0.56122306571E+01  0.27755564835E+02  0.95534374732E+02  0.90876804977E+02 0.  0.
         13    1    3    3    0    0 -0.25502755152E+02  0.19732453058E+01  0.49210912557E+02  0.55461782302E+02  0.10566000000E+00 0. -1.
         22    1    1    0    0    0 -0.81458308475E+01 -0.56122306571E+01 -0.27755564835E+02  0.29465625268E+02  0.00000000000E+00 0. -1.
</event>
<event>
 5    1  0.6978980E-004  0.9118800E+02  0.7818608E-02  0.1130116E+00
         25   -1    0    0    0    0  0.00000000000E+00  0.00000000000E+00  0.99999998245E-14  0.12500000000E+03  0.12500000000E+03 0.  0.
        -13    1    3    3    0    0 -0.50356998575E+00 -0.10695258219E+02 -0.47711350053E+02  0.48898120813E+02  0.10566000000E+00 0.  1.
         23    2    1    0    0    0 -0.19426131444E+02 -0.22620312351E+02 -0.85760942395E+01  0.93974163893E+02  0.88704796788E+02 0.  0.
         13    1    3    3    0    0 -0.18922561458E+02 -0.11925054131E+02  0.39135255813E+02  0.45076043081E+02  0.10566000000E+00 0. -1.
         22    1    1    0    0    0  0.19426131444E+02  0.22620312351E+02  0.85760942395E+01  0.31025836107E+02  0.00000000000E+00 0.  1.
</event>
<event>
 5    1  0.6978980E-004  0.9118800E+02  0.7818608E-02  0.1130116E+00
         25   -1    0    0    0    0  0.00000000000E+00  0.00000000000E+00  0.99999998245E-14  0.12500000000E+03  0.12500000000E+03 0.  0.
        -13    1    3    3    0    0  0.42423782684E+02  0.80782137456E+01  0.43919021101E+02  0.61594857359E+02  0.10566000000E+00 0. -1.
         23    2    1    0    0    0  0.22302247390E+02 -0.30772988572E+01  0.18686903722E+02  0.95741490509E+02  0.91161245205E+02 0.  0.
         13    1    3    3    0    0 -0.20121535294E+02 -0.11155512603E+02 -0.25232117379E+02  0.34146633150E+02  0.10566000000E+00 0.  1.
         22    1    1    0    0    0 -0.22302247390E+02  0.30772988572E+01 -0.18686903722E+02  0.29258509491E+02  0.00000000000E+00 0. -1.
</event>
<event>
 5    1  0.6978980E-004  0.9118800E+02  0.7818608E-02  0.1130116E+00
         25   -1    0    0    0    0  0.00000000000E+00  0.00000000000E+00  0.99999998245E-14  0.12500000000E+03  0.12500000000E+03 0.  0.
        -13    1    3    3    0    0  0.33837242248E+02  0.28481597099E+02 -0.35274900273E+02  0.56572874150E+02  0.10566000000E+00 0. -1.
         23    2    1    0    0    0  0.21652233020E+02 -0.52622543476E+01 -0.17808686082E+02  0.96475277117E+02  0.92161918813E+02 0.  0.
         13    1    3    3    0    0 -0.12185009227E+02 -0.33743851447E+02  0.17466214191E+02  0.39902402967E+02  0.10566000000E+00 0.  1.
         22    1    1    0    0    0 -0.21652233020E+02  0.52622543476E+01  0.17808686082E+02  0.28524722883E+02  0.00000000000E+00 0. -1.
</event>
<event>
 5    1  0.6978980E-004  0.9118800E+02  0.7818608E-02  0.1130116E+00
         25   -1    0    0    0    0  0.00000000000E+00  0.00000000000E+00  0.99999998245E-14  0.12500000000E+03  0.12500000000E+03 0.  0.
        -13    1    3    3    0    0 -0.98628543540E+01  0.24620633348E+02 -0.25390976888E+02  0.36717357664E+02  0.10566000000E+00 0.  1.
         23    2    1    0    0    0  0.28505353625E+02 -0.11033391744E+02 -0.12015970394E+01  0.94410218143E+02  0.89317157006E+02 0.  0.
         13    1    3    3    0    0  0.38368207979E+02 -0.35654025092E+02  0.24189379849E+02  0.57692860479E+02  0.10566000000E+00 0. -1.
         22    1    1    0    0    0 -0.28505353625E+02  0.11033391744E+02  0.12015970394E+01  0.30589781857E+02  0.00000000000E+00 0. -1.
</event>
<event>
 5    1  0.6978980E-004  0.9118800E+02  0.7818608E-02  0.1130116E+00
         25   -1    0    0    0    0  0.00000000000E+00  0.00000000000E+00  0.99999998245E-14  0.12500000000E+03  0.12500000000E+03 0.  0.
        -13    1    3    3    0    0 -0.29394813248E+02 -0.17089765465E+02  0.15270192369E+02  0.37273382842E+02  0.10566000000E+00 0. -1.
         23    2    1    0    0    0  0.23890610788E+02  0.44410550884E+01  0.17922505164E+02  0.94805622287E+02  0.89868824248E+02 0.  0.
         13    1    3    3    0    0  0.53285424035E+02  0.21530820553E+02  0.26523127951E+01  0.57532239445E+02  0.10566000000E+00 0.  1.
         22    1    1    0    0    0 -0.23890610788E+02 -0.44410550884E+01 -0.17922505164E+02  0.30194377713E+02  0.00000000000E+00 0.  1.
</event>
<event>
 5    1  0.6978980E-004  0.9118800E+02  0.7818608E-02  0.1130116E+00
         25   -1    0    0    0    0  0.00000000000E+00  0.00000000000E+00  0.99999998245E-14  0.12500000000E+03  0.12500000000E+03 0.  0.
        -13    1    3    3    0    0 -0.56098453132E+02  0.15114411837E+02  0.45157213167E+01  0.58274220647E+02  0.10566000000E+00 0. -1.
         23    2    1    0    0    0 -0.22056684909E+02  0.11903345557E+02  0.17044008425E+02  0.94690179680E+02  0.89708109555E+02 0.  0.
         13    1    3    3    0    0  0.34041768223E+02 -0.32110662797E+01  0.12528287108E+02  0.36415959033E+02  0.10566000000E+00 0.  1.
         22    1    1    0    0    0  0.22056684909E+02 -0.11903345557E+02 -0.17044008425E+02  0.30309820320E+02  0.00000000000E+00 0. -1.
</event>
<event>
 5    1  0.6978980E-004  0.9118800E+02  0.7818608E-02  0.1130116E+00
         25   -1    0    0    0    0  0.00000000000E+00  0.00000000000E+00  0.99999998245E-14  0.12500000000E+03  0.12500000000E+03 0.  0.
        -13    1    3    3    0    0 -0.39241776666E+01 -0.36258249649E+02 -0.69554922362E+01  0.37127481388E+02  0.10566000000E+00 0.  1.
         23    2    1    0    0    0  0.11643090180E+02  0.19076227990E+02  0.14360599609E+02  0.98435157738E+02  0.94782854117E+02 0.  0.
         13    1    3    3    0    0  0.15567267847E+02  0.55334477639E+02  0.21316091845E+02  0.61307676350E+02  0.10566000000E+00 0. -1.
         22    1    1    0    0    0 -0.11643090180E+02 -0.19076227990E+02 -0.14360599609E+02  0.26564842262E+02  0.00000000000E+00 0. -1.
</event>
<event>
 5    1  0.6978980E-004  0.9118800E+02  0.7818608E-02  0.1130116E+00
         25   -1    0    0    0    0  0.00000000000E+00  0.00000000000E+00  0.99999998245E-14  0.12500000000E+03  0.12500000000E+03 0.  0.
        -13    1    3    3    0    0 -0.86885729523E+00  0.88280248915E+00  0.36175961248E+02  0.36197314672E+02  0.10566000000E+00 0. -1.
         23    2    1    0    0    0  0.64674427946E+01 -0.25154572650E+02 -0.15662986048E+02  0.94669990547E+02  0.89679973443E+02 0.  0.
         13    1    3    3    0    0  0.73363000899E+01 -0.26037375139E+02 -0.51838947296E+02  0.58472675874E+02  0.10566000000E+00 0.  1.
         22    1    1    0    0    0 -0.64674427946E+01  0.25154572650E+02  0.15662986048E+02  0.30330009453E+02  0.00000000000E+00 0.  1.
</event>
<event>
 5    1  0.6978980E-004  0.9118800E+02  0.7818608E-02  0.1130116E+00
         25   -1    0    0    0    0  0.00000000000E+00  0.00000000000E+00  0.99999998245E-14  0.12500000000E+03  0.12500000000E+03 0.  0.
        -13    1    3    3    0    0 -0.10679321468E+02 -0.22296709699E+02 -0.49951033478E+02  0.55734263070E+02  0.10566000000E+00 0.  1.
         23    2    1    0    0    0 -0.53024383695E+01 -0.26536195743E+02 -0.10184423430E+02  0.96086196761E+02  0.91632686255E+02 0.  0.
         13    1    3    3    0    0  0.53768830988E+01 -0.42394860436E+01  0.39766610049E+02  0.40351933691E+02  0.10566000000E+00 0. -1.
         22    1    1    0    0    0  0.53024383695E+01  0.26536195743E+02  0.10184423430E+02  0.28913803239E+02  0.00000000000E+00 0.  1.
</event>
<event>
 5    1  0.6978980E-004  0.9118800E+02  0.7818608E-02  0.1130116E+00
         25   -1    0    0    0    0  0.00000000000E+00  0.00000000000E+00  0.99999998245E-14  0.12500000000E+03  0.12500000000E+03 0.  0.
        -13    1    3    3    0    0  0.94181452238E+01 -0.37427285928E+02  0.15606823761E+01  0.38625769700E+02  0.10566000000E+00 0.  1.
         23    2    1    0    0    0 -0.82461366210E+01  0.10620988343E+02 -0.25234272342E+02  0.96406772425E+02  0.92068958429E+02 0.  0.
         13    1    3    3    0    0 -0.17664281845E+02  0.48048274271E+02 -0.26794954718E+02  0.57781002725E+02  0.10566000000E+00 0. -1.
         22    1    1    0    0    0  0.82461366210E+01 -0.10620988343E+02  0.25234272342E+02  0.28593227575E+02  0.00000000000E+00 0. -1.
</event>
<event>
 5    1  0.6978980E-004  0.9118800E+02  0.7818608E-02  0.1130116E+00
         25   -1    0    0    0    0  0.00000000000E+00  0.00000000000E+00  0.99999998245E-14  0.12500000000E+03  0.12500000000E+03 0.  0.
        -13    1    3    3    0    0  0.26977995905E+02  0.34271603160E+02 -0.23169405939E+02  0.49388131994E+02  0.10566000000E+00 0. -1.
         23    2    1    0    0    0 -0.13267423169E+01 -0.34878963954E+01 -0.27933293794E+02  0.96818542113E+02  0.92626322006E+02 0.  0.
         13    1    3    3    0    0 -0.28304738222E+02 -0.37759499556E+02 -0.47638878548E+01  0.47430410119E+02  0.10566000000E+00 0.  1.
         22    1    1    0    0    0  0.13267423169E+01  0.34878963954E+01  0.27933293794E+02  0.28181457887E+02  0.00000000000E+00 0. -1.
</event>
<event>
 5    1  0.6978980E-004  0.9118800E+02  0.7818608E-02  0.1130116E+00
         25   -1    0    0    0    0  0.00000000000E+00  0.00000000000E+00  0.99999998245E-14  0.12500000000E+03  0.12500000000E+03 0.  0.
        -13    1    3    3    0    0 -0.26224823579E+02 -0.26173615187E+02 -0.76947667300E+01  0.37842041472E+02  0.10566000000E+00 0.  1.
         23    2    1    0    0    0 -0.28356991525E+02  0.20180102305E+02 -0.18640037482E+02  0.85518276447E+02  0.75858876289E+02 0.  0.
         13    1    3    3    0    0 -0.21321679455E+01  0.46353717492E+02 -0.10945270752E+02  0.47676234975E+02  0.10566000000E+00 0. -1.
         22    1    1    0    0    0  0.28356991525E+02 -0.20180102305E+02  0.18640037482E+02  0.39481723553E+02  0.00000000000E+00 0. -1.
</event>
<event>
 5    1  0.6978980E-004  0.9118800E+02  0.7818608E-02  0.1130116E+00
         25   -1    0    0    0    0  0.00000000000E+00  0.00000000000E+00  0.99999998245E-14  0.12500000000E+03  0.12500000000E+03 0.  0.
        -13    1    3    3    0    0  0.93495329936E+01 -0.85500335647E+01 -0.34174270175E+02  0.36447342114E+02  0.10566000000E+00 0.  1.
         23    2    1    0    0    0  0.32925498253E+01  0.26594054756E+02  0.12700138116E+02  0.95345689338E+02  0.90616898724E+02 0.  0.
         13    1    3    3    0    0 -0.60569831684E+01  0.35144088321E+02  0.46874408291E+02  0.58898347223E+02  0.10566000000E+00 0. -1.
         22    1    1    0    0    0 -0.32925498253E+01 -0.26594054756E+02 -0.12700138116E+02  0.29654310662E+02  0.00000000000E+00 0. -1.
</event>
<event>
 5    1  0.6978980E-004  0.9118800E+02  0.7818608E-02  0.1130116E+00
         25   -1    0    0    0    0  0.00000000000E+00  0.00000000000E+00  0.99999998245E-14  0.12500000000E+03  0.12500000000E+03 0.  0.
        -13    1    3    3    0    0 -0.13823441765E+02 -0.18313300588E+02  0.31244682515E+02  0.38764750356E+02  0.10566000000E+00 0. -1.
         23    2    1    0    0    0 -0.14818153051E+02 -0.38662310757E+01 -0.24361017647E+02  0.96225278744E+02  0.91822217823E+02 0.  0.
         13    1    3    3    0    0 -0.99471128551E+00  0.14447069512E+02 -0.55605700162E+02  0.57460528388E+02  0.10566000000E+00 0.  1.
         22    1    1    0    0    0  0.14818153051E+02  0.38662310757E+01  0.24361017647E+02  0.28774721256E+02  0.00000000000E+00 0.  1.
</event>
<event>
 5    1  0.6978980E-004  0.9118800E+02  0.7818608E-02  0.1130116E+00
         25   -1    0    0    0    0  0.00000000000E+00  0.00000000000E+00  0.99999998245E-14  0.12500000000E+03  0.12500000000E+03 0.  0.
        -13    1    3    3    0    0  0.87260998338E+01 -0.10717859229E+02  0.48119985461E+02  0.50065571899E+02  0.10566000000E+00 0.  1.
         23    2    1    0    0    0  0.39361911065E+01 -0.27186926147E+02  0.42070139621E+01  0.97209326741E+02  0.93152196352E+02 0.  0.
         13    1    3    3    0    0 -0.47899087273E+01 -0.16469066917E+02 -0.43912971499E+02  0.47143754842E+02  0.10566000000E+00 0. -1.
         22    1    1    0    0    0 -0.39361911065E+01  0.27186926147E+02 -0.42070139621E+01  0.27790673259E+02  0.00000000000E+00 0.  1.
</event>
<event>
 5    1  0.6978980E-004  0.9118800E+02  0.7818608E-02  0.1130116E+00
         25   -1    0    0    0    0  0.00000000000E+00  0.00000000000E+00  0.99999998245E-14  0.12500000000E+03  0.12500000000E+03 0.  0.
        -13    1    3    3    0    0  0.33333584146E+02  0.15849116398E+02  0.18694847640E+02  0.41374277213E+02  0.10566000000E+00 0.  1.
         23    2    1    0    0    0  0.64618042084E+01  0.53706366025E+01 -0.27727624844E+02  0.96027257109E+02  0.91552248892E+02 0.  0.
         13    1    3    3    0    0 -0.26871779937E+02 -0.10478479795E+02 -0.46422472484E+02  0.54652979895E+02  0.10566000000E+00 0. -1.
         22    1    1    0    0    0 -0.64618042084E+01 -0.53706366025E+01  0.27727624844E+02  0.28972742891E+02  0.00000000000E+00 0. -1.
</event>
<event>
 5    1  0.6978980E-004  0.9118800E+02  0.7818608E-02  0.1130116E+00
         25   -1    0    0    0    0  0.00000000000E+00  0.00000000000E+00  0.99999998245E-14  0.12500000000E+03  0.12500000000E+03 0.  0.
        -13    1    3    3    0    0  0.43858620718E+02  0.53180028411E+01  0.39361888462E+02  0.59171185494E+02  0.10566000000E+00 0.  1.
         23    2    1    0    0    0  0.26128318113E+02 -0.71449163849E+01  0.90365816167E+01  0.96444814046E+02  0.92120592223E+02 0.  0.
         13    1    3    3    0    0 -0.17730302605E+02 -0.12462919226E+02 -0.30325306845E+02  0.37273628552E+02  0.10566000000E+00 0. -1.
         22    1    1    0    0    0 -0.26128318113E+02  0.71449163849E+01 -0.90365816167E+01  0.28555185954E+02  0.00000000000E+00 0.  1.
</event>
<event>
 5    1  0.6978980E-004  0.9118800E+02  0.7818608E-02  0.1130116E+00
         25   -1    0    0    0    0  0.00000000000E+00  0.00000000000E+00  0.99999998245E-14  0.12500000000E+03  0.12500000000E+03 0.  0.
        -13    1    3    3    0    0  0.87792132061E+01 -0.49506123471E+02  0.18859750237E+02  0.53699461717E+02  0.10566000000E+00 0.  1.
         23    2    1    0    0    0 -0.19295127713E+02 -0.21828504275E+02  0.53139788697E+01  0.95385410289E+02  0.90671674586E+02 0.  0.
         13    1    3    3    0    0 -0.28074340919E+02  0.27677619196E+02 -0.13545771367E+02  0.41685948572E+02  0.10566000000E+00 0. -1.
         22    1    1    0    0    0  0.19295127713E+02  0.21828504275E+02 -0.53139788697E+01  0.29614589711E+02  0.00000000000E+00 0. -1.
</event>
<event>
 5    1  0.6978980E-004  0.9118800E+02  0.7818608E-02  0.1130116E+00
         25   -1    0    0    0    0  0.00000000000E+00  0.00000000000E+00  0.99999998245E-14  0.12500000000E+03  0.12500000000E+03 0.  0.
        -13    1    3    3    0    0  0.67884461642E+01 -0.34613836416E+02 -0.28421727593E+01  0.35387706662E+02  0.10566000000E+00 0.  1.
         23    2    1    0    0    0  0.61343830055E+01  0.24919097165E+02 -0.13704244622E+02  0.95907073385E+02  0.91388009861E+02 0.  0.
         13    1    3    3    0    0 -0.65406315864E+00  0.59532933581E+02 -0.10862071863E+02  0.60519366723E+02  0.10566000000E+00 0. -1.
         22    1    1    0    0    0 -0.61343830055E+01 -0.24919097165E+02  0.13704244622E+02  0.29092926615E+02  0.00000000000E+00 0. -1.
</event>
<event>
 5    1  0.6978980E-004  0.9118800E+02  0.7818608E-02  0.1130116E+00
         25   -1    0    0    0    0  0.00000000000E+00  0.00000000000E+00  0.99999998245E-14  0.12500000000E+03  0.12500000000E+03 0.  0.
        -13    1    3    3    0    0 -0.42393305272E+02  0.30027392653E+01  0.35046989311E+02  0.55086399400E+02  0.10566000000E+00 0.  1.
         23    2    1    0    0    0 -0.11793440653E+02 -0.18621626061E+02  0.19196174010E+02  0.95770848520E+02  0.91201491929E+02 0.  0.
         13    1    3    3    0    0  0.30599864619E+02 -0.21624365327E+02 -0.15850815302E+02  0.40684449121E+02  0.10566000000E+00 0. -1.
         22    1    1    0    0    0  0.11793440653E+02  0.18621626061E+02 -0.19196174010E+02  0.29229151480E+02  0.00000000000E+00 0.  1.
</event>
<event>
 5    1  0.6978980E-004  0.9118800E+02  0.7818608E-02  0.1130116E+00
         25   -1    0    0    0    0  0.00000000000E+00  0.00000000000E+00  0.99999998245E-14  0.12500000000E+03  0.12500000000E+03 0.  0.
        -13    1    3    3    0    0  0.37539061761E+02 -0.28129643760E+02 -0.31508299277E+02  0.56508778993E+02  0.10566000000E+00 0. -1.
         23    2    1    0    0    0  0.81526672895E+01 -0.33596820807E+01 -0.28622168944E+02  0.95050342194E+02  0.90208566935E+02 0.  0.
         13    1    3    3    0    0 -0.29386394471E+02  0.24769961679E+02  0.28861303331E+01  0.38541563201E+02  0.10566000000E+00 0.  1.
         22    1    1    0    0    0 -0.81526672895E+01  0.33596820807E+01  0.28622168944E+02  0.29949657806E+02  0.00000000000E+00 0. -1.
</event>
<event>
 5    1  0.6978980E-004  0.9118800E+02  0.7818608E-02  0.1130116E+00
         25   -1    0    0    0    0  0.00000000000E+00  0.00000000000E+00  0.99999998245E-14  0.12500000000E+03  0.12500000000E+03 0.  0.
        -13    1    3    3    0    0 -0.94596274839E+01 -0.81975864706E+01  0.38113271595E+02  0.40116301073E+02  0.10566000000E+00 0.  1.
         23    2    1    0    0    0  0.30006449641E+02 -0.93008403634E+00  0.71545373225E+00  0.94970615217E+02  0.90098023310E+02 0.  0.
         13    1    3    3    0    0  0.39466077125E+02  0.72675024343E+01 -0.37397817863E+02  0.54854314144E+02  0.10566000000E+00 0. -1.
         22    1    1    0    0    0 -0.30006449641E+02  0.93008403634E+00 -0.71545373225E+00  0.30029384783E+02  0.00000000000E+00 0. -1.
</event>
<event>
 5    1  0.6978980E-004  0.9118800E+02  0.7818608E-02  0.1130116E+00
         25   -1    0    0    0    0  0.00000000000E+00  0.00000000000E+00  0.99999998245E-14  0.12500000000E+03  0.12500000000E+03 0.  0.
        -13    1    3    3    0    0  0.59223624120E+01  0.30615807868E+02 -0.19792999534E+02  0.36934754129E+02  0.10566000000E+00 0.  1.
         23    2    1    0    0    0 -0.43268188280E+01 -0.17732933747E+01  0.28577051406E+02  0.96042897285E+02  0.91573600569E+02 0.  0.
         13    1    3    3    0    0 -0.10249181240E+02 -0.32389101243E+02  0.48370050940E+02  0.59108143156E+02  0.10566000000E+00 0. -1.
         22    1    1    0    0    0  0.43268188280E+01  0.17732933747E+01 -0.28577051406E+02  0.28957102715E+02  0.00000000000E+00 0. -1.
</event>
<event>
 5    1  0.6978980E-004  0.9118800E+02  0.7818608E-02  0.1130116E+00
         25   -1    0    0    0    0  0.00000000000E+00  0.00000000000E+00  0.99999998245E-14  0.12500000000E+03  0.12500000000E+03 0.  0.
        -13    1    3    3    0    0 -0.18548539988E+02  0.22443318336E+02 -0.49693058445E+02  0.57594809622E+02  0.10566000000E+00 0. -1.
         23    2    1    0    0    0 -0.13729937324E+01 -0.58401434814E+01 -0.26061159234E+02  0.98257217642E+02  0.94547894796E+02 0.  0.
         13    1    3    3    0    0  0.17175546256E+02 -0.28283461818E+02  0.23631899212E+02  0.40662408020E+02  0.10566000000E+00 0.  1.
         22    1    1    0    0    0  0.13729937324E+01  0.58401434814E+01  0.26061159234E+02  0.26742782358E+02  0.00000000000E+00 0. -1.
</event>
<event>
 5    1  0.6978980E-004  0.9118800E+02  0.7818608E-02  0.1130116E+00
         25   -1    0    0    0    0  0.00000000000E+00  0.00000000000E+00  0.99999998245E-14  0.12500000000E+03  0.12500000000E+03 0.  0.
        -13    1    3    3    0    0  0.20400761826E+02 -0.48393883345E+02  0.14045610256E+02  0.54364044733E+02  0.10566000000E+00 0.  1.
         23    2    1    0    0    0  0.22998730672E+02 -0.34881190452E+01  0.10481121565E+02  0.99486033310E+02  0.96158766254E+02 0.  0.
         13    1    3    3    0    0  0.25979688460E+01  0.44905764300E+02 -0.35644886902E+01  0.45121988577E+02  0.10566000000E+00 0. -1.
         22    1    1    0    0    0 -0.22998730672E+02  0.34881190452E+01 -0.10481121565E+02  0.25513966690E+02  0.00000000000E+00 0.  1.
</event>
<event>
 5    1  0.6978980E-004  0.9118800E+02  0.7818608E-02  0.1130116E+00
         25   -1    0    0    0    0  0.00000000000E+00  0.00000000000E+00  0.99999998245E-14  0.12500000000E+03  0.12500000000E+03 0.  0.
        -13    1    3    3    0    0 -0.32748552390E+02 -0.12807619889E+02 -0.30140107637E+01  0.35293033814E+02  0.10566000000E+00 0.  1.
         23    2    1    0    0    0  0.11651701301E+02  0.26403532186E+02  0.68330713802E+01  0.95341956915E+02  0.90611749949E+02 0.  0.
         13    1    3    3    0    0  0.44400253691E+02  0.39211152076E+02  0.98470821439E+01  0.60048923102E+02  0.10566000000E+00 0. -1.
         22    1    1    0    0    0 -0.11651701301E+02 -0.26403532186E+02 -0.68330713802E+01  0.29658043085E+02  0.00000000000E+00 0. -1.
</event>
<event>
 5    1  0.6978980E-004  0.9118800E+02  0.7818608E-02  0.1130116E+00
         25   -1    0    0    0    0  0.00000000000E+00  0.00000000000E+00  0.99999998245E-14  0.12500000000E+03  0.12500000000E+03 0.  0.
        -13    1    3    3    0    0 -0.51674829453E+02 -0.33846610095E+02  0.60301998256E+01  0.62066540808E+02  0.10566000000E+00 0. -1.
         23    2    1    0    0    0 -0.22336072880E+02 -0.20847664114E+02  0.28054713894E+01  0.94317824059E+02  0.89187757090E+02 0.  0.
         13    1    3    3    0    0  0.29338756572E+02  0.12998945981E+02 -0.32247284362E+01  0.32251283251E+02  0.10566000000E+00 0.  1.
         22    1    1    0    0    0  0.22336072880E+02  0.20847664114E+02 -0.28054713894E+01  0.30682175941E+02  0.00000000000E+00 0. -1.
</event>
<event>
 5    1  0.6978980E-004  0.9118800E+02  0.7818608E-02  0.1130116E+00
         25   -1    0    0    0    0  0.00000000000E+00  0.00000000000E+00  0.99999998245E-14  0.12500000000E+03  0.12500000000E+03 0.  0.
        -13    1    3    3    0    0 -0.22251208962E+02  0.56217944104E+02  0.12660247855E+02  0.61772700923E+02  0.10566000000E+00 0.  1.
         23    2    1    0    0    0 -0.64895040643E+01  0.25860270763E+02  0.11403804267E+02  0.96001482474E+02  0.91517050971E+02 0.  0.
         13    1    3    3    0    0  0.15761704898E+02 -0.30357673340E+02 -0.12564435881E+01  0.34228781551E+02  0.10566000000E+00 0. -1.
         22    1    1    0    0    0  0.64895040643E+01 -0.25860270763E+02 -0.11403804267E+02  0.28998517526E+02  0.00000000000E+00 0.  1.
</event>
<event>
 5    1  0.6978980E-004  0.9118800E+02  0.7818608E-02  0.1130116E+00
         25   -1    0    0    0    0  0.00000000000E+00  0.00000000000E+00  0.99999998245E-14  0.12500000000E+03  0.12500000000E+03 0.  0.
        -13    1    3    3    0    0 -0.62437629413E+01 -0.33712745768E+01  0.47444520524E+02  0.47972322851E+02  0.10566000000E+00 0. -1.
         23    2    1    0    0    0  0.14043890179E+02 -0.25835528038E+02  0.16405657049E+02  0.91327296759E+02  0.84893016142E+02 0.  0.
         13    1    3    3    0    0  0.20287653120E+02 -0.22464253461E+02 -0.31038863475E+02  0.43354973908E+02  0.10566000000E+00 0.  1.
         22    1    1    0    0    0 -0.14043890179E+02  0.25835528038E+02 -0.16405657049E+02  0.33672703241E+02  0.00000000000E+00 0.  1.
</event>
<event>
 5    1  0.6978980E-004  0.9118800E+02  0.7818608E-02  0.1130116E+00
         25   -1    0    0    0    0  0.00000000000E+00  0.00000000000E+00  0.99999998245E-14  0.12500000000E+03  0.12500000000E+03 0.  0.
        -13    1    3    3    0    0 -0.29030960089E+02  0.28512022380E+02 -0.23867033404E+02  0.47173917703E+02  0.10566000000E+00 0.  1.
         23    2    1    0    0    0 -0.12993760771E+02 -0.17387540755E+02 -0.19204448233E+02  0.96017673930E+02  0.91539163654E+02 0.  0.
         13    1    3    3    0    0  0.16037199318E+02 -0.45899563135E+02  0.46625851708E+01  0.48843756228E+02  0.10566000000E+00 0. -1.
         22    1    1    0    0    0  0.12993760771E+02  0.17387540755E+02  0.19204448233E+02  0.28982326070E+02  0.00000000000E+00 0.  1.
</event>
<event>
 5    1  0.6978980E-004  0.9118800E+02  0.7818608E-02  0.1130116E+00
         25   -1    0    0    0    0  0.00000000000E+00  0.00000000000E+00  0.99999998245E-14  0.12500000000E+03  0.12500000000E+03 0.  0.
        -13    1    3    3    0    0  0.63149003046E+01  0.48246549999E+02 -0.26168652259E+02  0.55248683946E+02  0.10566000000E+00 0. -1.
         23    2    1    0    0    0 -0.72726894374E+01  0.27600586741E+02  0.60174652325E+01  0.95829907646E+02  0.91282401982E+02 0.  0.
         13    1    3    3    0    0 -0.13587589742E+02 -0.20645963258E+02  0.32186117491E+02  0.40581223701E+02  0.10566000000E+00 0.  1.
         22    1    1    0    0    0  0.72726894374E+01 -0.27600586741E+02 -0.60174652325E+01  0.29170092354E+02  0.00000000000E+00 0. -1.
</event>
<event>
 5    1  0.6978980E-004  0.9118800E+02  0.7818608E-02  0.1130116E+00
         25   -1    0    0    0    0  0.00000000000E+00  0.00000000000E+00  0.99999998245E-14  0.12500000000E+03  0.12500000000E+03 0.  0.
        -13    1    3    3    0    0  0.22623929977E+02 -0.30460943776E+02 -0.17064305900E+02  0.41604242611E+02  0.10566000000E+00 0. -1.
         23    2    1    0    0    0  0.12166315783E+02  0.22673551866E+02 -0.13665900207E+02  0.95864694572E+02  0.91330025966E+02 0.  0.
         13    1    3    3    0    0 -0.10457614194E+02  0.53134495642E+02  0.33984056930E+01  0.54260451961E+02  0.10566000000E+00 0.  1.
         22    1    1    0    0    0 -0.12166315783E+02 -0.22673551866E+02  0.13665900207E+02  0.29135305428E+02  0.00000000000E+00 0.  1.
</event>
<event>
 5    1  0.6978980E-004  0.9118800E+02  0.7818608E-02  0.1130116E+00
         25   -1    0    0    0    0  0.00000000000E+00  0.00000000000E+00  0.99999998245E-14  0.12500000000E+03  0.12500000000E+03 0.  0.
        -13    1    3    3    0    0 -0.43547532767E+02 -0.14009637838E+02 -0.29149311000E+01  0.45838472376E+02  0.10566000000E+00 0.  1.
         23    2    1    0    0    0 -0.35182400093E+01 -0.98812134740E+01 -0.29246492296E+02  0.93929536467E+02  0.88641886921E+02 0.  0.
         13    1    3    3    0    0  0.40029292757E+02  0.41284243639E+01 -0.26331561196E+02  0.48091064091E+02  0.10566000000E+00 0. -1.
         22    1    1    0    0    0  0.35182400093E+01  0.98812134740E+01  0.29246492296E+02  0.31070463533E+02  0.00000000000E+00 0. -1.
</event>
<event>
 5    1  0.6978980E-004  0.9118800E+02  0.7818608E-02  0.1130116E+00
         25   -1    0    0    0    0  0.00000000000E+00  0.00000000000E+00  0.99999998245E-14  0.12500000000E+03  0.12500000000E+03 0.  0.
        -13    1    3    3    0    0  0.50503372516E+02  0.21566809163E+02  0.26323366036E+02  0.60898675326E+02  0.10566000000E+00 0.  1.
         23    2    1    0    0    0  0.16586463801E+02  0.16088078793E+02  0.16415807183E+02  0.96655409932E+02  0.92405911515E+02 0.  0.
         13    1    3    3    0    0 -0.33916908715E+02 -0.54787303695E+01 -0.99075588534E+01  0.35756734606E+02  0.10566000000E+00 0. -1.
         22    1    1    0    0    0 -0.16586463801E+02 -0.16088078793E+02 -0.16415807183E+02  0.28344590068E+02  0.00000000000E+00 0.  1.
</event>
<event>
 5    1  0.6978980E-004  0.9118800E+02  0.7818608E-02  0.1130116E+00
         25   -1    0    0    0    0  0.00000000000E+00  0.00000000000E+00  0.99999998245E-14  0.12500000000E+03  0.12500000000E+03 0.  0.
        -13    1    3    3    0    0 -0.17062554541E+02 -0.16642609347E+02 -0.52169549744E+02  0.57356606402E+02  0.10566000000E+00 0.  1.
         23    2    1    0    0    0  0.98284436717E+01 -0.10470396001E+02 -0.25526128619E+02  0.95711593766E+02  0.91120241668E+02 0.  0.
         13    1    3    3    0    0  0.26890998213E+02  0.61722133465E+01  0.26643421125E+02  0.38354987365E+02  0.10566000000E+00 0. -1.
         22    1    1    0    0    0 -0.98284436717E+01  0.10470396001E+02  0.25526128619E+02  0.29288406234E+02  0.00000000000E+00 0.  1.
</event>
<event>
 5    1  0.6978980E-004  0.9118800E+02  0.7818608E-02  0.1130116E+00
         25   -1    0    0    0    0  0.00000000000E+00  0.00000000000E+00  0.99999998245E-14  0.12500000000E+03  0.12500000000E+03 0.  0.
        -13    1    3    3    0    0 -0.17826124256E+00 -0.56887898042E+02 -0.12276606304E+02  0.58197860331E+02  0.10566000000E+00 0.  1.
         23    2    1    0    0    0  0.74512073356E+01 -0.25555008301E+02  0.90775355886E+01  0.96875622809E+02  0.92703320880E+02 0.  0.
         13    1    3    3    0    0  0.76294685782E+01  0.31332889741E+02  0.21354141892E+02  0.38677762478E+02  0.10566000000E+00 0. -1.
         22    1    1    0    0    0 -0.74512073356E+01  0.25555008301E+02 -0.90775355886E+01  0.28124377191E+02  0.00000000000E+00 0.  1.
</event>
<event>
 5    1  0.6978980E-004  0.9118800E+02  0.7818608E-02  0.1130116E+00
         25   -1    0    0    0    0  0.00000000000E+00  0.00000000000E+00  0.99999998245E-14  0.12500000000E+03  0.12500000000E+03 0.  0.
        -13    1    3    3    0    0 -0.33184590835E+02  0.11180166908E+02 -0.48636403776E+02  0.59930994797E+02  0.10566000000E+00 0. -1.
         23    2    1    0    0    0 -0.21556083589E+02 -0.56133288098E+01 -0.20299075602E+02  0.94863200729E+02  0.89948875381E+02 0.  0.
         13    1    3    3    0    0  0.11628507246E+02 -0.16793495718E+02  0.28337328175E+02  0.34932205932E+02  0.10566000000E+00 0.  1.
         22    1    1    0    0    0  0.21556083589E+02  0.56133288098E+01  0.20299075602E+02  0.30136799271E+02  0.00000000000E+00 0. -1.
</event>
<event>
 5    1  0.6978980E-004  0.9118800E+02  0.7818608E-02  0.1130116E+00
         25   -1    0    0    0    0  0.00000000000E+00  0.00000000000E+00  0.99999998245E-14  0.12500000000E+03  0.12500000000E+03 0.  0.
        -13    1    3    3    0    0 -0.17026902110E+02 -0.33171675500E+02  0.16114687369E+02  0.40619819841E+02  0.10566000000E+00 0. -1.
         23    2    1    0    0    0 -0.20817131267E+02  0.19937237556E+02  0.25970793461E+00  0.96174423791E+02  0.91752961520E+02 0.  0.
         13    1    3    3    0    0 -0.37902291578E+01  0.53108913056E+02 -0.15854979434E+02  0.55554603949E+02  0.10566000000E+00 0.  1.
         22    1    1    0    0    0  0.20817131267E+02 -0.19937237556E+02 -0.25970793461E+00  0.28825576209E+02  0.00000000000E+00 0.  1.
</event>
<event>
 5    1  0.6978980E-004  0.9118800E+02  0.7818608E-02  0.1130116E+00
         25   -1    0    0    0    0  0.00000000000E+00  0.00000000000E+00  0.99999998245E-14  0.12500000000E+03  0.12500000000E+03 0.  0.
        -13    1    3    3    0    0  0.42989130752E+02  0.11986141119E+02  0.10846644469E+01  0.44642139316E+02  0.10566000000E+00 0.  1.
         23    2    1    0    0    0  0.11223358932E+02 -0.26871447390E+02 -0.58159117429E+01  0.95303816744E+02  0.90559119839E+02 0.  0.
         13    1    3    3    0    0 -0.31765771820E+02 -0.38857588509E+02 -0.69005761898E+01  0.50661677428E+02  0.10566000000E+00 0. -1.
         22    1    1    0    0    0 -0.11223358932E+02  0.26871447390E+02  0.58159117429E+01  0.29696183256E+02  0.00000000000E+00 0.  1.
</event>
<event>
 5    1  0.6978980E-004  0.9118800E+02  0.7818608E-02  0.1130116E+00
         25   -1    0    0    0    0  0.00000000000E+00  0.00000000000E+00  0.99999998245E-14  0.12500000000E+03  0.12500000000E+03 0.  0.
        -13    1    3    3    0    0  0.73501586205E+01  0.13651458840E+02  0.57437969983E+02  0.59493854472E+02  0.10566000000E+00 0. -1.
         23    2    1    0    0    0  0.92109334553E+01  0.17283967219E+02  0.20531820266E+02  0.96625143852E+02  0.92364960689E+02 0.  0.
         13    1    3    3    0    0  0.18607748348E+01  0.36325083793E+01 -0.36906149716E+02  0.37131289380E+02  0.10566000000E+00 0.  1.
         22    1    1    0    0    0 -0.92109334553E+01 -0.17283967219E+02 -0.20531820266E+02  0.28374856148E+02  0.00000000000E+00 0. -1.
</event>
<event>
 5    1  0.6978980E-004  0.9118800E+02  0.7818608E-02  0.1130116E+00
         25   -1    0    0    0    0  0.00000000000E+00  0.00000000000E+00  0.99999998245E-14  0.12500000000E+03  0.12500000000E+03 0.  0.
        -13    1    3    3    0    0  0.35176312804E+02  0.32288808654E+02  0.11652975034E+02  0.49150209948E+02  0.10566000000E+00 0.  1.
         23    2    1    0    0    0  0.25182824831E+02 -0.12827614452E+02  0.29013129965E+00  0.96736834304E+02  0.92515990920E+02 0.  0.
         13    1    3    3    0    0 -0.99934879727E+01 -0.45116423106E+02 -0.11362843734E+02  0.47586624355E+02  0.10566000000E+00 0. -1.
         22    1    1    0    0    0 -0.25182824831E+02  0.12827614452E+02 -0.29013129965E+00  0.28263165696E+02  0.00000000000E+00 0. -1.
</event>
<event>
 5    1  0.6978980E-004  0.9118800E+02  0.7818608E-02  0.1130116E+00
         25   -1    0    0    0    0  0.00000000000E+00  0.00000000000E+00  0.99999998245E-14  0.12500000000E+03  0.12500000000E+03 0.  0.
        -13    1    3    3    0    0 -0.11025021640E+02 -0.17970114676E+02 -0.25365192756E+02  0.32983030352E+02  0.10566000000E+00 0.  1.
         23    2    1    0    0    0 -0.35434170278E+01  0.32103072208E+02  0.54394200271E+01  0.92247132345E+02  0.86236784994E+02 0.  0.
         13    1    3    3    0    0  0.74816046124E+01  0.50073186884E+02  0.30804612783E+02  0.59264101993E+02  0.10566000000E+00 0. -1.
         22    1    1    0    0    0  0.35434170278E+01 -0.32103072208E+02 -0.54394200271E+01  0.32752867655E+02  0.00000000000E+00 0. -1.
</event>
<event>
 5    1  0.6978980E-004  0.9118800E+02  0.7818608E-02  0.1130116E+00
         25   -1    0    0    0    0  0.00000000000E+00  0.00000000000E+00  0.99999998245E-14  0.12500000000E+03  0.12500000000E+03 0.  0.
        -13    1    3    3    0    0 -0.16526692995E+02  0.67959353544E+01 -0.58239462802E+02  0.60919311471E+02  0.10566000000E+00 0.  1.
         23    2    1    0    0    0  0.22283199198E+01  0.87770233597E-02 -0.26505952626E+02  0.98400544906E+02  0.94737195581E+02 0.  0.
         13    1    3    3    0    0  0.18755012915E+02 -0.67871583311E+01  0.31733510176E+02  0.37481233434E+02  0.10566000000E+00 0. -1.
         22    1    1    0    0    0 -0.22283199198E+01 -0.87770233597E-02  0.26505952626E+02  0.26599455094E+02  0.00000000000E+00 0.  1.
</event>
<event>
 5    1  0.6978980E-004  0.9118800E+02  0.7818608E-02  0.1130116E+00
         25   -1    0    0    0    0  0.00000000000E+00  0.00000000000E+00  0.99999998245E-14  0.12500000000E+03  0.12500000000E+03 0.  0.
        -13    1    3    3    0    0 -0.30905441319E+02  0.14586376237E+02 -0.11476283137E+02  0.36050310866E+02  0.10566000000E+00 0.  1.
         23    2    1    0    0    0  0.27735936256E+02  0.95626118854E+01 -0.31311636240E+01  0.95495256454E+02  0.90822982298E+02 0.  0.
         13    1    3    3    0    0  0.58641377576E+02 -0.50237643514E+01  0.83451195131E+01  0.59444945588E+02  0.10566000000E+00 0. -1.
         22    1    1    0    0    0 -0.27735936256E+02 -0.95626118854E+01  0.31311636240E+01  0.29504743546E+02  0.00000000000E+00 0. -1.
</event>
<event>
 5    1  0.6978980E-004  0.9118800E+02  0.7818608E-02  0.1130116E+00
         25   -1    0    0    0    0  0.00000000000E+00  0.00000000000E+00  0.99999998245E-14  0.12500000000E+03  0.12500000000E+03 0.  0.
        -13    1    3    3    0    0  0.21125322190E+02 -0.33469431945E+02  0.19739465988E+02  0.44228269171E+02  0.10566000000E+00 0. -1.
         23    2    1    0    0    0  0.81977369897E+01  0.16533044532E+02  0.22441349917E+02  0.95945591740E+02  0.91440679870E+02 0.  0.
         13    1    3    3    0    0 -0.12927585200E+02  0.50002476477E+02  0.27018839285E+01  0.51717322569E+02  0.10566000000E+00 0.  1.
         22    1    1    0    0    0 -0.81977369897E+01 -0.16533044532E+02 -0.22441349917E+02  0.29054408260E+02  0.00000000000E+00 0.  1.
</event>
<event>
 5    1  0.6978980E-004  0.9118800E+02  0.7818608E-02  0.1130116E+00
         25   -1    0    0    0    0  0.00000000000E+00  0.00000000000E+00  0.99999998245E-14  0.12500000000E+03  0.12500000000E+03 0.  0.
        -13    1    3    3    0    0 -0.73282021022E+01 -0.30102482167E+01  0.32145483183E+02  0.33107512645E+02  0.10566000000E+00 0. -1.
         23    2    1    0    0    0  0.18033881708E+02  0.14623374020E+01 -0.24038814358E+02  0.94913060709E+02  0.90018138046E+02 0.  0.
         13    1    3    3    0    0  0.25362083810E+02  0.44725856187E+01 -0.56184297542E+02  0.61805548065E+02  0.10566000000E+00 0.  1.
         22    1    1    0    0    0 -0.18033881708E+02 -0.14623374020E+01  0.24038814358E+02  0.30086939291E+02  0.00000000000E+00 0.  1.
</event>
<event>
 5    1  0.6978980E-004  0.9118800E+02  0.7818608E-02  0.1130116E+00
         25   -1    0    0    0    0  0.00000000000E+00  0.00000000000E+00  0.99999998245E-14  0.12500000000E+03  0.12500000000E+03 0.  0.
        -13    1    3    3    0    0 -0.21464163553E+02  0.19004804608E+02 -0.24491888382E+02  0.37706188826E+02  0.10566000000E+00 0. -1.
         23    2    1    0    0    0  0.25532066268E+02 -0.10853983664E+02 -0.43455119518E+01  0.96918353976E+02  0.92760921158E+02 0.  0.
         13    1    3    3    0    0  0.46996229821E+02 -0.29858788273E+02  0.20146376430E+02  0.59212165150E+02  0.10566000000E+00 0.  1.
         22    1    1    0    0    0 -0.25532066268E+02  0.10853983664E+02  0.43455119518E+01  0.28081646024E+02  0.00000000000E+00 0.  1.
</event>
<event>
 5    1  0.6978980E-004  0.9118800E+02  0.7818608E-02  0.1130116E+00
         25   -1    0    0    0    0  0.00000000000E+00  0.00000000000E+00  0.99999998245E-14  0.12500000000E+03  0.12500000000E+03 0.  0.
        -13    1    3    3    0    0 -0.12354317165E+02 -0.41476264921E+02 -0.42025663865E+02  0.60324765161E+02  0.10566000000E+00 0. -1.
         23    2    1    0    0    0  0.41080201478E+01 -0.15776960053E+02 -0.24656160399E+02  0.95441337248E+02  0.90748742757E+02 0.  0.
         13    1    3    3    0    0  0.16462337313E+02  0.25699304867E+02  0.17369503465E+02  0.35116572087E+02  0.10566000000E+00 0.  1.
         22    1    1    0    0    0 -0.41080201478E+01  0.15776960053E+02  0.24656160399E+02  0.29558662752E+02  0.00000000000E+00 0. -1.
</event>
<event>
 5    1  0.6978980E-004  0.9118800E+02  0.7818608E-02  0.1130116E+00
         25   -1    0    0    0    0  0.00000000000E+00  0.00000000000E+00  0.99999998245E-14  0.12500000000E+03  0.12500000000E+03 0.  0.
        -13    1    3    3    0    0 -0.51143009662E+01  0.19909021440E+02 -0.34583430335E+02  0.40231207126E+02  0.10566000000E+00 0.  1.
         23    2    1    0    0    0 -0.17465010394E+02 -0.23622922109E+02 -0.28825532341E+01  0.95480885003E+02  0.90803200664E+02 0.  0.
         13    1    3    3    0    0 -0.12350709428E+02 -0.43531943549E+02  0.31700877100E+02  0.55249677877E+02  0.10566000000E+00 0. -1.
         22    1    1    0    0    0  0.17465010394E+02  0.23622922109E+02  0.28825532341E+01  0.29519114997E+02  0.00000000000E+00 0. -1.
</event>
<event>
 5    1  0.6978980E-004  0.9118800E+02  0.7818608E-02  0.1130116E+00
         25   -1    0    0    0    0  0.00000000000E+00  0.00000000000E+00  0.99999998245E-14  0.12500000000E+03  0.12500000000E+03 0.  0.
        -13    1    3    3    0    0  0.28523619433E+02 -0.25585436311E+02  0.21409477439E+02  0.43892918621E+02  0.10566000000E+00 0.  1.
         23    2    1    0    0    0 -0.72860459455E+01 -0.74349861338E+01  0.36699264305E+02  0.86852896770E+02  0.78027073458E+02 0.  0.
         13    1    3    3    0    0 -0.35809665378E+02  0.18150450177E+02  0.15289786866E+02  0.42959978149E+02  0.10566000000E+00 0. -1.
         22    1    1    0    0    0  0.72860459455E+01  0.74349861338E+01 -0.36699264305E+02  0.38147103230E+02  0.00000000000E+00 0. -1.
</event>
<event>
 5    1  0.6978980E-004  0.9118800E+02  0.7818608E-02  0.1130116E+00
         25   -1    0    0    0    0  0.00000000000E+00  0.00000000000E+00  0.99999998245E-14  0.12500000000E+03  0.12500000000E+03 0.  0.
        -13    1    3    3    0    0  0.54186939511E+02 -0.39856071676E+01  0.23634606947E+02  0.59251289333E+02  0.10566000000E+00 0. -1.
         23    2    1    0    0    0  0.29681469668E+02  0.75224099435E+00 -0.22681176409E+01  0.95222493963E+02  0.90446799229E+02 0.  0.
         13    1    3    3    0    0 -0.24505469843E+02  0.47378481619E+01 -0.25902724588E+02  0.35971204630E+02  0.10566000000E+00 0.  1.
         22    1    1    0    0    0 -0.29681469668E+02 -0.75224099435E+00  0.22681176409E+01  0.29777506037E+02  0.00000000000E+00 0. -1.
</event>
<event>
 5    1  0.6978980E-004  0.9118800E+02  0.7818608E-02  0.1130116E+00
         25   -1    0    0    0    0  0.00000000000E+00  0.00000000000E+00  0.99999998245E-14  0.12500000000E+03  0.12500000000E+03 0.  0.
        -13    1    3    3    0    0 -0.27775801697E+02  0.18840210958E+02 -0.44661888293E+02  0.55867200922E+02  0.10566000000E+00 0. -1.
         23    2    1    0    0    0  0.60929084326E+01  0.15676850122E+01 -0.26056913045E+02  0.98194331068E+02  0.94464717049E+02 0.  0.
         13    1    3    3    0    0  0.33868710130E+02 -0.17272525946E+02  0.18604975249E+02  0.42327130147E+02  0.10566000000E+00 0.  1.
         22    1    1    0    0    0 -0.60929084326E+01 -0.15676850122E+01  0.26056913045E+02  0.26805668932E+02  0.00000000000E+00 0. -1.
</event>
<event>
 5    1  0.6978980E-004  0.9118800E+02  0.7818608E-02  0.1130116E+00
         25   -1    0    0    0    0  0.00000000000E+00  0.00000000000E+00  0.99999998245E-14  0.12500000000E+03  0.12500000000E+03 0.  0.
        -13    1    3    3    0    0  0.14755193896E+02  0.11372377503E+02  0.30363124584E+02  0.35622706460E+02  0.10566000000E+00 0.  1.
         23    2    1    0    0    0  0.91733188761E+01 -0.21597838873E+02 -0.18698040552E+02  0.94996114524E+02  0.90133393540E+02 0.  0.
         13    1    3    3    0    0 -0.55818750200E+01 -0.32970216376E+02 -0.49061165136E+02  0.59373408064E+02  0.10566000000E+00 0. -1.
         22    1    1    0    0    0 -0.91733188761E+01  0.21597838873E+02  0.18698040552E+02  0.30003885476E+02  0.00000000000E+00 0. -1.
</event>
<event>
 5    1  0.6978980E-004  0.9118800E+02  0.7818608E-02  0.1130116E+00
         25   -1    0    0    0    0  0.00000000000E+00  0.00000000000E+00  0.99999998245E-14  0.12500000000E+03  0.12500000000E+03 0.  0.
        -13    1    3    3    0    0  0.90313089969E+01 -0.35688373876E+02 -0.48115385511E+02  0.60583215984E+02  0.10566000000E+00 0.  1.
         23    2    1    0    0    0  0.26033524019E+01 -0.64913534303E+01 -0.26805613509E+02  0.97297003254E+02  0.93269774384E+02 0.  0.
         13    1    3    3    0    0 -0.64279565950E+01  0.29197020446E+02  0.21309772001E+02  0.36713787270E+02  0.10566000000E+00 0. -1.
         22    1    1    0    0    0 -0.26033524019E+01  0.64913534303E+01  0.26805613509E+02  0.27702996746E+02  0.00000000000E+00 0.  1.
</event>
<event>
 5    1  0.6978980E-004  0.9118800E+02  0.7818608E-02  0.1130116E+00
         25   -1    0    0    0    0  0.00000000000E+00  0.00000000000E+00  0.99999998245E-14  0.12500000000E+03  0.12500000000E+03 0.  0.
        -13    1    3    3    0    0  0.56583873937E+00  0.35982646772E+02 -0.17721861748E+02  0.40114169442E+02  0.10566000000E+00 0. -1.
         23    2    1    0    0    0 -0.85724294600E+01  0.21878040777E+01  0.26814844079E+02  0.96763341265E+02  0.92551798018E+02 0.  0.
         13    1    3    3    0    0 -0.91382681994E+01 -0.33794842694E+02  0.44536705826E+02  0.56649171824E+02  0.10566000000E+00 0.  1.
         22    1    1    0    0    0  0.85724294600E+01 -0.21878040777E+01 -0.26814844079E+02  0.28236658735E+02  0.00000000000E+00 0.  1.
</event>
<event>
 5    1  0.6978980E-004  0.9118800E+02  0.7818608E-02  0.1130116E+00
         25   -1    0    0    0    0  0.00000000000E+00  0.00000000000E+00  0.99999998245E-14  0.12500000000E+03  0.12500000000E+03 0.  0.
        -13    1    3    3    0    0 -0.18265998908E+02  0.54230235205E+02  0.19682986108E+02  0.60514429954E+02  0.10566000000E+00 0.  1.
         23    2    1    0    0    0 -0.18846947864E+02  0.21269113828E+02  0.82175922201E+01  0.95417716979E+02  0.90716201667E+02 0.  0.
         13    1    3    3    0    0 -0.58094895617E+00 -0.32961121377E+02 -0.11465393888E+02  0.34903287025E+02  0.10566000000E+00 0. -1.
         22    1    1    0    0    0  0.18846947864E+02 -0.21269113828E+02 -0.82175922201E+01  0.29582283021E+02  0.00000000000E+00 0.  1.
</event>
<event>
 5    1  0.6978980E-004  0.9118800E+02  0.7818608E-02  0.1130116E+00
         25   -1    0    0    0    0  0.00000000000E+00  0.00000000000E+00  0.99999998245E-14  0.12500000000E+03  0.12500000000E+03 0.  0.
        -13    1    3    3    0    0  0.59440007824E+02  0.17335313779E+02  0.59339920272E+01  0.62200088901E+02  0.10566000000E+00 0.  1.
         23    2    1    0    0    0  0.27328250208E+02  0.10151652727E+02  0.65871575551E+01  0.95112210567E+02  0.90294255863E+02 0.  0.
         13    1    3    3    0    0 -0.32111757616E+02 -0.71836610519E+01  0.65316552790E+00  0.32912121666E+02  0.10566000000E+00 0. -1.
         22    1    1    0    0    0 -0.27328250208E+02 -0.10151652727E+02 -0.65871575551E+01  0.29887789433E+02  0.00000000000E+00 0.  1.
</event>
<event>
 5    1  0.6978980E-004  0.9118800E+02  0.7818608E-02  0.1130116E+00
         25   -1    0    0    0    0  0.00000000000E+00  0.00000000000E+00  0.99999998245E-14  0.12500000000E+03  0.12500000000E+03 0.  0.
        -13    1    3    3    0    0  0.34738114526E+02  0.30406396298E+01 -0.10019315704E+02  0.36281950629E+02  0.10566000000E+00 0.  1.
         23    2    1    0    0    0 -0.24728526144E+02  0.73020806428E+01  0.69995321292E+01  0.98282705283E+02  0.94581585527E+02 0.  0.
         13    1    3    3    0    0 -0.59466640670E+02  0.42614410129E+01  0.17018847833E+02  0.62000754654E+02  0.10566000000E+00 0. -1.
         22    1    1    0    0    0  0.24728526144E+02 -0.73020806428E+01 -0.69995321292E+01  0.26717294717E+02  0.00000000000E+00 0. -1.
</event>
<event>
 5    1  0.6978980E-004  0.9118800E+02  0.7818608E-02  0.1130116E+00
         25   -1    0    0    0    0  0.00000000000E+00  0.00000000000E+00  0.99999998245E-14  0.12500000000E+03  0.12500000000E+03 0.  0.
        -13    1    3    3    0    0  0.24305949660E+02  0.22804291247E+02  0.33221946532E+01  0.33494223823E+02  0.10566000000E+00 0. -1.
         23    2    1    0    0    0 -0.93483546485E+01 -0.25309912498E+02 -0.13852206770E+02  0.94670690122E+02  0.89680948537E+02 0.  0.
         13    1    3    3    0    0 -0.33654304309E+02 -0.48114203745E+02 -0.17174401423E+02  0.61176466299E+02  0.10566000000E+00 0.  1.
         22    1    1    0    0    0  0.93483546485E+01  0.25309912498E+02  0.13852206770E+02  0.30329309878E+02  0.00000000000E+00 0.  1.
</event>
<event>
 5    1  0.6978980E-004  0.9118800E+02  0.7818608E-02  0.1130116E+00
         25   -1    0    0    0    0  0.00000000000E+00  0.00000000000E+00  0.99999998245E-14  0.12500000000E+03  0.12500000000E+03 0.  0.
        -13    1    3    3    0    0 -0.35796697909E+02  0.75576212316E+01  0.14984058205E+02  0.39535482597E+02  0.10566000000E+00 0.  1.
         23    2    1    0    0    0  0.63883253610E+01 -0.28147782536E+02  0.57640182670E+01  0.95566477118E+02  0.90920950719E+02 0.  0.
         13    1    3    3    0    0  0.42185023270E+02 -0.35705403768E+02 -0.92200399376E+01  0.56030994521E+02  0.10566000000E+00 0. -1.
         22    1    1    0    0    0 -0.63883253610E+01  0.28147782536E+02 -0.57640182670E+01  0.29433522882E+02  0.00000000000E+00 0. -1.
</event>
<event>
 5    1  0.6978980E-004  0.9118800E+02  0.7818608E-02  0.1130116E+00
         25   -1    0    0    0    0  0.00000000000E+00  0.00000000000E+00  0.99999998245E-14  0.12500000000E+03  0.12500000000E+03 0.  0.
        -13    1    3    3    0    0  0.30628543770E+02 -0.17871195666E+02 -0.18699506104E+02  0.40089525073E+02  0.10566000000E+00 0.  1.
         23    2    1    0    0    0  0.17352652874E+02 -0.67839873302E+01  0.28832787604E+02  0.90671197416E+02  0.83921387941E+02 0.  0.
         13    1    3    3    0    0 -0.13275890896E+02  0.11087208336E+02  0.47532293708E+02  0.50581672343E+02  0.10566000000E+00 0. -1.
         22    1    1    0    0    0 -0.17352652874E+02  0.67839873302E+01 -0.28832787604E+02  0.34328802584E+02  0.00000000000E+00 0. -1.
</event>
<event>
 5    1  0.6978980E-004  0.9118800E+02  0.7818608E-02  0.1130116E+00
         25   -1    0    0    0    0  0.00000000000E+00  0.00000000000E+00  0.99999998245E-14  0.12500000000E+03  0.12500000000E+03 0.  0.
        -13    1    3    3    0    0 -0.31216328597E+02  0.19281160231E+02  0.13168012669E+02  0.38982432360E+02  0.10566000000E+00 0.  1.
         23    2    1    0    0    0  0.15770951488E+02  0.19013222322E+02 -0.17172449245E+02  0.94914811834E+02  0.90020569642E+02 0.  0.
         13    1    3    3    0    0  0.46987280085E+02 -0.26793790983E+00 -0.30340461914E+02  0.55932379475E+02  0.10566000000E+00 0. -1.
         22    1    1    0    0    0 -0.15770951488E+02 -0.19013222322E+02  0.17172449245E+02  0.30085188166E+02  0.00000000000E+00 0. -1.
</event>
<event>
 5    1  0.6978980E-004  0.9118800E+02  0.7818608E-02  0.1130116E+00
         25   -1    0    0    0    0  0.00000000000E+00  0.00000000000E+00  0.99999998245E-14  0.12500000000E+03  0.12500000000E+03 0.  0.
        -13    1    3    3    0    0 -0.80603055710E+01  0.36429929336E+02  0.27236789160E+02  0.46194827905E+02  0.10566000000E+00 0. -1.
         23    2    1    0    0    0  0.11964811544E+02  0.21979385785E+02 -0.15507349401E+02  0.95559755432E+02  0.90911709136E+02 0.  0.
         13    1    3    3    0    0  0.20025117115E+02 -0.14450543551E+02 -0.42744138562E+02  0.49364927528E+02  0.10566000000E+00 0.  1.
         22    1    1    0    0    0 -0.11964811544E+02 -0.21979385785E+02  0.15507349401E+02  0.29440244568E+02  0.00000000000E+00 0.  1.
</event>
<event>
 5    1  0.6978980E-004  0.9118800E+02  0.7818608E-02  0.1130116E+00
         25   -1    0    0    0    0  0.00000000000E+00  0.00000000000E+00  0.99999998245E-14  0.12500000000E+03  0.12500000000E+03 0.  0.
        -13    1    3    3    0    0  0.42196764177E+01 -0.52227960292E+02  0.26140506510E+02  0.58556833504E+02  0.10566000000E+00 0.  1.
         23    2    1    0    0    0  0.12114799508E+02 -0.16575935534E+02  0.21340240956E+02  0.95386896650E+02  0.90673723661E+02 0.  0.
         13    1    3    3    0    0  0.78951230900E+01  0.35652024758E+02 -0.48002655544E+01  0.36830063147E+02  0.10566000000E+00 0. -1.
         22    1    1    0    0    0 -0.12114799508E+02  0.16575935534E+02 -0.21340240956E+02  0.29613103350E+02  0.00000000000E+00 0.  1.
</event>
<event>
 5    1  0.6978980E-004  0.9118800E+02  0.7818608E-02  0.1130116E+00
         25   -1    0    0    0    0  0.00000000000E+00  0.00000000000E+00  0.99999998245E-14  0.12500000000E+03  0.12500000000E+03 0.  0.
        -13    1    3    3    0    0 -0.21307657545E+01 -0.34482650893E+02 -0.82411304846E+01  0.35517893674E+02  0.10566000000E+00 0.  1.
         23    2    1    0    0    0 -0.35821698239E+02  0.19189128921E+01  0.89757477439E+01  0.88021082507E+02  0.79876596239E+02 0.  0.
         13    1    3    3    0    0 -0.33690932484E+02  0.36401563785E+02  0.17216878228E+02  0.52503188833E+02  0.10566000000E+00 0. -1.
         22    1    1    0    0    0  0.35821698239E+02 -0.19189128921E+01 -0.89757477439E+01  0.36978917493E+02  0.00000000000E+00 0.  1.
</event>
<event>
 5    1  0.6978980E-004  0.9118800E+02  0.7818608E-02  0.1130116E+00
         25   -1    0    0    0    0  0.00000000000E+00  0.00000000000E+00  0.99999998245E-14  0.12500000000E+03  0.12500000000E+03 0.  0.
        -13    1    3    3    0    0 -0.34820838078E+02  0.57781251851E+01  0.14042005685E+02  0.37987716210E+02  0.10566000000E+00 0.  1.
         23    2    1    0    0    0  0.11521115805E+02 -0.25941899977E+02 -0.24276653440E+01  0.96511197940E+02  0.92210625662E+02 0.  0.
         13    1    3    3    0    0  0.46341953883E+02 -0.31720025162E+02 -0.16469671029E+02  0.58523481730E+02  0.10566000000E+00 0. -1.
         22    1    1    0    0    0 -0.11521115805E+02  0.25941899977E+02  0.24276653440E+01  0.28488802060E+02  0.00000000000E+00 0. -1.
</event>
<event>
 5    1  0.6978980E-004  0.9118800E+02  0.7818608E-02  0.1130116E+00
         25   -1    0    0    0    0  0.00000000000E+00  0.00000000000E+00  0.99999998245E-14  0.12500000000E+03  0.12500000000E+03 0.  0.
        -13    1    3    3    0    0 -0.18189515561E+02 -0.33443797639E+02  0.46021851256E+02  0.59727447911E+02  0.10566000000E+00 0. -1.
         23    2    1    0    0    0  0.32253045128E+01 -0.15378702163E+02  0.27544114613E+02  0.93289034716E+02  0.87734022358E+02 0.  0.
         13    1    3    3    0    0  0.21414820074E+02  0.18065095476E+02 -0.18477736643E+02  0.33561586805E+02  0.10566000000E+00 0.  1.
         22    1    1    0    0    0 -0.32253045128E+01  0.15378702163E+02 -0.27544114613E+02  0.31710965284E+02  0.00000000000E+00 0. -1.
</event>
<event>
 5    1  0.6978980E-004  0.9118800E+02  0.7818608E-02  0.1130116E+00
         25   -1    0    0    0    0  0.00000000000E+00  0.00000000000E+00  0.99999998245E-14  0.12500000000E+03  0.12500000000E+03 0.  0.
        -13    1    3    3    0    0  0.69259568359E+01  0.61251699060E+02  0.68329158665E+01  0.62019669614E+02  0.10566000000E+00 0.  1.
         23    2    1    0    0    0  0.70707798532E+01  0.28799265719E+02 -0.70710212255E+00  0.95336999021E+02  0.90604910216E+02 0.  0.
         13    1    3    3    0    0  0.14482301737E+00 -0.32452433341E+02 -0.75400179891E+01  0.33317329407E+02  0.10566000000E+00 0. -1.
         22    1    1    0    0    0 -0.70707798532E+01 -0.28799265719E+02  0.70710212255E+00  0.29663000979E+02  0.00000000000E+00 0.  1.
</event>
<event>
 5    1  0.6978980E-004  0.9118800E+02  0.7818608E-02  0.1130116E+00
         25   -1    0    0    0    0  0.00000000000E+00  0.00000000000E+00  0.99999998245E-14  0.12500000000E+03  0.12500000000E+03 0.  0.
        -13    1    3    3    0    0  0.45789593996E+02  0.35097316413E+02 -0.69449481243E+01  0.58109827106E+02  0.10566000000E+00 0.  1.
         23    2    1    0    0    0  0.30135819742E+02  0.28126557439E+01  0.38586326247E+00  0.94730749030E+02  0.89764621413E+02 0.  0.
         13    1    3    3    0    0 -0.15653774254E+02 -0.32284660669E+02  0.73308113868E+01  0.36620921924E+02  0.10566000000E+00 0. -1.
         22    1    1    0    0    0 -0.30135819742E+02 -0.28126557439E+01 -0.38586326247E+00  0.30269250970E+02  0.00000000000E+00 0. -1.
</event>
<event>
 5    1  0.6978980E-004  0.9118800E+02  0.7818608E-02  0.1130116E+00
         25   -1    0    0    0    0  0.00000000000E+00  0.00000000000E+00  0.99999998245E-14  0.12500000000E+03  0.12500000000E+03 0.  0.
        -13    1    3    3    0    0 -0.46436556235E+02 -0.17159745030E+02 -0.20922276431E+02  0.53745357191E+02  0.10566000000E+00 0. -1.
         23    2    1    0    0    0 -0.23592994701E+02 -0.92763167655E+00  0.13239070456E+02  0.97930406615E+02  0.94114832273E+02 0.  0.
         13    1    3    3    0    0  0.22843561534E+02  0.16232113354E+02  0.34161346887E+02  0.44185049424E+02  0.10566000000E+00 0.  1.
         22    1    1    0    0    0  0.23592994701E+02  0.92763167655E+00 -0.13239070456E+02  0.27069593385E+02  0.00000000000E+00 0. -1.
</event>
<event>
 5    1  0.6978980E-004  0.9118800E+02  0.7818608E-02  0.1130116E+00
         25   -1    0    0    0    0  0.00000000000E+00  0.00000000000E+00  0.99999998245E-14  0.12500000000E+03  0.12500000000E+03 0.  0.
        -13    1    3    3    0    0  0.10089390677E+02  0.55177368384E+02 -0.31718590381E+01  0.56181933393E+02  0.10566000000E+00 0. -1.
         23    2    1    0    0    0 -0.14657642065E+02  0.24080984681E+02 -0.65205829010E+01  0.96064584063E+02  0.91603198720E+02 0.  0.
         13    1    3    3    0    0 -0.24747032742E+02 -0.31096383703E+02 -0.33487238629E+01  0.39882650670E+02  0.10566000000E+00 0.  1.
         22    1    1    0    0    0  0.14657642065E+02 -0.24080984681E+02  0.65205829010E+01  0.28935415937E+02  0.00000000000E+00 0. -1.
</event>
<event>
 5    1  0.6978980E-004  0.9118800E+02  0.7818608E-02  0.1130116E+00
         25   -1    0    0    0    0  0.00000000000E+00  0.00000000000E+00  0.99999998245E-14  0.12500000000E+03  0.12500000000E+03 0.  0.
        -13    1    3    3    0    0  0.27999146631E+02 -0.17824022502E+02 -0.23558418305E+02  0.40702066622E+02  0.10566000000E+00 0. -1.
         23    2    1    0    0    0  0.20863330729E+02  0.20229433551E+02  0.12272152952E+02  0.93454567859E+02  0.87969551350E+02 0.  0.
         13    1    3    3    0    0 -0.71358159020E+01  0.38053456053E+02  0.35830571257E+02  0.52752501237E+02  0.10566000000E+00 0.  1.
         22    1    1    0    0    0 -0.20863330729E+02 -0.20229433551E+02 -0.12272152952E+02  0.31545432141E+02  0.00000000000E+00 0. -1.
</event>
<event>
 5    1  0.6978980E-004  0.9118800E+02  0.7818608E-02  0.1130116E+00
         25   -1    0    0    0    0  0.00000000000E+00  0.00000000000E+00  0.99999998245E-14  0.12500000000E+03  0.12500000000E+03 0.  0.
        -13    1    3    3    0    0  0.27618205756E+02  0.31165302207E+02 -0.34276659715E+02  0.53934607777E+02  0.10566000000E+00 0.  1.
         23    2    1    0    0    0  0.10936986705E+02 -0.60999788913E+01 -0.26767346079E+02  0.95448041744E+02  0.90757977258E+02 0.  0.
         13    1    3    3    0    0 -0.16681219050E+02 -0.37265281099E+02  0.75093136358E+01  0.41513433966E+02  0.10566000000E+00 0. -1.
         22    1    1    0    0    0 -0.10936986705E+02  0.60999788913E+01  0.26767346079E+02  0.29551958256E+02  0.00000000000E+00 0.  1.
</event>
<event>
 5    1  0.6978980E-004  0.9118800E+02  0.7818608E-02  0.1130116E+00
         25   -1    0    0    0    0  0.00000000000E+00  0.00000000000E+00  0.99999998245E-14  0.12500000000E+03  0.12500000000E+03 0.  0.
        -13    1    3    3    0    0 -0.27319767285E+02 -0.10932944841E+02  0.26128603656E+02  0.39352433984E+02  0.10566000000E+00 0.  1.
         23    2    1    0    0    0 -0.29460960301E+01 -0.17201111073E+01 -0.26607489713E+02  0.98174699017E+02  0.94438735454E+02 0.  0.
         13    1    3    3    0    0  0.24373671255E+02  0.92128337334E+01 -0.52736093368E+02  0.58822265033E+02  0.10566000000E+00 0. -1.
         22    1    1    0    0    0  0.29460960301E+01  0.17201111073E+01  0.26607489713E+02  0.26825300983E+02  0.00000000000E+00 0. -1.
</event>
<event>
 5    1  0.6978980E-004  0.9118800E+02  0.7818608E-02  0.1130116E+00
         25   -1    0    0    0    0  0.00000000000E+00  0.00000000000E+00  0.99999998245E-14  0.12500000000E+03  0.12500000000E+03 0.  0.
        -13    1    3    3    0    0  0.11276740744E+02  0.21828336112E+02 -0.26279579939E+02  0.35975945089E+02  0.10566000000E+00 0. -1.
         23    2    1    0    0    0  0.43586953880E+01 -0.29455584753E+02  0.23765049315E+01  0.95128986051E+02  0.90317476231E+02 0.  0.
         13    1    3    3    0    0 -0.69180453560E+01 -0.51283920866E+02  0.28656084870E+02  0.59153040962E+02  0.10566000000E+00 0.  1.
         22    1    1    0    0    0 -0.43586953880E+01  0.29455584753E+02 -0.23765049315E+01  0.29871013949E+02  0.00000000000E+00 0.  1.
</event>
<event>
 5    1  0.6978980E-004  0.9118800E+02  0.7818608E-02  0.1130116E+00
         25   -1    0    0    0    0  0.00000000000E+00  0.00000000000E+00  0.99999998245E-14  0.12500000000E+03  0.12500000000E+03 0.  0.
        -13    1    3    3    0    0 -0.39895396094E+02 -0.17289955394E+02  0.21850694776E+02  0.48662605903E+02  0.10566000000E+00 0. -1.
         23    2    1    0    0    0 -0.38988026532E+01 -0.27912757123E+02 -0.69511001673E+01  0.95971729885E+02  0.91476403904E+02 0.  0.
         13    1    3    3    0    0  0.35996593441E+02 -0.10622801729E+02 -0.28801794943E+02  0.47309123982E+02  0.10566000000E+00 0.  1.
         22    1    1    0    0    0  0.38988026532E+01  0.27912757123E+02  0.69511001673E+01  0.29028270115E+02  0.00000000000E+00 0.  1.
</event>
<event>
 5    1  0.6978980E-004  0.9118800E+02  0.7818608E-02  0.1130116E+00
         25   -1    0    0    0    0  0.00000000000E+00  0.00000000000E+00  0.99999998245E-14  0.12500000000E+03  0.12500000000E+03 0.  0.
        -13    1    3    3    0    0 -0.14204712350E+02 -0.19927395541E+02  0.26251783402E+02  0.35889305396E+02  0.10566000000E+00 0. -1.
         23    2    1    0    0    0 -0.23911379683E+02 -0.78330662181E+01 -0.25056627410E+02  0.89490204424E+02  0.82143478779E+02 0.  0.
         13    1    3    3    0    0 -0.97066673332E+01  0.12094329323E+02 -0.51308410812E+02  0.53600899027E+02  0.10566000000E+00 0.  1.
         22    1    1    0    0    0  0.23911379683E+02  0.78330662181E+01  0.25056627410E+02  0.35509795576E+02  0.00000000000E+00 0.  1.
</event>
<event>
 5    1  0.6978980E-004  0.9118800E+02  0.7818608E-02  0.1130116E+00
         25   -1    0    0    0    0  0.00000000000E+00  0.00000000000E+00  0.99999998245E-14  0.12500000000E+03  0.12500000000E+03 0.  0.
        -13    1    3    3    0    0  0.27142694408E+02  0.13922679611E+02  0.28377904914E+02  0.41663935467E+02  0.10566000000E+00 0.  1.
         23    2    1    0    0    0  0.95113620386E+01  0.25358829405E+02 -0.17930980898E+02  0.92518369614E+02  0.86629050574E+02 0.  0.
         13    1    3    3    0    0 -0.17631332370E+02  0.11436149793E+02 -0.46308885811E+02  0.50854434146E+02  0.10566000000E+00 0. -1.
         22    1    1    0    0    0 -0.95113620386E+01 -0.25358829405E+02  0.17930980898E+02  0.32481630386E+02  0.00000000000E+00 0. -1.
</event>
<event>
 5    1  0.6978980E-004  0.9118800E+02  0.7818608E-02  0.1130116E+00
         25   -1    0    0    0    0  0.00000000000E+00  0.00000000000E+00  0.99999998245E-14  0.12500000000E+03  0.12500000000E+03 0.  0.
        -13    1    3    3    0    0  0.59715678932E+01 -0.36644140364E+02 -0.33157159653E+01  0.37275431353E+02  0.10566000000E+00 0.  1.
         23    2    1    0    0    0 -0.21565697180E+02  0.15109634494E+02 -0.11119285828E+02  0.96416458114E+02  0.92082107538E+02 0.  0.
         13    1    3    3    0    0 -0.27537265073E+02  0.51753774858E+02 -0.78035698627E+01  0.59141026762E+02  0.10566000000E+00 0. -1.
         22    1    1    0    0    0  0.21565697180E+02 -0.15109634494E+02  0.11119285828E+02  0.28583541886E+02  0.00000000000E+00 0. -1.
</event>
<event>
 5    1  0.6978980E-004  0.9118800E+02  0.7818608E-02  0.1130116E+00
         25   -1    0    0    0    0  0.00000000000E+00  0.00000000000E+00  0.99999998245E-14  0.12500000000E+03  0.12500000000E+03 0.  0.
        -13    1    3    3    0    0 -0.61667948651E+01 -0.40639181549E+02  0.33884883122E+02  0.53270713380E+02  0.10566000000E+00 0.  1.
         23    2    1    0    0    0  0.18208986080E+02 -0.71262463075E+01  0.20135289338E+02  0.96932573377E+02  0.92780080536E+02 0.  0.
         13    1    3    3    0    0  0.24375780945E+02  0.33512935241E+02 -0.13749593783E+02  0.43661859997E+02  0.10566000000E+00 0. -1.
         22    1    1    0    0    0 -0.18208986080E+02  0.71262463075E+01 -0.20135289338E+02  0.28067426623E+02  0.00000000000E+00 0.  1.
</event>
<event>
 5    1  0.6978980E-004  0.9118800E+02  0.7818608E-02  0.1130116E+00
         25   -1    0    0    0    0  0.00000000000E+00  0.00000000000E+00  0.99999998245E-14  0.12500000000E+03  0.12500000000E+03 0.  0.
        -13    1    3    3    0    0  0.25905757588E+02  0.42062680131E+02 -0.58116832795E+01  0.49740970664E+02  0.10566000000E+00 0. -1.
         23    2    1    0    0    0 -0.13922735402E+02  0.26610607328E+02  0.66447068098E+01  0.94240950729E+02  0.89079951068E+02 0.  0.
         13    1    3    3    0    0 -0.39828492990E+02 -0.15452072802E+02  0.12456390089E+02  0.44499980066E+02  0.10566000000E+00 0.  1.
         22    1    1    0    0    0  0.13922735402E+02 -0.26610607328E+02 -0.66447068098E+01  0.30759049271E+02  0.00000000000E+00 0. -1.
</event>
<event>
 5    1  0.6978980E-004  0.9118800E+02  0.7818608E-02  0.1130116E+00
         25   -1    0    0    0    0  0.00000000000E+00  0.00000000000E+00  0.99999998245E-14  0.12500000000E+03  0.12500000000E+03 0.  0.
        -13    1    3    3    0    0  0.42451198307E+02  0.14331912521E+02 -0.26982018572E+02  0.52302470730E+02  0.10566000000E+00 0. -1.
         23    2    1    0    0    0  0.93257819904E+01  0.27927305003E+02 -0.29874493833E+01  0.95405584509E+02  0.90699482508E+02 0.  0.
         13    1    3    3    0    0 -0.33125416316E+02  0.13595392482E+02  0.23994569189E+02  0.43103113779E+02  0.10566000000E+00 0.  1.
         22    1    1    0    0    0 -0.93257819904E+01 -0.27927305003E+02  0.29874493833E+01  0.29594415491E+02  0.00000000000E+00 0.  1.
</event>
<event>
 5    1  0.6978980E-004  0.9118800E+02  0.7818608E-02  0.1130116E+00
         25   -1    0    0    0    0  0.00000000000E+00  0.00000000000E+00  0.99999998245E-14  0.12500000000E+03  0.12500000000E+03 0.  0.
        -13    1    3    3    0    0 -0.39315916308E+02  0.37780789289E+02 -0.20533612080E+02  0.58264652265E+02  0.10566000000E+00 0.  1.
         23    2    1    0    0    0 -0.32865086642E+02  0.19621229770E+02  0.40388495578E+00  0.86721158577E+02  0.77815741622E+02 0.  0.
         13    1    3    3    0    0  0.64508296661E+01 -0.18159559519E+02  0.20937497036E+02  0.28456506312E+02  0.10566000000E+00 0. -1.
         22    1    1    0    0    0  0.32865086642E+02 -0.19621229770E+02 -0.40388495578E+00  0.38278841423E+02  0.00000000000E+00 0.  1.
</event>
<event>
 5    1  0.6978980E-004  0.9118800E+02  0.7818608E-02  0.1130116E+00
         25   -1    0    0    0    0  0.00000000000E+00  0.00000000000E+00  0.99999998245E-14  0.12500000000E+03  0.12500000000E+03 0.  0.
        -13    1    3    3    0    0  0.40468593118E+02  0.11873798498E+02 -0.44509492801E+02  0.61317209927E+02  0.10566000000E+00 0.  1.
         23    2    1    0    0    0  0.21470440084E+02 -0.77145518669E+00 -0.28993082903E+02  0.88914354700E+02  0.81262467812E+02 0.  0.
         13    1    3    3    0    0 -0.18998153034E+02 -0.12645253684E+02  0.15516409898E+02  0.27597144773E+02  0.10566000000E+00 0. -1.
         22    1    1    0    0    0 -0.21470440084E+02  0.77145518669E+00  0.28993082903E+02  0.36085645300E+02  0.00000000000E+00 0.  1.
</event>
<event>
 5    1  0.6978980E-004  0.9118800E+02  0.7818608E-02  0.1130116E+00
         25   -1    0    0    0    0  0.00000000000E+00  0.00000000000E+00  0.99999998245E-14  0.12500000000E+03  0.12500000000E+03 0.  0.
        -13    1    3    3    0    0  0.37602871402E+02 -0.16631467041E+02 -0.16323357464E+02  0.44238499032E+02  0.10566000000E+00 0.  1.
         23    2    1    0    0    0 -0.33018514218E+01  0.13529275238E+02 -0.25559300587E+02  0.95892932855E+02  0.91368666476E+02 0.  0.
         13    1    3    3    0    0 -0.40904722824E+02  0.30160742279E+02 -0.92359431231E+01  0.51654433823E+02  0.10566000000E+00 0. -1.
         22    1    1    0    0    0  0.33018514218E+01 -0.13529275238E+02  0.25559300587E+02  0.29107067145E+02  0.00000000000E+00 0. -1.
</event>
<event>
 5    1  0.6978980E-004  0.9118800E+02  0.7818608E-02  0.1130116E+00
         25   -1    0    0    0    0  0.00000000000E+00  0.00000000000E+00  0.99999998245E-14  0.12500000000E+03  0.12500000000E+03 0.  0.
        -13    1    3    3    0    0  0.10569342158E+02 -0.11821245019E+02 -0.54300729064E+02  0.56568835664E+02  0.10566000000E+00 0. -1.
         23    2    1    0    0    0 -0.13534227184E+02  0.10047002461E+01 -0.24542167673E+02  0.96955344143E+02  0.92810753880E+02 0.  0.
         13    1    3    3    0    0 -0.24103569342E+02  0.12825945265E+02  0.29758561392E+02  0.40386508479E+02  0.10566000000E+00 0.  1.
         22    1    1    0    0    0  0.13534227184E+02 -0.10047002461E+01  0.24542167673E+02  0.28044655857E+02  0.00000000000E+00 0. -1.
</event>
<event>
 5    1  0.6978980E-004  0.9118800E+02  0.7818608E-02  0.1130116E+00
         25   -1    0    0    0    0  0.00000000000E+00  0.00000000000E+00  0.99999998245E-14  0.12500000000E+03  0.12500000000E+03 0.  0.
        -13    1    3    3    0    0  0.24832307165E+02  0.31283739294E+02  0.46665687743E+00  0.39944270628E+02  0.10566000000E+00 0. -1.
         23    2    1    0    0    0 -0.22017535803E+02  0.68554570748E+01  0.18142383607E+02  0.95658642542E+02  0.91047573473E+02 0.  0.
         13    1    3    3    0    0 -0.46849842968E+02 -0.24428282219E+02  0.17675726730E+02  0.55714371914E+02  0.10566000000E+00 0.  1.
         22    1    1    0    0    0  0.22017535803E+02 -0.68554570748E+01 -0.18142383607E+02  0.29341357458E+02  0.00000000000E+00 0.  1.
</event>
<event>
 5    1  0.6978980E-004  0.9118800E+02  0.7818608E-02  0.1130116E+00
         25   -1    0    0    0    0  0.00000000000E+00  0.00000000000E+00  0.99999998245E-14  0.12500000000E+03  0.12500000000E+03 0.  0.
        -13    1    3    3    0    0  0.54266653541E+02  0.11687083087E+02 -0.19845880423E+02  0.58951910329E+02  0.10566000000E+00 0. -1.
         23    2    1    0    0    0  0.37812361083E+02 -0.45884187700E+01 -0.46764308911E+01  0.86624262309E+02  0.77659935470E+02 0.  0.
         13    1    3    3    0    0 -0.16454292458E+02 -0.16275501857E+02  0.15169449532E+02  0.27672351980E+02  0.10566000000E+00 0.  1.
         22    1    1    0    0    0 -0.37812361083E+02  0.45884187700E+01  0.46764308911E+01  0.38375737691E+02  0.00000000000E+00 0. -1.
</event>
<event>
 5    1  0.6978980E-004  0.9118800E+02  0.7818608E-02  0.1130116E+00
         25   -1    0    0    0    0  0.00000000000E+00  0.00000000000E+00  0.99999998245E-14  0.12500000000E+03  0.12500000000E+03 0.  0.
        -13    1    3    3    0    0 -0.88603620028E+01 -0.40730796812E+02 -0.24062685017E+02  0.48130320984E+02  0.10566000000E+00 0. -1.
         23    2    1    0    0    0  0.24889511536E+02 -0.14159648513E+02 -0.23291866888E+01  0.96270075859E+02  0.91883181077E+02 0.  0.
         13    1    3    3    0    0  0.33749873539E+02  0.26571148300E+02  0.21733498328E+02  0.48139754875E+02  0.10566000000E+00 0.  1.
         22    1    1    0    0    0 -0.24889511536E+02  0.14159648513E+02  0.23291866888E+01  0.28729924141E+02  0.00000000000E+00 0. -1.
</event>
<event>
 5    1  0.6978980E-004  0.9118800E+02  0.7818608E-02  0.1130116E+00
         25   -1    0    0    0    0  0.00000000000E+00  0.00000000000E+00  0.99999998245E-14  0.12500000000E+03  0.12500000000E+03 0.  0.
        -13    1    3    3    0    0  0.26826247636E+02 -0.16678291012E+02 -0.21260381998E+02  0.38076606467E+02  0.10566000000E+00 0. -1.
         23    2    1    0    0    0  0.79596039916E+01  0.19024467776E+02  0.20327088792E+02  0.96043546339E+02  0.91574486538E+02 0.  0.
         13    1    3    3    0    0 -0.18866643644E+02  0.35702758787E+02  0.41587470790E+02  0.57966939872E+02  0.10566000000E+00 0.  1.
         22    1    1    0    0    0 -0.79596039916E+01 -0.19024467776E+02 -0.20327088792E+02  0.28956453661E+02  0.00000000000E+00 0.  1.
</event>
<event>
 5    1  0.6978980E-004  0.9118800E+02  0.7818608E-02  0.1130116E+00
         25   -1    0    0    0    0  0.00000000000E+00  0.00000000000E+00  0.99999998245E-14  0.12500000000E+03  0.12500000000E+03 0.  0.
        -13    1    3    3    0    0  0.87761785672E+00  0.18267729507E+02  0.32308536032E+02  0.37125904959E+02  0.10566000000E+00 0. -1.
         23    2    1    0    0    0 -0.16676012760E+02 -0.22936875824E+02 -0.59434723198E+01  0.96025622745E+02  0.91550017401E+02 0.  0.
         13    1    3    3    0    0 -0.17553630617E+02 -0.41204605331E+02 -0.38252008351E+02  0.58899717786E+02  0.10566000000E+00 0.  1.
         22    1    1    0    0    0  0.16676012760E+02  0.22936875824E+02  0.59434723198E+01  0.28974377255E+02  0.00000000000E+00 0.  1.
</event>
<event>
 5    1  0.6978980E-004  0.9118800E+02  0.7818608E-02  0.1130116E+00
         25   -1    0    0    0    0  0.00000000000E+00  0.00000000000E+00  0.99999998245E-14  0.12500000000E+03  0.12500000000E+03 0.  0.
        -13    1    3    3    0    0  0.30214153175E+01  0.38688541168E+02  0.16427485947E+02  0.42140308812E+02  0.10566000000E+00 0. -1.
         23    2    1    0    0    0 -0.16107716820E+02 -0.13388106702E+02  0.17615603347E+02  0.97631963470E+02  0.93717612366E+02 0.  0.
         13    1    3    3    0    0 -0.19129132138E+02 -0.52076647870E+02  0.11881174006E+01  0.55491654658E+02  0.10566000000E+00 0.  1.
         22    1    1    0    0    0  0.16107716820E+02  0.13388106702E+02 -0.17615603347E+02  0.27368036530E+02  0.00000000000E+00 0.  1.
</event>
<event>
 5    1  0.6978980E-004  0.9118800E+02  0.7818608E-02  0.1130116E+00
         25   -1    0    0    0    0  0.00000000000E+00  0.00000000000E+00  0.99999998245E-14  0.12500000000E+03  0.12500000000E+03 0.  0.
        -13    1    3    3    0    0  0.36556632623E+02  0.40882461795E+02 -0.55363923547E+01  0.55121918286E+02  0.10566000000E+00 0.  1.
         23    2    1    0    0    0  0.15535009268E+02  0.77122808593E+01 -0.21381331121E+02  0.97468615917E+02  0.93499486519E+02 0.  0.
         13    1    3    3    0    0 -0.21021623355E+02 -0.33170180936E+02 -0.15844938766E+02  0.42346697632E+02  0.10566000000E+00 0. -1.
         22    1    1    0    0    0 -0.15535009268E+02 -0.77122808593E+01  0.21381331121E+02  0.27531384083E+02  0.00000000000E+00 0.  1.
</event>
<event>
 5    1  0.6978980E-004  0.9118800E+02  0.7818608E-02  0.1130116E+00
         25   -1    0    0    0    0  0.00000000000E+00  0.00000000000E+00  0.99999998245E-14  0.12500000000E+03  0.12500000000E+03 0.  0.
        -13    1    3    3    0    0  0.52795566406E+01 -0.77264972734E+01 -0.54881026263E+02  0.55673249287E+02  0.10566000000E+00 0.  1.
         23    2    1    0    0    0 -0.54521369746E+01  0.15589540618E+02 -0.24618004240E+02  0.95355342689E+02  0.90630213904E+02 0.  0.
         13    1    3    3    0    0 -0.10731693615E+02  0.23316037892E+02  0.30263022023E+02  0.39682093402E+02  0.10566000000E+00 0. -1.
         22    1    1    0    0    0  0.54521369746E+01 -0.15589540618E+02  0.24618004240E+02  0.29644657311E+02  0.00000000000E+00 0.  1.
</event>
<event>
 5    1  0.6978980E-004  0.9118800E+02  0.7818608E-02  0.1130116E+00
         25   -1    0    0    0    0  0.00000000000E+00  0.00000000000E+00  0.99999998245E-14  0.12500000000E+03  0.12500000000E+03 0.  0.
        -13    1    3    3    0    0  0.33294437739E+02  0.98669896907E+01 -0.16101455924E+02  0.38277214068E+02  0.10566000000E+00 0. -1.
         23    2    1    0    0    0 -0.19967461695E+02  0.22307708893E+02 -0.89314008788E+00  0.95047853135E+02  0.90205117836E+02 0.  0.
         13    1    3    3    0    0 -0.53261899433E+02  0.12440719203E+02  0.15208315836E+02  0.56770639067E+02  0.10566000000E+00 0.  1.
         22    1    1    0    0    0  0.19967461695E+02 -0.22307708893E+02  0.89314008788E+00  0.29952146865E+02  0.00000000000E+00 0.  1.
</event>
<event>
 5    1  0.6978980E-004  0.9118800E+02  0.7818608E-02  0.1130116E+00
         25   -1    0    0    0    0  0.00000000000E+00  0.00000000000E+00  0.99999998245E-14  0.12500000000E+03  0.12500000000E+03 0.  0.
        -13    1    3    3    0    0  0.48862693237E+02 -0.21430200464E+02  0.14493691970E+02  0.55289190203E+02  0.10566000000E+00 0.  1.
         23    2    1    0    0    0  0.11216854291E+02 -0.51672243036E+01  0.24555226267E+02  0.97514055152E+02  0.93560214770E+02 0.  0.
         13    1    3    3    0    0 -0.37645838946E+02  0.16262976160E+02  0.10061534297E+02  0.42224864949E+02  0.10566000000E+00 0. -1.
         22    1    1    0    0    0 -0.11216854291E+02  0.51672243036E+01 -0.24555226267E+02  0.27485944848E+02  0.00000000000E+00 0.  1.
</event>
<event>
 5    1  0.6978980E-004  0.9118800E+02  0.7818608E-02  0.1130116E+00
         25   -1    0    0    0    0  0.00000000000E+00  0.00000000000E+00  0.99999998245E-14  0.12500000000E+03  0.12500000000E+03 0.  0.
        -13    1    3    3    0    0 -0.32396399584E+02  0.54747124059E+01  0.85888630137E+01  0.33959960451E+02  0.10566000000E+00 0.  1.
         23    2    1    0    0    0  0.22018928076E+02 -0.17564529315E+02 -0.86853264516E+01  0.95524912566E+02  0.90863788946E+02 0.  0.
         13    1    3    3    0    0  0.54415327659E+02 -0.23039241721E+02 -0.17274189465E+02  0.61564952116E+02  0.10566000000E+00 0. -1.
         22    1    1    0    0    0 -0.22018928076E+02  0.17564529315E+02  0.86853264516E+01  0.29475087434E+02  0.00000000000E+00 0. -1.
</event>
<event>
 5    1  0.6978980E-004  0.9118800E+02  0.7818608E-02  0.1130116E+00
         25   -1    0    0    0    0  0.00000000000E+00  0.00000000000E+00  0.99999998245E-14  0.12500000000E+03  0.12500000000E+03 0.  0.
        -13    1    3    3    0    0  0.97776380088E+01 -0.10725640484E+01 -0.34314066094E+02  0.35696202803E+02  0.10566000000E+00 0.  1.
         23    2    1    0    0    0 -0.27872454243E+02 -0.10240257733E+02  0.91520529113E+01  0.93927557926E+02  0.88639096800E+02 0.  0.
         13    1    3    3    0    0 -0.37650092252E+02 -0.91676936846E+01  0.43466119005E+02  0.58231355123E+02  0.10566000000E+00 0. -1.
         22    1    1    0    0    0  0.27872454243E+02  0.10240257733E+02 -0.91520529113E+01  0.31072442074E+02  0.00000000000E+00 0. -1.
</event>
<event>
 5    1  0.6978980E-004  0.9118800E+02  0.7818608E-02  0.1130116E+00
         25   -1    0    0    0    0  0.00000000000E+00  0.00000000000E+00  0.99999998245E-14  0.12500000000E+03  0.12500000000E+03 0.  0.
        -13    1    3    3    0    0  0.83068237105E+01  0.34079470759E+02 -0.45434295483E+01  0.35370433464E+02  0.10566000000E+00 0. -1.
         23    2    1    0    0    0  0.61930748387E+01 -0.27328294300E+02 -0.50355250716E-01  0.96978715573E+02  0.92842225810E+02 0.  0.
         13    1    3    3    0    0 -0.21137488718E+01 -0.61407765058E+02  0.44930742976E+01  0.61608282109E+02  0.10566000000E+00 0.  1.
         22    1    1    0    0    0 -0.61930748387E+01  0.27328294300E+02  0.50355250716E-01  0.28021284427E+02  0.00000000000E+00 0.  1.
</event>
<event>
 5    1  0.6978980E-004  0.9118800E+02  0.7818608E-02  0.1130116E+00
         25   -1    0    0    0    0  0.00000000000E+00  0.00000000000E+00  0.99999998245E-14  0.12500000000E+03  0.12500000000E+03 0.  0.
        -13    1    3    3    0    0  0.40121482602E+02  0.42548107668E+02 -0.21359882813E+02  0.62260184630E+02  0.10566000000E+00 0. -1.
         23    2    1    0    0    0  0.20295172507E+02  0.20076039324E+02 -0.64465165618E+01  0.95733996552E+02  0.91150968937E+02 0.  0.
         13    1    3    3    0    0 -0.19826310095E+02 -0.22472068344E+02  0.14913366251E+02  0.33473811923E+02  0.10566000000E+00 0.  1.
         22    1    1    0    0    0 -0.20295172507E+02 -0.20076039324E+02  0.64465165618E+01  0.29266003448E+02  0.00000000000E+00 0. -1.
</event>
<event>
 5    1  0.6978980E-004  0.9118800E+02  0.7818608E-02  0.1130116E+00
         25   -1    0    0    0    0  0.00000000000E+00  0.00000000000E+00  0.99999998245E-14  0.12500000000E+03  0.12500000000E+03 0.  0.
        -13    1    3    3    0    0 -0.29164486310E+01 -0.60614252405E+02 -0.11589028332E+02  0.61781146064E+02  0.10566000000E+00 0.  1.
         23    2    1    0    0    0 -0.32935256741E+00 -0.31075478910E+02  0.78830909004E+00  0.93912779252E+02  0.88618253272E+02 0.  0.
         13    1    3    3    0    0  0.25870960636E+01  0.29538773495E+02  0.12377337422E+02  0.32131633188E+02  0.10566000000E+00 0. -1.
         22    1    1    0    0    0  0.32935256741E+00  0.31075478910E+02 -0.78830909004E+00  0.31087220748E+02  0.00000000000E+00 0.  1.
</event>
<event>
 5    1  0.6978980E-004  0.9118800E+02  0.7818608E-02  0.1130116E+00
         25   -1    0    0    0    0  0.00000000000E+00  0.00000000000E+00  0.99999998245E-14  0.12500000000E+03  0.12500000000E+03 0.  0.
        -13    1    3    3    0    0  0.28294178695E+01 -0.35469677691E+02 -0.81761396999E+01  0.36509780408E+02  0.10566000000E+00 0.  1.
         23    2    1    0    0    0 -0.21597340230E+02  0.89285395861E+01  0.19778947361E+02  0.94383490028E+02  0.89279742983E+02 0.  0.
         13    1    3    3    0    0 -0.24426758099E+02  0.44398217277E+02  0.27955087061E+02  0.57873709621E+02  0.10566000000E+00 0. -1.
         22    1    1    0    0    0  0.21597340230E+02 -0.89285395861E+01 -0.19778947361E+02  0.30616509972E+02  0.00000000000E+00 0. -1.
</event>
<event>
 5    1  0.6978980E-004  0.9118800E+02  0.7818608E-02  0.1130116E+00
         25   -1    0    0    0    0  0.00000000000E+00  0.00000000000E+00  0.99999998245E-14  0.12500000000E+03  0.12500000000E+03 0.  0.
        -13    1    3    3    0    0 -0.30182836101E+02  0.49324630471E+02  0.36073431361E+01  0.57939165119E+02  0.10566000000E+00 0.  1.
         23    2    1    0    0    0 -0.40025601157E+01  0.28059988866E+02  0.14208177809E+02  0.93294231136E+02  0.87741425700E+02 0.  0.
         13    1    3    3    0    0  0.26180275985E+02 -0.21264641605E+02  0.10600834673E+02  0.35355066017E+02  0.10566000000E+00 0. -1.
         22    1    1    0    0    0  0.40025601157E+01 -0.28059988866E+02 -0.14208177809E+02  0.31705768864E+02  0.00000000000E+00 0.  1.
</event>
<event>
 5    1  0.6978980E-004  0.9118800E+02  0.7818608E-02  0.1130116E+00
         25   -1    0    0    0    0  0.00000000000E+00  0.00000000000E+00  0.99999998245E-14  0.12500000000E+03  0.12500000000E+03 0.  0.
        -13    1    3    3    0    0 -0.12119459549E+02 -0.48626669385E+02  0.11503550520E+02  0.51417673166E+02  0.10566000000E+00 0. -1.
         23    2    1    0    0    0  0.97016743438E+01 -0.33961866435E+02 -0.13005760040E+02  0.87361181594E+02  0.78837144789E+02 0.  0.
         13    1    3    3    0    0  0.21821133893E+02  0.14664802951E+02 -0.24509310559E+02  0.35943508428E+02  0.10566000000E+00 0.  1.
         22    1    1    0    0    0 -0.97016743438E+01  0.33961866435E+02  0.13005760040E+02  0.37638818406E+02  0.00000000000E+00 0. -1.
</event>
<event>
 5    1  0.6978980E-004  0.9118800E+02  0.7818608E-02  0.1130116E+00
         25   -1    0    0    0    0  0.00000000000E+00  0.00000000000E+00  0.99999998245E-14  0.12500000000E+03  0.12500000000E+03 0.  0.
        -13    1    3    3    0    0 -0.53043906891E+01  0.94048489485E+01  0.35479575766E+02  0.37086374922E+02  0.10566000000E+00 0.  1.
         23    2    1    0    0    0 -0.21218326096E+02  0.71519207329E+01 -0.20079835013E+02  0.94923977879E+02  0.90033296450E+02 0.  0.
         13    1    3    3    0    0 -0.15913935407E+02 -0.22529282156E+01 -0.55559410778E+02  0.57837602957E+02  0.10566000000E+00 0. -1.
         22    1    1    0    0    0  0.21218326096E+02 -0.71519207329E+01  0.20079835013E+02  0.30076022121E+02  0.00000000000E+00 0. -1.
</event>
<event>
 5    1  0.6978980E-004  0.9118800E+02  0.7818608E-02  0.1130116E+00
         25   -1    0    0    0    0  0.00000000000E+00  0.00000000000E+00  0.99999998245E-14  0.12500000000E+03  0.12500000000E+03 0.  0.
        -13    1    3    3    0    0  0.52886529530E+02  0.25904735285E+00 -0.21027638854E+02  0.56914188662E+02  0.10566000000E+00 0. -1.
         23    2    1    0    0    0  0.22423990947E+02 -0.12238911845E+02  0.51018179047E+01  0.98948994663E+02  0.95458099006E+02 0.  0.
         13    1    3    3    0    0 -0.30462538583E+02 -0.12497959198E+02  0.26129456759E+02  0.42034806001E+02  0.10566000000E+00 0.  1.
         22    1    1    0    0    0 -0.22423990947E+02  0.12238911845E+02 -0.51018179047E+01  0.26051005337E+02  0.00000000000E+00 0. -1.
</event>
<event>
 5    1  0.6978980E-004  0.9118800E+02  0.7818608E-02  0.1130116E+00
         25   -1    0    0    0    0  0.00000000000E+00  0.00000000000E+00  0.99999998245E-14  0.12500000000E+03  0.12500000000E+03 0.  0.
        -13    1    3    3    0    0 -0.35342014600E+02 -0.48639910422E+02 -0.20274173877E+01  0.60158295082E+02  0.10566000000E+00 0.  1.
         23    2    1    0    0    0 -0.94307136973E+01 -0.24470570224E+02 -0.10761713130E+02  0.96652837224E+02  0.92402431278E+02 0.  0.
         13    1    3    3    0    0  0.25911300903E+02  0.24169340197E+02 -0.87342957422E+01  0.36494542143E+02  0.10566000000E+00 0. -1.
         22    1    1    0    0    0  0.94307136973E+01  0.24470570224E+02  0.10761713130E+02  0.28347162776E+02  0.00000000000E+00 0.  1.
</event>
<event>
 5    1  0.6978980E-004  0.9118800E+02  0.7818608E-02  0.1130116E+00
         25   -1    0    0    0    0  0.00000000000E+00  0.00000000000E+00  0.99999998245E-14  0.12500000000E+03  0.12500000000E+03 0.  0.
        -13    1    3    3    0    0  0.33919699202E+02 -0.48746541761E+02 -0.17014753714E+02  0.61776082229E+02  0.10566000000E+00 0. -1.
         23    2    1    0    0    0  0.11495916610E+02 -0.23794180710E+02 -0.12957755249E+02  0.95568340932E+02  0.90923513093E+02 0.  0.
         13    1    3    3    0    0 -0.22423782592E+02  0.24952361050E+02  0.40569984646E+01  0.33792258704E+02  0.10566000000E+00 0.  1.
         22    1    1    0    0    0 -0.11495916610E+02  0.23794180710E+02  0.12957755249E+02  0.29431659068E+02  0.00000000000E+00 0. -1.
</event>
<event>
 5    1  0.6978980E-004  0.9118800E+02  0.7818608E-02  0.1130116E+00
         25   -1    0    0    0    0  0.00000000000E+00  0.00000000000E+00  0.99999998245E-14  0.12500000000E+03  0.12500000000E+03 0.  0.
        -13    1    3    3    0    0 -0.19580310654E+02  0.54993762556E+02 -0.69611438099E+01  0.58789209660E+02  0.10566000000E+00 0.  1.
         23    2    1    0    0    0  0.58685061410E+01  0.27046429782E+02 -0.64106635052E+01  0.96591456657E+02  0.92319359640E+02 0.  0.
         13    1    3    3    0    0  0.25448816795E+02 -0.27947332773E+02  0.55048030474E+00  0.37802246997E+02  0.10566000000E+00 0. -1.
         22    1    1    0    0    0 -0.58685061410E+01 -0.27046429782E+02  0.64106635052E+01  0.28408543343E+02  0.00000000000E+00 0.  1.
</event>
<event>
 5    1  0.6978980E-004  0.9118800E+02  0.7818608E-02  0.1130116E+00
         25   -1    0    0    0    0  0.00000000000E+00  0.00000000000E+00  0.99999998245E-14  0.12500000000E+03  0.12500000000E+03 0.  0.
        -13    1    3    3    0    0 -0.78782358000E+01 -0.37870114334E+02  0.17459068967E+02  0.42438690039E+02  0.10566000000E+00 0.  1.
         23    2    1    0    0    0  0.26994274641E+02 -0.72977949602E+01 -0.87386400038E+01  0.95703029102E+02  0.91108491786E+02 0.  0.
         13    1    3    3    0    0  0.34872510441E+02  0.30572319374E+02 -0.26197708971E+02  0.53264339062E+02  0.10566000000E+00 0. -1.
         22    1    1    0    0    0 -0.26994274641E+02  0.72977949602E+01  0.87386400038E+01  0.29296970898E+02  0.00000000000E+00 0. -1.
</event>
<event>
 5    1  0.6978980E-004  0.9118800E+02  0.7818608E-02  0.1130116E+00
         25   -1    0    0    0    0  0.00000000000E+00  0.00000000000E+00  0.99999998245E-14  0.12500000000E+03  0.12500000000E+03 0.  0.
        -13    1    3    3    0    0 -0.18678991480E+02  0.73327804053E+01 -0.28658079453E+02  0.34985297957E+02  0.10566000000E+00 0.  1.
         23    2    1    0    0    0  0.28184970336E+02  0.91549769326E+00  0.89485070544E+01  0.95414421294E+02  0.90711660350E+02 0.  0.
         13    1    3    3    0    0  0.46863961816E+02 -0.64172827120E+01  0.37606586507E+02  0.60429123337E+02  0.10566000000E+00 0. -1.
         22    1    1    0    0    0 -0.28184970336E+02 -0.91549769326E+00 -0.89485070544E+01  0.29585578706E+02  0.00000000000E+00 0. -1.
</event>
<event>
 5    1  0.6978980E-004  0.9118800E+02  0.7818608E-02  0.1130116E+00
         25   -1    0    0    0    0  0.00000000000E+00  0.00000000000E+00  0.99999998245E-14  0.12500000000E+03  0.12500000000E+03 0.  0.
        -13    1    3    3    0    0  0.22820633598E+02 -0.13379441561E+02  0.26375170802E+02  0.37355743509E+02  0.10566000000E+00 0.  1.
         23    2    1    0    0    0 -0.10473137738E+02  0.15386752612E+02 -0.17470840660E+02  0.99472190784E+02  0.96140770207E+02 0.  0.
         13    1    3    3    0    0 -0.33293771336E+02  0.28766194172E+02 -0.43846011462E+02  0.62116447275E+02  0.10566000000E+00 0. -1.
         22    1    1    0    0    0  0.10473137738E+02 -0.15386752612E+02  0.17470840660E+02  0.25527809216E+02  0.00000000000E+00 0. -1.
</event>
<event>
 5    1  0.6978980E-004  0.9118800E+02  0.7818608E-02  0.1130116E+00
         25   -1    0    0    0    0  0.00000000000E+00  0.00000000000E+00  0.99999998245E-14  0.12500000000E+03  0.12500000000E+03 0.  0.
        -13    1    3    3    0    0  0.19499145946E+02 -0.17543979903E+02  0.23712607142E+02  0.35359677954E+02  0.10566000000E+00 0. -1.
         23    2    1    0    0    0 -0.99874737321E+01  0.26402766427E+02 -0.61259225123E+01  0.96114317851E+02  0.91671039390E+02 0.  0.
         13    1    3    3    0    0 -0.29486619679E+02  0.43946746331E+02 -0.29838529654E+02  0.60754639898E+02  0.10566000000E+00 0.  1.
         22    1    1    0    0    0  0.99874737321E+01 -0.26402766427E+02  0.61259225123E+01  0.28885682149E+02  0.00000000000E+00 0.  1.
</event>
<event>
 5    1  0.6978980E-004  0.9118800E+02  0.7818608E-02  0.1130116E+00
         25   -1    0    0    0    0  0.00000000000E+00  0.00000000000E+00  0.99999998245E-14  0.12500000000E+03  0.12500000000E+03 0.  0.
        -13    1    3    3    0    0  0.17714037471E+02 -0.34433755537E+02  0.23081271857E+02  0.45080227578E+02  0.10566000000E+00 0.  1.
         23    2    1    0    0    0 -0.24057293409E+02 -0.15751811628E+02  0.19336303103E+00  0.96243951506E+02  0.91847634028E+02 0.  0.
         13    1    3    3    0    0 -0.41771330880E+02  0.18681943909E+02 -0.22887908826E+02  0.51163723928E+02  0.10566000000E+00 0. -1.
         22    1    1    0    0    0  0.24057293409E+02  0.15751811628E+02 -0.19336303103E+00  0.28756048494E+02  0.00000000000E+00 0. -1.
</event>
<event>
 5    1  0.6978980E-004  0.9118800E+02  0.7818608E-02  0.1130116E+00
         25   -1    0    0    0    0  0.00000000000E+00  0.00000000000E+00  0.99999998245E-14  0.12500000000E+03  0.12500000000E+03 0.  0.
        -13    1    3    3    0    0  0.54078287167E+01  0.20510725339E+02  0.26518507450E+02  0.33958457956E+02  0.10566000000E+00 0.  1.
         23    2    1    0    0    0 -0.17018021928E+02 -0.72747145251E+01 -0.23295210122E+02  0.95247666370E+02  0.90481581510E+02 0.  0.
         13    1    3    3    0    0 -0.22425850645E+02 -0.27785439864E+02 -0.49813717572E+02  0.61289208414E+02  0.10566000000E+00 0. -1.
         22    1    1    0    0    0  0.17018021928E+02  0.72747145251E+01  0.23295210122E+02  0.29752333630E+02  0.00000000000E+00 0. -1.
</event>
<event>
 5    1  0.6978980E-004  0.9118800E+02  0.7818608E-02  0.1130116E+00
         25   -1    0    0    0    0  0.00000000000E+00  0.00000000000E+00  0.99999998245E-14  0.12500000000E+03  0.12500000000E+03 0.  0.
        -13    1    3    3    0    0 -0.34559131132E+02 -0.67575114698E+01 -0.45748504014E+02  0.57731570994E+02  0.10566000000E+00 0.  1.
         23    2    1    0    0    0 -0.46496034304E+01  0.84902379723E+01 -0.27291268741E+02  0.96042854036E+02  0.91573541534E+02 0.  0.
         13    1    3    3    0    0  0.29909527702E+02  0.15247749442E+02  0.18457235274E+02  0.38311283043E+02  0.10566000000E+00 0. -1.
         22    1    1    0    0    0  0.46496034304E+01 -0.84902379723E+01  0.27291268741E+02  0.28957145964E+02  0.00000000000E+00 0.  1.
</event>
<event>
 5    1  0.6978980E-004  0.9118800E+02  0.7818608E-02  0.1130116E+00
         25   -1    0    0    0    0  0.00000000000E+00  0.00000000000E+00  0.99999998245E-14  0.12500000000E+03  0.12500000000E+03 0.  0.
        -13    1    3    3    0    0 -0.11712267244E+02  0.24814787313E+02  0.36526175529E+02  0.45685047184E+02  0.10566000000E+00 0. -1.
         23    2    1    0    0    0 -0.23551745486E+02 -0.14500848545E+02  0.64002337630E+01  0.96611229048E+02  0.92346127488E+02 0.  0.
         13    1    3    3    0    0 -0.11839478241E+02 -0.39315635858E+02 -0.30125941766E+02  0.50926181864E+02  0.10566000000E+00 0.  1.
         22    1    1    0    0    0  0.23551745486E+02  0.14500848545E+02 -0.64002337630E+01  0.28388770952E+02  0.00000000000E+00 0. -1.
</event>
<event>
 5    1  0.6978980E-004  0.9118800E+02  0.7818608E-02  0.1130116E+00
         25   -1    0    0    0    0  0.00000000000E+00  0.00000000000E+00  0.99999998245E-14  0.12500000000E+03  0.12500000000E+03 0.  0.
        -13    1    3    3    0    0 -0.21750604092E+02  0.34114790797E+01 -0.38499973733E+01  0.22350852595E+02  0.10566000000E+00 0.  1.
         23    2    1    0    0    0  0.36210606021E+02  0.21161940334E+02 -0.63838628292E+00  0.83054282171E+02  0.71683823439E+02 0.  0.
         13    1    3    3    0    0  0.57961210113E+02  0.17750461255E+02  0.32116110904E+01  0.60703429577E+02  0.10566000000E+00 0. -1.
         22    1    1    0    0    0 -0.36210606021E+02 -0.21161940334E+02  0.63838628292E+00  0.41945717829E+02  0.00000000000E+00 0. -1.
</event>
<event>
 5    1  0.6978980E-004  0.9118800E+02  0.7818608E-02  0.1130116E+00
         25   -1    0    0    0    0  0.00000000000E+00  0.00000000000E+00  0.99999998245E-14  0.12500000000E+03  0.12500000000E+03 0.  0.
        -13    1    3    3    0    0 -0.67429917582E+01 -0.49408855099E+02 -0.36316924634E+02  0.61689813413E+02  0.10566000000E+00 0.  1.
         23    2    1    0    0    0  0.25559463891E+01 -0.20440750658E+02 -0.20325480078E+02  0.96060713730E+02  0.91597917185E+02 0.  0.
         13    1    3    3    0    0  0.92989381473E+01  0.28968104441E+02  0.15991444557E+02  0.34370900317E+02  0.10566000000E+00 0. -1.
         22    1    1    0    0    0 -0.25559463891E+01  0.20440750658E+02  0.20325480078E+02  0.28939286270E+02  0.00000000000E+00 0.  1.
</event>
<event>
 5    1  0.6978980E-004  0.9118800E+02  0.7818608E-02  0.1130116E+00
         25   -1    0    0    0    0  0.00000000000E+00  0.00000000000E+00  0.99999998245E-14  0.12500000000E+03  0.12500000000E+03 0.  0.
        -13    1    3    3    0    0  0.15641426107E+02  0.23973095180E+02  0.36375351292E+02  0.46287588497E+02  0.10566000000E+00 0. -1.
         23    2    1    0    0    0 -0.46933990542E+01 -0.96543196013E+01 -0.12187559925E+02  0.10875898714E+03  0.10753951267E+03 0.  0.
         13    1    3    3    0    0 -0.20334825161E+02 -0.33627414781E+02 -0.48562911217E+02  0.62471398648E+02  0.10566000000E+00 0.  1.
         22    1    1    0    0    0  0.46933990542E+01  0.96543196013E+01  0.12187559925E+02  0.16241012855E+02  0.00000000000E+00 0.  1.
</event>
<event>
 5    1  0.6978980E-004  0.9118800E+02  0.7818608E-02  0.1130116E+00
         25   -1    0    0    0    0  0.00000000000E+00  0.00000000000E+00  0.99999998245E-14  0.12500000000E+03  0.12500000000E+03 0.  0.
        -13    1    3    3    0    0  0.13257488989E+02  0.17010060224E+02 -0.43769022228E+02  0.48793868815E+02  0.10566000000E+00 0.  1.
         23    2    1    0    0    0  0.28125867626E+02  0.23480102371E+02 -0.88298556572E+01  0.87312522133E+02  0.78759955137E+02 0.  0.
         13    1    3    3    0    0  0.14868378637E+02  0.64700421473E+01  0.34939166571E+02  0.38518653317E+02  0.10566000000E+00 0. -1.
         22    1    1    0    0    0 -0.28125867626E+02 -0.23480102371E+02  0.88298556572E+01  0.37687477867E+02  0.00000000000E+00 0.  1.
</event>
<event>
 5    1  0.6978980E-004  0.9118800E+02  0.7818608E-02  0.1130116E+00
         25   -1    0    0    0    0  0.00000000000E+00  0.00000000000E+00  0.99999998245E-14  0.12500000000E+03  0.12500000000E+03 0.  0.
        -13    1    3    3    0    0  0.99194465034E+01 -0.19002398755E+02 -0.31099860438E+02  0.37771670081E+02  0.10566000000E+00 0. -1.
         23    2    1    0    0    0  0.18104371025E+02  0.16948511755E+02  0.14390175247E+02  0.96327758292E+02  0.91961620109E+02 0.  0.
         13    1    3    3    0    0  0.81849245216E+01  0.35950910510E+02  0.45490035686E+02  0.58556088211E+02  0.10566000000E+00 0.  1.
         22    1    1    0    0    0 -0.18104371025E+02 -0.16948511755E+02 -0.14390175247E+02  0.28672241708E+02  0.00000000000E+00 0.  1.
</event>
<event>
 5    1  0.6978980E-004  0.9118800E+02  0.7818608E-02  0.1130116E+00
         25   -1    0    0    0    0  0.00000000000E+00  0.00000000000E+00  0.99999998245E-14  0.12500000000E+03  0.12500000000E+03 0.  0.
        -13    1    3    3    0    0 -0.13465270575E+02  0.33227854197E+02 -0.27694731527E+02  0.45303566356E+02  0.10566000000E+00 0. -1.
         23    2    1    0    0    0 -0.42639354475E+01  0.20000912173E+02  0.20453622652E+02  0.96076509324E+02  0.91619470262E+02 0.  0.
         13    1    3    3    0    0  0.92013351277E+01 -0.13226942024E+02  0.48148354179E+02  0.50772942968E+02  0.10566000000E+00 0.  1.
         22    1    1    0    0    0  0.42639354475E+01 -0.20000912173E+02 -0.20453622652E+02  0.28923490676E+02  0.00000000000E+00 0. -1.
</event>
<event>
 5    1  0.6978980E-004  0.9118800E+02  0.7818608E-02  0.1130116E+00
         25   -1    0    0    0    0  0.00000000000E+00  0.00000000000E+00  0.99999998245E-14  0.12500000000E+03  0.12500000000E+03 0.  0.
        -13    1    3    3    0    0 -0.31486689452E+02  0.31143807094E+02  0.16049215768E+02  0.47105592277E+02  0.10566000000E+00 0.  1.
         23    2    1    0    0    0 -0.16472989284E+02 -0.32584720053E+01 -0.19819123312E+02  0.99023574829E+02  0.95555709967E+02 0.  0.
         13    1    3    3    0    0  0.15013700167E+02 -0.34402279099E+02 -0.35868339081E+02  0.51917982553E+02  0.10566000000E+00 0. -1.
         22    1    1    0    0    0  0.16472989284E+02  0.32584720053E+01  0.19819123312E+02  0.25976425171E+02  0.00000000000E+00 0. -1.
</event>
<event>
 5    1  0.6978980E-004  0.9118800E+02  0.7818608E-02  0.1130116E+00
         25   -1    0    0    0    0  0.00000000000E+00  0.00000000000E+00  0.99999998245E-14  0.12500000000E+03  0.12500000000E+03 0.  0.
        -13    1    3    3    0    0  0.10363571128E+02  0.20050450055E+02 -0.43875309693E+01  0.22993167376E+02  0.10566000000E+00 0. -1.
         23    2    1    0    0    0 -0.19741399579E+02 -0.24604582498E+02 -0.28948808269E+02  0.82184794320E+02  0.70151255014E+02 0.  0.
         13    1    3    3    0    0 -0.30104970708E+02 -0.44655032553E+02 -0.24561277299E+02  0.59191626944E+02  0.10566000000E+00 0.  1.
         22    1    1    0    0    0  0.19741399579E+02  0.24604582498E+02  0.28948808269E+02  0.42815205680E+02  0.00000000000E+00 0.  1.
</event>
<event>
 5    1  0.6978980E-004  0.9118800E+02  0.7818608E-02  0.1130116E+00
         25   -1    0    0    0    0  0.00000000000E+00  0.00000000000E+00  0.99999998245E-14  0.12500000000E+03  0.12500000000E+03 0.  0.
        -13    1    3    3    0    0  0.17772845574E+01 -0.80422030449E+01 -0.43313686193E+02  0.44089934746E+02  0.10566000000E+00 0.  1.
         23    2    1    0    0    0 -0.15058573190E+02  0.24120810708E+02 -0.64215151998E+01  0.95848499297E+02  0.91307857407E+02 0.  0.
         13    1    3    3    0    0 -0.16835857748E+02  0.32163013753E+02  0.36892170993E+02  0.51758564552E+02  0.10566000000E+00 0. -1.
         22    1    1    0    0    0  0.15058573190E+02 -0.24120810708E+02  0.64215151998E+01  0.29151500703E+02  0.00000000000E+00 0. -1.
</event>
<event>
 5    1  0.6978980E-004  0.9118800E+02  0.7818608E-02  0.1130116E+00
         25   -1    0    0    0    0  0.00000000000E+00  0.00000000000E+00  0.99999998245E-14  0.12500000000E+03  0.12500000000E+03 0.  0.
        -13    1    3    3    0    0  0.10797754320E+02 -0.39455611900E+02  0.31738459644E+01  0.41029517070E+02  0.10566000000E+00 0. -1.
         23    2    1    0    0    0  0.10357420301E+02  0.74106646203E+01 -0.25868315172E+02  0.96166619428E+02  0.91742328600E+02 0.  0.
         13    1    3    3    0    0 -0.44033401887E+00  0.46866276520E+02 -0.29042161136E+02  0.55137102358E+02  0.10566000000E+00 0.  1.
         22    1    1    0    0    0 -0.10357420301E+02 -0.74106646203E+01  0.25868315172E+02  0.28833380572E+02  0.00000000000E+00 0.  1.
</event>
<event>
 5    1  0.6978980E-004  0.9118800E+02  0.7818608E-02  0.1130116E+00
         25   -1    0    0    0    0  0.00000000000E+00  0.00000000000E+00  0.99999998245E-14  0.12500000000E+03  0.12500000000E+03 0.  0.
        -13    1    3    3    0    0  0.19208850451E+02 -0.17129144403E+02  0.45810238495E+02  0.52544996323E+02  0.10566000000E+00 0. -1.
         23    2    1    0    0    0  0.66862910512E+01 -0.27231807189E+02  0.48620405329E+01  0.96540954884E+02  0.92250955122E+02 0.  0.
         13    1    3    3    0    0 -0.12522559400E+02 -0.10102662786E+02 -0.40948197962E+02  0.43995958560E+02  0.10566000000E+00 0.  1.
         22    1    1    0    0    0 -0.66862910512E+01  0.27231807189E+02 -0.48620405329E+01  0.28459045116E+02  0.00000000000E+00 0. -1.
</event>
<event>
 5    1  0.6978980E-004  0.9118800E+02  0.7818608E-02  0.1130116E+00
         25   -1    0    0    0    0  0.00000000000E+00  0.00000000000E+00  0.99999998245E-14  0.12500000000E+03  0.12500000000E+03 0.  0.
        -13    1    3    3    0    0  0.29025916553E+02 -0.56616000159E+01 -0.36941441586E+02  0.47320596118E+02  0.10566000000E+00 0.  1.
         23    2    1    0    0    0  0.10772509294E+02 -0.27947593623E+02  0.10871143724E+01  0.95028400719E+02  0.90178157998E+02 0.  0.
         13    1    3    3    0    0 -0.18253407259E+02 -0.22285993607E+02  0.38028555958E+02  0.47707804601E+02  0.10566000000E+00 0. -1.
         22    1    1    0    0    0 -0.10772509294E+02  0.27947593623E+02 -0.10871143724E+01  0.29971599281E+02  0.00000000000E+00 0. -1.
</event>
<event>
 5    1  0.6978980E-004  0.9118800E+02  0.7818608E-02  0.1130116E+00
         25   -1    0    0    0    0  0.00000000000E+00  0.00000000000E+00  0.99999998245E-14  0.12500000000E+03  0.12500000000E+03 0.  0.
        -13    1    3    3    0    0  0.31366847725E+02 -0.18547285180E+02 -0.37276552751E+02  0.52129007978E+02  0.10566000000E+00 0.  1.
         23    2    1    0    0    0  0.73370421745E+01 -0.31122951074E+02 -0.79987477192E+01  0.92038655421E+02  0.85934066907E+02 0.  0.
         13    1    3    3    0    0 -0.24029805550E+02 -0.12575665894E+02  0.29277805032E+02  0.39909647443E+02  0.10566000000E+00 0. -1.
         22    1    1    0    0    0 -0.73370421745E+01  0.31122951074E+02  0.79987477192E+01  0.32961344579E+02  0.00000000000E+00 0.  1.
</event>
<event>
 5    1  0.6978980E-004  0.9118800E+02  0.7818608E-02  0.1130116E+00
         25   -1    0    0    0    0  0.00000000000E+00  0.00000000000E+00  0.99999998245E-14  0.12500000000E+03  0.12500000000E+03 0.  0.
        -13    1    3    3    0    0  0.11764730320E+02  0.29155925133E+02 -0.15763380618E+02  0.35170615326E+02  0.10566000000E+00 0.  1.
         23    2    1    0    0    0 -0.30167673331E+02 -0.79544855054E+01  0.14945572230E+01  0.93765466945E+02  0.88410218506E+02 0.  0.
         13    1    3    3    0    0 -0.41932403651E+02 -0.37110410639E+02  0.17257937840E+02  0.58594851619E+02  0.10566000000E+00 0. -1.
         22    1    1    0    0    0  0.30167673331E+02  0.79544855054E+01 -0.14945572230E+01  0.31234533055E+02  0.00000000000E+00 0. -1.
</event>
<event>
 5    1  0.6978980E-004  0.9118800E+02  0.7818608E-02  0.1130116E+00
         25   -1    0    0    0    0  0.00000000000E+00  0.00000000000E+00  0.99999998245E-14  0.12500000000E+03  0.12500000000E+03 0.  0.
        -13    1    3    3    0    0  0.17951203194E+02  0.21602156298E+02 -0.20518459240E+02  0.34783863880E+02  0.10566000000E+00 0.  1.
         23    2    1    0    0    0 -0.23992802003E+02 -0.11824677182E+02  0.99410146585E+01  0.96464034783E+02  0.92146669478E+02 0.  0.
         13    1    3    3    0    0 -0.41944005196E+02 -0.33426833480E+02  0.30459473898E+02  0.61680170903E+02  0.10566000000E+00 0. -1.
         22    1    1    0    0    0  0.23992802003E+02  0.11824677182E+02 -0.99410146585E+01  0.28535965217E+02  0.00000000000E+00 0. -1.
</event>
<event>
 5    1  0.6978980E-004  0.9118800E+02  0.7818608E-02  0.1130116E+00
         25   -1    0    0    0    0  0.00000000000E+00  0.00000000000E+00  0.99999998245E-14  0.12500000000E+03  0.12500000000E+03 0.  0.
        -13    1    3    3    0    0 -0.32612905683E-01 -0.55331097584E+02 -0.54766290191E+01  0.55601583187E+02  0.10566000000E+00 0.  1.
         23    2    1    0    0    0  0.94793671063E+01 -0.22102553551E+02  0.15833396326E+02  0.96206290385E+02  0.91796364831E+02 0.  0.
         13    1    3    3    0    0  0.95119800120E+01  0.33228544033E+02  0.21310025345E+02  0.40604707197E+02  0.10566000000E+00 0. -1.
         22    1    1    0    0    0 -0.94793671063E+01  0.22102553551E+02 -0.15833396326E+02  0.28793709615E+02  0.00000000000E+00 0.  1.
</event>
<event>
 5    1  0.6978980E-004  0.9118800E+02  0.7818608E-02  0.1130116E+00
         25   -1    0    0    0    0  0.00000000000E+00  0.00000000000E+00  0.99999998245E-14  0.12500000000E+03  0.12500000000E+03 0.  0.
        -13    1    3    3    0    0 -0.21152187277E+02 -0.68784947977E+01  0.44707523830E+02  0.49934983412E+02  0.10566000000E+00 0.  1.
         23    2    1    0    0    0 -0.34855523658E+02 -0.12104431455E+01  0.84407467904E+01  0.89116592853E+02  0.81572962514E+02 0.  0.
         13    1    3    3    0    0 -0.13703336381E+02  0.56680516522E+01 -0.36266777040E+02  0.39181609441E+02  0.10566000000E+00 0. -1.
         22    1    1    0    0    0  0.34855523658E+02  0.12104431455E+01 -0.84407467904E+01  0.35883407147E+02  0.00000000000E+00 0.  1.
</event>
<event>
 5    1  0.6978980E-004  0.9118800E+02  0.7818608E-02  0.1130116E+00
         25   -1    0    0    0    0  0.00000000000E+00  0.00000000000E+00  0.99999998245E-14  0.12500000000E+03  0.12500000000E+03 0.  0.
        -13    1    3    3    0    0 -0.34495651798E+02  0.18663020905E+02  0.10388492999E+02  0.40573270673E+02  0.10566000000E+00 0.  1.
         23    2    1    0    0    0  0.20089979348E+02  0.14203992235E+02  0.16036271091E+02  0.95631263968E+02  0.91009977431E+02 0.  0.
         13    1    3    3    0    0  0.54585631146E+02 -0.44590286698E+01  0.56477780916E+01  0.55057993295E+02  0.10566000000E+00 0. -1.
         22    1    1    0    0    0 -0.20089979348E+02 -0.14203992235E+02 -0.16036271091E+02  0.29368736032E+02  0.00000000000E+00 0. -1.
</event>
<event>
 5    1  0.6978980E-004  0.9118800E+02  0.7818608E-02  0.1130116E+00
         25   -1    0    0    0    0  0.00000000000E+00  0.00000000000E+00  0.99999998245E-14  0.12500000000E+03  0.12500000000E+03 0.  0.
        -13    1    3    3    0    0 -0.25217925758E+02  0.28112881767E+02  0.29049548464E+02  0.47646252012E+02  0.10566000000E+00 0.  1.
         23    2    1    0    0    0 -0.25045600342E+02 -0.14558904357E+02  0.10334180534E+02  0.94242251710E+02  0.89081776630E+02 0.  0.
         13    1    3    3    0    0  0.17232541553E+00 -0.42671786124E+02 -0.18715367930E+02  0.46595999698E+02  0.10566000000E+00 0. -1.
         22    1    1    0    0    0  0.25045600342E+02  0.14558904357E+02 -0.10334180534E+02  0.30757748290E+02  0.00000000000E+00 0.  1.
</event>
<event>
 5    1  0.6978980E-004  0.9118800E+02  0.7818608E-02  0.1130116E+00
         25   -1    0    0    0    0  0.00000000000E+00  0.00000000000E+00  0.99999998245E-14  0.12500000000E+03  0.12500000000E+03 0.  0.
        -13    1    3    3    0    0  0.25311796152E+02  0.26557862195E+02 -0.12825239195E+02  0.38865215723E+02  0.10566000000E+00 0.  1.
         23    2    1    0    0    0 -0.26148628040E+02  0.10873102918E+02  0.63490629863E+01  0.95977840945E+02  0.91484754119E+02 0.  0.
         13    1    3    3    0    0 -0.51460424191E+02 -0.15684759277E+02  0.19174302181E+02  0.57112625222E+02  0.10566000000E+00 0. -1.
         22    1    1    0    0    0  0.26148628040E+02 -0.10873102918E+02 -0.63490629863E+01  0.29022159055E+02  0.00000000000E+00 0. -1.
</event>
<event>
 5    1  0.6978980E-004  0.9118800E+02  0.7818608E-02  0.1130116E+00
         25   -1    0    0    0    0  0.00000000000E+00  0.00000000000E+00  0.99999998245E-14  0.12500000000E+03  0.12500000000E+03 0.  0.
        -13    1    3    3    0    0 -0.17239879076E+02  0.41138298349E+02 -0.36298023357E+01  0.44752202747E+02  0.10566000000E+00 0. -1.
         23    2    1    0    0    0 -0.19077025797E+01 -0.71305245752E+01 -0.24412479986E+02  0.99496022096E+02  0.96171750135E+02 0.  0.
         13    1    3    3    0    0  0.15332176496E+02 -0.48268822924E+02 -0.20782677650E+02  0.54743819350E+02  0.10566000000E+00 0.  1.
         22    1    1    0    0    0  0.19077025797E+01  0.71305245752E+01  0.24412479986E+02  0.25503977904E+02  0.00000000000E+00 0.  1.
</event>
<event>
 5    1  0.6978980E-004  0.9118800E+02  0.7818608E-02  0.1130116E+00
         25   -1    0    0    0    0  0.00000000000E+00  0.00000000000E+00  0.99999998245E-14  0.12500000000E+03  0.12500000000E+03 0.  0.
        -13    1    3    3    0    0  0.79777991441E+01 -0.15481305141E+02  0.53795114237E+02  0.56544155912E+02  0.10566000000E+00 0. -1.
         23    2    1    0    0    0 -0.12493351267E+02 -0.16831989422E+02  0.20320905845E+02  0.95805156138E+02  0.91248501546E+02 0.  0.
         13    1    3    3    0    0 -0.20471150411E+02 -0.13506842807E+01 -0.33474208392E+02  0.39261000225E+02  0.10566000000E+00 0.  1.
         22    1    1    0    0    0  0.12493351267E+02  0.16831989422E+02 -0.20320905845E+02  0.29194843862E+02  0.00000000000E+00 0. -1.
</event>
<event>
 5    1  0.6978980E-004  0.9118800E+02  0.7818608E-02  0.1130116E+00
         25   -1    0    0    0    0  0.00000000000E+00  0.00000000000E+00  0.99999998245E-14  0.12500000000E+03  0.12500000000E+03 0.  0.
        -13    1    3    3    0    0 -0.15611023512E+02  0.46409607891E+02  0.22489741202E+02  0.53882793015E+02  0.10566000000E+00 0.  1.
         23    2    1    0    0    0 -0.17381169561E+02  0.22291042142E+02 -0.10551114155E+02  0.94828463331E+02  0.89900588611E+02 0.  0.
         13    1    3    3    0    0 -0.17701460491E+01 -0.24118565749E+02 -0.33040855357E+02  0.40945670316E+02  0.10566000000E+00 0. -1.
         22    1    1    0    0    0  0.17381169561E+02 -0.22291042142E+02  0.10551114155E+02  0.30171536669E+02  0.00000000000E+00 0.  1.
</event>
<event>
 5    1  0.6978980E-004  0.9118800E+02  0.7818608E-02  0.1130116E+00
         25   -1    0    0    0    0  0.00000000000E+00  0.00000000000E+00  0.99999998245E-14  0.12500000000E+03  0.12500000000E+03 0.  0.
        -13    1    3    3    0    0 -0.47651164618E+02 -0.19106459130E+02 -0.37740560655E+01  0.51477615846E+02  0.10566000000E+00 0.  1.
         23    2    1    0    0    0 -0.41581851481E+01 -0.26686268061E+02 -0.10276780800E+02  0.96102601668E+02  0.91655062146E+02 0.  0.
         13    1    3    3    0    0  0.43492979470E+02 -0.75798089306E+01 -0.65027247342E+01  0.44624985822E+02  0.10566000000E+00 0. -1.
         22    1    1    0    0    0  0.41581851481E+01  0.26686268061E+02  0.10276780800E+02  0.28897398332E+02  0.00000000000E+00 0.  1.
</event>
<event>
 5    1  0.6978980E-004  0.9118800E+02  0.7818608E-02  0.1130116E+00
         25   -1    0    0    0    0  0.00000000000E+00  0.00000000000E+00  0.99999998245E-14  0.12500000000E+03  0.12500000000E+03 0.  0.
        -13    1    3    3    0    0 -0.15753800852E+02  0.36650778285E+02  0.77996156756E+01  0.40648578806E+02  0.10566000000E+00 0.  1.
         23    2    1    0    0    0  0.29103679949E+02  0.72654974746E+01 -0.97514594870E+00  0.94987293529E+02  0.90121159458E+02 0.  0.
         13    1    3    3    0    0  0.44857480801E+02 -0.29385280811E+02 -0.87747616243E+01  0.54338714723E+02  0.10566000000E+00 0. -1.
         22    1    1    0    0    0 -0.29103679949E+02 -0.72654974746E+01  0.97514594870E+00  0.30012706471E+02  0.00000000000E+00 0. -1.
</event>
<event>
 5    1  0.6978980E-004  0.9118800E+02  0.7818608E-02  0.1130116E+00
         25   -1    0    0    0    0  0.00000000000E+00  0.00000000000E+00  0.99999998245E-14  0.12500000000E+03  0.12500000000E+03 0.  0.
        -13    1    3    3    0    0 -0.42208574660E+02 -0.17503513111E+02  0.19568733756E+02  0.49707979751E+02  0.10566000000E+00 0.  1.
         23    2    1    0    0    0 -0.24220732368E+02  0.17256864040E+02 -0.33642428031E+01  0.95070727330E+02  0.90236809742E+02 0.  0.
         13    1    3    3    0    0  0.17987842292E+02  0.34760377152E+02 -0.22932976559E+02  0.45362747579E+02  0.10566000000E+00 0. -1.
         22    1    1    0    0    0  0.24220732368E+02 -0.17256864040E+02  0.33642428031E+01  0.29929272670E+02  0.00000000000E+00 0.  1.
</event>
<event>
 5    1  0.6978980E-004  0.9118800E+02  0.7818608E-02  0.1130116E+00
         25   -1    0    0    0    0  0.00000000000E+00  0.00000000000E+00  0.99999998245E-14  0.12500000000E+03  0.12500000000E+03 0.  0.
        -13    1    3    3    0    0 -0.30381146620E+02 -0.13154590620E+02  0.34223189291E+02  0.47616123043E+02  0.10566000000E+00 0.  1.
         23    2    1    0    0    0  0.16248621011E+02 -0.51296723734E+01  0.23228460294E+02  0.96192143588E+02  0.91777098979E+02 0.  0.
         13    1    3    3    0    0  0.46629767632E+02  0.80249182465E+01 -0.10994728997E+02  0.48576020545E+02  0.10566000000E+00 0. -1.
         22    1    1    0    0    0 -0.16248621011E+02  0.51296723734E+01 -0.23228460294E+02  0.28807856412E+02  0.00000000000E+00 0. -1.
</event>
<event>
 5    1  0.6978980E-004  0.9118800E+02  0.7818608E-02  0.1130116E+00
         25   -1    0    0    0    0  0.00000000000E+00  0.00000000000E+00  0.99999998245E-14  0.12500000000E+03  0.12500000000E+03 0.  0.
        -13    1    3    3    0    0  0.89942823435E+01  0.23103313331E+02 -0.27646006452E+02  0.37134526232E+02  0.10566000000E+00 0. -1.
         23    2    1    0    0    0  0.24300137791E+02 -0.14928667661E+02  0.11901368908E+02  0.94096854582E+02  0.88877520474E+02 0.  0.
         13    1    3    3    0    0  0.15305855448E+02 -0.38031980992E+02  0.39547375360E+02  0.56962328350E+02  0.10566000000E+00 0.  1.
         22    1    1    0    0    0 -0.24300137791E+02  0.14928667661E+02 -0.11901368908E+02  0.30903145418E+02  0.00000000000E+00 0.  1.
</event>
<event>
 5    1  0.6978980E-004  0.9118800E+02  0.7818608E-02  0.1130116E+00
         25   -1    0    0    0    0  0.00000000000E+00  0.00000000000E+00  0.99999998245E-14  0.12500000000E+03  0.12500000000E+03 0.  0.
        -13    1    3    3    0    0 -0.54046614661E+02  0.77708295369E+01  0.27570732456E+02  0.61168446116E+02  0.10566000000E+00 0.  1.
         23    2    1    0    0    0 -0.26855192841E+02  0.71928105484E+01  0.44934941453E+01  0.96837446924E+02  0.92651830695E+02 0.  0.
         13    1    3    3    0    0  0.27191421821E+02 -0.57801898848E+00 -0.23077238311E+02  0.35669000808E+02  0.10566000000E+00 0. -1.
         22    1    1    0    0    0  0.26855192841E+02 -0.71928105484E+01 -0.44934941453E+01  0.28162553076E+02  0.00000000000E+00 0.  1.
</event>
<event>
 5    1  0.6978980E-004  0.9118800E+02  0.7818608E-02  0.1130116E+00
         25   -1    0    0    0    0  0.00000000000E+00  0.00000000000E+00  0.99999998245E-14  0.12500000000E+03  0.12500000000E+03 0.  0.
        -13    1    3    3    0    0  0.18568302555E+02 -0.69209981152E+01  0.30825575117E+02  0.36645727173E+02  0.10566000000E+00 0. -1.
         23    2    1    0    0    0  0.55499608348E+01  0.21246453167E+02 -0.19409717028E+02  0.95692134971E+02  0.91093543914E+02 0.  0.
         13    1    3    3    0    0 -0.13018341721E+02  0.28167451283E+02 -0.50235292145E+02  0.59046407798E+02  0.10566000000E+00 0.  1.
         22    1    1    0    0    0 -0.55499608348E+01 -0.21246453167E+02  0.19409717028E+02  0.29307865029E+02  0.00000000000E+00 0.  1.
</event>
<event>
 5    1  0.6978980E-004  0.9118800E+02  0.7818608E-02  0.1130116E+00
         25   -1    0    0    0    0  0.00000000000E+00  0.00000000000E+00  0.99999998245E-14  0.12500000000E+03  0.12500000000E+03 0.  0.
        -13    1    3    3    0    0  0.53326222538E+02  0.40783484427E+01  0.25919168225E+02  0.59431753985E+02  0.10566000000E+00 0.  1.
         23    2    1    0    0    0  0.17847835597E+02 -0.20815237210E+01  0.23355330725E+02  0.95532230322E+02  0.90873855319E+02 0.  0.
         13    1    3    3    0    0 -0.35478386941E+02 -0.61598721638E+01 -0.25638374995E+01  0.36100476338E+02  0.10566000000E+00 0. -1.
         22    1    1    0    0    0 -0.17847835597E+02  0.20815237210E+01 -0.23355330725E+02  0.29467769678E+02  0.00000000000E+00 0.  1.
</event>
<event>
 5    1  0.6978980E-004  0.9118800E+02  0.7818608E-02  0.1130116E+00
         25   -1    0    0    0    0  0.00000000000E+00  0.00000000000E+00  0.99999998245E-14  0.12500000000E+03  0.12500000000E+03 0.  0.
        -13    1    3    3    0    0  0.42355256747E+02  0.13384463792E+02  0.16477406744E+02  0.47377502490E+02  0.10566000000E+00 0.  1.
         23    2    1    0    0    0  0.86619155048E+01  0.22778442160E+02 -0.16595615824E+02  0.95516094695E+02  0.90851657517E+02 0.  0.
         13    1    3    3    0    0 -0.33693341242E+02  0.93939783680E+01 -0.33073022568E+02  0.48138592205E+02  0.10566000000E+00 0. -1.
         22    1    1    0    0    0 -0.86619155048E+01 -0.22778442160E+02  0.16595615824E+02  0.29483905305E+02  0.00000000000E+00 0. -1.
</event>
<event>
 5    1  0.6978980E-004  0.9118800E+02  0.7818608E-02  0.1130116E+00
         25   -1    0    0    0    0  0.00000000000E+00  0.00000000000E+00  0.99999998245E-14  0.12500000000E+03  0.12500000000E+03 0.  0.
        -13    1    3    3    0    0 -0.15834291477E+02 -0.35549304067E+02  0.81971500171E+01  0.39770368852E+02  0.10566000000E+00 0.  1.
         23    2    1    0    0    0 -0.15986979447E+02  0.11048299436E+02 -0.22268975309E+02  0.95444024402E+02  0.90752444047E+02 0.  0.
         13    1    3    3    0    0 -0.15268797062E+00  0.46597603503E+02 -0.30466125326E+02  0.55673655549E+02  0.10566000000E+00 0. -1.
         22    1    1    0    0    0  0.15986979447E+02 -0.11048299436E+02  0.22268975309E+02  0.29555975598E+02  0.00000000000E+00 0. -1.
</event>
<event>
 5    1  0.6978980E-004  0.9118800E+02  0.7818608E-02  0.1130116E+00
         25   -1    0    0    0    0  0.00000000000E+00  0.00000000000E+00  0.99999998245E-14  0.12500000000E+03  0.12500000000E+03 0.  0.
        -13    1    3    3    0    0 -0.25127107888E+02 -0.68843419048E+01 -0.56160287883E+02  0.61909246591E+02  0.10566000000E+00 0. -1.
         23    2    1    0    0    0 -0.86755828747E+01  0.17228241108E+01 -0.27969622700E+02  0.95665146070E+02  0.91056501785E+02 0.  0.
         13    1    3    3    0    0  0.16451525014E+02  0.86071660157E+01  0.28190665183E+02  0.33755899479E+02  0.10566000000E+00 0.  1.
         22    1    1    0    0    0  0.86755828747E+01 -0.17228241108E+01  0.27969622700E+02  0.29334853930E+02  0.00000000000E+00 0. -1.
</event>
<event>
 5    1  0.6978980E-004  0.9118800E+02  0.7818608E-02  0.1130116E+00
         25   -1    0    0    0    0  0.00000000000E+00  0.00000000000E+00  0.99999998245E-14  0.12500000000E+03  0.12500000000E+03 0.  0.
        -13    1    3    3    0    0  0.58754650167E+02 -0.23568659855E+01  0.17683192287E+02  0.61403340194E+02  0.10566000000E+00 0. -1.
         23    2    1    0    0    0  0.28739818593E+02  0.52827482741E+01  0.31695379766E+01  0.95607304087E+02  0.90977063163E+02 0.  0.
         13    1    3    3    0    0 -0.30014831574E+02  0.76396142596E+01 -0.14513654310E+02  0.34203963892E+02  0.10566000000E+00 0.  1.
         22    1    1    0    0    0 -0.28739818593E+02 -0.52827482741E+01 -0.31695379766E+01  0.29392695913E+02  0.00000000000E+00 0. -1.
</event>
<event>
 5    1  0.6978980E-004  0.9118800E+02  0.7818608E-02  0.1130116E+00
         25   -1    0    0    0    0  0.00000000000E+00  0.00000000000E+00  0.99999998245E-14  0.12500000000E+03  0.12500000000E+03 0.  0.
        -13    1    3    3    0    0  0.24125455752E+02 -0.47855044249E+02  0.67103134343E+00  0.53596682009E+02  0.10566000000E+00 0. -1.
         23    2    1    0    0    0  0.24198094850E+00 -0.23708306677E+02 -0.20532798684E+02  0.93635399220E+02  0.88226128811E+02 0.  0.
         13    1    3    3    0    0 -0.23883474804E+02  0.24146737571E+02 -0.21203830028E+02  0.40038717211E+02  0.10566000000E+00 0.  1.
         22    1    1    0    0    0 -0.24198094850E+00  0.23708306677E+02  0.20532798684E+02  0.31364600780E+02  0.00000000000E+00 0.  1.
</event>
<event>
 5    1  0.6978980E-004  0.9118800E+02  0.7818608E-02  0.1130116E+00
         25   -1    0    0    0    0  0.00000000000E+00  0.00000000000E+00  0.99999998245E-14  0.12500000000E+03  0.12500000000E+03 0.  0.
        -13    1    3    3    0    0 -0.91718459758E+01  0.28185111334E+02 -0.27500450534E+02  0.40432773874E+02  0.10566000000E+00 0.  1.
         23    2    1    0    0    0  0.26355224711E+02 -0.94661470921E+01 -0.68181537538E+01  0.96178254200E+02  0.91758179745E+02 0.  0.
         13    1    3    3    0    0  0.35527070687E+02 -0.37651258427E+02  0.20682296780E+02  0.55745480326E+02  0.10566000000E+00 0. -1.
         22    1    1    0    0    0 -0.26355224711E+02  0.94661470921E+01  0.68181537538E+01  0.28821745800E+02  0.00000000000E+00 0. -1.
</event>
<event>
 5    1  0.6978980E-004  0.9118800E+02  0.7818608E-02  0.1130116E+00
         25   -1    0    0    0    0  0.00000000000E+00  0.00000000000E+00  0.99999998245E-14  0.12500000000E+03  0.12500000000E+03 0.  0.
        -13    1    3    3    0    0  0.58592796327E+02 -0.16643608171E+02 -0.88787340844E+01  0.61554598182E+02  0.10566000000E+00 0.  1.
         23    2    1    0    0    0  0.26874555049E+02 -0.35577775647E+01 -0.10558288528E+02  0.95907441726E+02  0.91388513674E+02 0.  0.
         13    1    3    3    0    0 -0.31718241278E+02  0.13085830606E+02 -0.16795544437E+01  0.34352843545E+02  0.10566000000E+00 0. -1.
         22    1    1    0    0    0 -0.26874555049E+02  0.35577775647E+01  0.10558288528E+02  0.29092558274E+02  0.00000000000E+00 0.  1.
</event>
<event>
 5    1  0.6978980E-004  0.9118800E+02  0.7818608E-02  0.1130116E+00
         25   -1    0    0    0    0  0.00000000000E+00  0.00000000000E+00  0.99999998245E-14  0.12500000000E+03  0.12500000000E+03 0.  0.
        -13    1    3    3    0    0 -0.15490751925E+02 -0.73350123886E+01 -0.53030177667E+02  0.55731290218E+02  0.10566000000E+00 0. -1.
         23    2    1    0    0    0 -0.19781264786E+02  0.12073593983E+02 -0.19490260496E+02  0.94718976860E+02  0.89748226807E+02 0.  0.
         13    1    3    3    0    0 -0.42905128606E+01  0.19408606371E+02  0.33539917170E+02  0.38987686642E+02  0.10566000000E+00 0.  1.
         22    1    1    0    0    0  0.19781264786E+02 -0.12073593983E+02  0.19490260496E+02  0.30281023140E+02  0.00000000000E+00 0. -1.
</event>
<event>
 5    1  0.6978980E-004  0.9118800E+02  0.7818608E-02  0.1130116E+00
         25   -1    0    0    0    0  0.00000000000E+00  0.00000000000E+00  0.99999998245E-14  0.12500000000E+03  0.12500000000E+03 0.  0.
        -13    1    3    3    0    0  0.35413851398E+02  0.13409071616E+02  0.16764664323E+02  0.41412669636E+02  0.10566000000E+00 0.  1.
         23    2    1    0    0    0  0.11011065139E+02 -0.11551701858E+02 -0.24686406308E+02  0.95604353593E+02  0.90973009174E+02 0.  0.
         13    1    3    3    0    0 -0.24402786259E+02 -0.24960773475E+02 -0.41451070630E+02  0.54191683957E+02  0.10566000000E+00 0. -1.
         22    1    1    0    0    0 -0.11011065139E+02  0.11551701858E+02  0.24686406308E+02  0.29395646407E+02  0.00000000000E+00 0. -1.
</event>
<event>
 5    1  0.6978980E-004  0.9118800E+02  0.7818608E-02  0.1130116E+00
         25   -1    0    0    0    0  0.00000000000E+00  0.00000000000E+00  0.99999998245E-14  0.12500000000E+03  0.12500000000E+03 0.  0.
        -13    1    3    3    0    0  0.32077456971E+02 -0.13219457042E+02  0.38638920999E+01  0.34909284100E+02  0.10566000000E+00 0.  1.
         23    2    1    0    0    0 -0.23899522998E+02 -0.36259100278E+01  0.19641340443E+02  0.93853303908E+02  0.88534320898E+02 0.  0.
         13    1    3    3    0    0 -0.55976979969E+02  0.95935470144E+01  0.15777448343E+02  0.58944019807E+02  0.10566000000E+00 0. -1.
         22    1    1    0    0    0  0.23899522998E+02  0.36259100278E+01 -0.19641340443E+02  0.31146696092E+02  0.00000000000E+00 0. -1.
</event>
<event>
 5    1  0.6978980E-004  0.9118800E+02  0.7818608E-02  0.1130116E+00
         25   -1    0    0    0    0  0.00000000000E+00  0.00000000000E+00  0.99999998245E-14  0.12500000000E+03  0.12500000000E+03 0.  0.
        -13    1    3    3    0    0 -0.45943253640E+02  0.11728960949E+02  0.40564113245E+02  0.62400396852E+02  0.10566000000E+00 0.  1.
         23    2    1    0    0    0 -0.21758795275E+02  0.49010229213E+01  0.15924163866E+02  0.97594814499E+02  0.93668050182E+02 0.  0.
         13    1    3    3    0    0  0.24184458365E+02 -0.68279380275E+01 -0.24639949379E+02  0.35194417647E+02  0.10566000000E+00 0. -1.
         22    1    1    0    0    0  0.21758795275E+02 -0.49010229213E+01 -0.15924163866E+02  0.27405185501E+02  0.00000000000E+00 0.  1.
</event>
<event>
 5    1  0.6978980E-004  0.9118800E+02  0.7818608E-02  0.1130116E+00
         25   -1    0    0    0    0  0.00000000000E+00  0.00000000000E+00  0.99999998245E-14  0.12500000000E+03  0.12500000000E+03 0.  0.
        -13    1    3    3    0    0  0.39013799477E+02  0.16441254196E+02  0.26804273131E+02  0.50108598177E+02  0.10566000000E+00 0.  1.
         23    2    1    0    0    0  0.27039220771E+02 -0.19311499010E+01 -0.12524402365E+02  0.95138495442E+02  0.90330636335E+02 0.  0.
         13    1    3    3    0    0 -0.11974578706E+02 -0.18372404097E+02 -0.39328675496E+02  0.45029897265E+02  0.10566000000E+00 0. -1.
         22    1    1    0    0    0 -0.27039220771E+02  0.19311499010E+01  0.12524402365E+02  0.29861504558E+02  0.00000000000E+00 0.  1.
</event>
<event>
 5    1  0.6978980E-004  0.9118800E+02  0.7818608E-02  0.1130116E+00
         25   -1    0    0    0    0  0.00000000000E+00  0.00000000000E+00  0.99999998245E-14  0.12500000000E+03  0.12500000000E+03 0.  0.
        -13    1    3    3    0    0 -0.21815605005E+02 -0.22615889333E+02 -0.45552095002E+02  0.55338988020E+02  0.10566000000E+00 0. -1.
         23    2    1    0    0    0  0.94000462042E+01 -0.18986795290E+02 -0.20367278510E+02  0.95611476765E+02  0.90982796128E+02 0.  0.
         13    1    3    3    0    0  0.31215651209E+02  0.36290940429E+01  0.25184816492E+02  0.40272488745E+02  0.10566000000E+00 0.  1.
         22    1    1    0    0    0 -0.94000462042E+01  0.18986795290E+02  0.20367278510E+02  0.29388523235E+02  0.00000000000E+00 0. -1.
</event>
<event>
 5    1  0.6978980E-004  0.9118800E+02  0.7818608E-02  0.1130116E+00
         25   -1    0    0    0    0  0.00000000000E+00  0.00000000000E+00  0.99999998245E-14  0.12500000000E+03  0.12500000000E+03 0.  0.
        -13    1    3    3    0    0 -0.32451829137E+02  0.21591891427E+02  0.42514402890E+02  0.57678562802E+02  0.10566000000E+00 0.  1.
         23    2    1    0    0    0 -0.13402446673E+02  0.26208182914E+02  0.13690167551E+02  0.92535941165E+02  0.86654401453E+02 0.  0.
         13    1    3    3    0    0  0.19049382465E+02  0.46162914870E+01 -0.28824235340E+02  0.34857378363E+02  0.10566000000E+00 0. -1.
         22    1    1    0    0    0  0.13402446673E+02 -0.26208182914E+02 -0.13690167551E+02  0.32464058835E+02  0.00000000000E+00 0.  1.
</event>
<event>
 5    1  0.6978980E-004  0.9118800E+02  0.7818608E-02  0.1130116E+00
         25   -1    0    0    0    0  0.00000000000E+00  0.00000000000E+00  0.99999998245E-14  0.12500000000E+03  0.12500000000E+03 0.  0.
        -13    1    3    3    0    0  0.27912320594E+02 -0.24629402432E+02 -0.11693846261E+02  0.39018743054E+02  0.10566000000E+00 0. -1.
         23    2    1    0    0    0 -0.89474220935E+01 -0.76535083790E+01  0.27282111556E+02  0.95285589968E+02  0.90533957673E+02 0.  0.
         13    1    3    3    0    0 -0.36859742688E+02  0.16975894053E+02  0.38975957816E+02  0.56266846914E+02  0.10566000000E+00 0.  1.
         22    1    1    0    0    0  0.89474220935E+01  0.76535083790E+01 -0.27282111556E+02  0.29714410032E+02  0.00000000000E+00 0.  1.
</event>
<event>
 5    1  0.6978980E-004  0.9118800E+02  0.7818608E-02  0.1130116E+00
         25   -1    0    0    0    0  0.00000000000E+00  0.00000000000E+00  0.99999998245E-14  0.12500000000E+03  0.12500000000E+03 0.  0.
        -13    1    3    3    0    0  0.32497238057E+02 -0.31759253770E+02  0.64294354580E+01  0.45891932687E+02  0.10566000000E+00 0. -1.
         23    2    1    0    0    0 -0.14843307460E+02 -0.25069750113E+02 -0.59158130961E+01  0.95271007557E+02  0.90513821537E+02 0.  0.
         13    1    3    3    0    0 -0.47340545518E+02  0.66895036565E+01 -0.12345248554E+02  0.49379074870E+02  0.10566000000E+00 0.  1.
         22    1    1    0    0    0  0.14843307460E+02  0.25069750113E+02  0.59158130961E+01  0.29728992443E+02  0.00000000000E+00 0.  1.
</event>
<event>
 5    1  0.6978980E-004  0.9118800E+02  0.7818608E-02  0.1130116E+00
         25   -1    0    0    0    0  0.00000000000E+00  0.00000000000E+00  0.99999998245E-14  0.12500000000E+03  0.12500000000E+03 0.  0.
        -13    1    3    3    0    0  0.11294090474E+02 -0.36792441048E+02  0.15367816567E+02  0.41441780222E+02  0.10566000000E+00 0.  1.
         23    2    1    0    0    0 -0.10066474307E+02  0.59678242011E+01  0.31106485867E+02  0.91765044100E+02  0.85535144970E+02 0.  0.
         13    1    3    3    0    0 -0.21360564781E+02  0.42760265249E+02  0.15738669300E+02  0.50323263878E+02  0.10566000000E+00 0. -1.
         22    1    1    0    0    0  0.10066474307E+02 -0.59678242011E+01 -0.31106485867E+02  0.33234955900E+02  0.00000000000E+00 0. -1.
</event>
<event>
 5    1  0.6978980E-004  0.9118800E+02  0.7818608E-02  0.1130116E+00
         25   -1    0    0    0    0  0.00000000000E+00  0.00000000000E+00  0.99999998245E-14  0.12500000000E+03  0.12500000000E+03 0.  0.
        -13    1    3    3    0    0 -0.25127885796E+02 -0.18004897803E+02  0.45723229363E+02  0.55192498194E+02  0.10566000000E+00 0.  1.
         23    2    1    0    0    0 -0.89965720520E+01  0.13008027892E+02  0.23694069935E+02  0.96512177190E+02  0.92211953117E+02 0.  0.
         13    1    3    3    0    0  0.16131313744E+02  0.31012925694E+02 -0.22029159428E+02  0.41319678996E+02  0.10566000000E+00 0. -1.
         22    1    1    0    0    0  0.89965720520E+01 -0.13008027892E+02 -0.23694069935E+02  0.28487822810E+02  0.00000000000E+00 0. -1.
</event>
<event>
 5    1  0.6978980E-004  0.9118800E+02  0.7818608E-02  0.1130116E+00
         25   -1    0    0    0    0  0.00000000000E+00  0.00000000000E+00  0.99999998245E-14  0.12500000000E+03  0.12500000000E+03 0.  0.
        -13    1    3    3    0    0  0.40139644364E+02  0.13194984664E+02 -0.35776132582E+02  0.55364623150E+02  0.10566000000E+00 0.  1.
         23    2    1    0    0    0  0.13270772153E+01  0.50469630711E+01 -0.28921581011E+02  0.95611382844E+02  0.90982667090E+02 0.  0.
         13    1    3    3    0    0 -0.38812567149E+02 -0.81480215928E+01  0.68545515711E+01  0.40246759694E+02  0.10566000000E+00 0. -1.
         22    1    1    0    0    0 -0.13270772153E+01 -0.50469630711E+01  0.28921581011E+02  0.29388617156E+02  0.00000000000E+00 0.  1.
</event>
<event>
 5    1  0.6978980E-004  0.9118800E+02  0.7818608E-02  0.1130116E+00
         25   -1    0    0    0    0  0.00000000000E+00  0.00000000000E+00  0.99999998245E-14  0.12500000000E+03  0.12500000000E+03 0.  0.
        -13    1    3    3    0    0 -0.11030291243E+02  0.47357097617E+02 -0.19214027321E+02  0.52283381964E+02  0.10566000000E+00 0. -1.
         23    2    1    0    0    0 -0.19944483973E+02  0.21375875531E+02  0.11585996625E+02  0.93552491141E+02  0.88108585196E+02 0.  0.
         13    1    3    3    0    0 -0.89141927306E+01 -0.25981222086E+02  0.30800023946E+02  0.41269109177E+02  0.10566000000E+00 0.  1.
         22    1    1    0    0    0  0.19944483973E+02 -0.21375875531E+02 -0.11585996625E+02  0.31447508859E+02  0.00000000000E+00 0.  1.
</event>
<event>
 5    1  0.6978980E-004  0.9118800E+02  0.7818608E-02  0.1130116E+00
         25   -1    0    0    0    0  0.00000000000E+00  0.00000000000E+00  0.99999998245E-14  0.12500000000E+03  0.12500000000E+03 0.  0.
        -13    1    3    3    0    0  0.20606857137E+02 -0.45798664194E+02 -0.10193805702E+02  0.51245341659E+02  0.10566000000E+00 0.  1.
         23    2    1    0    0    0 -0.97561978325E+01 -0.14942973940E+02 -0.22529981427E+02  0.96258463343E+02  0.91867381783E+02 0.  0.
         13    1    3    3    0    0 -0.30363054970E+02  0.30855690254E+02 -0.12336175725E+02  0.45013121684E+02  0.10566000000E+00 0. -1.
         22    1    1    0    0    0  0.97561978325E+01  0.14942973940E+02  0.22529981427E+02  0.28741536657E+02  0.00000000000E+00 0.  1.
</event>
<event>
 5    1  0.6978980E-004  0.9118800E+02  0.7818608E-02  0.1130116E+00
         25   -1    0    0    0    0  0.00000000000E+00  0.00000000000E+00  0.99999998245E-14  0.12500000000E+03  0.12500000000E+03 0.  0.
        -13    1    3    3    0    0 -0.36967358439E+02  0.19199883373E+02  0.20818326146E+01  0.41708108356E+02  0.10566000000E+00 0.  1.
         23    2    1    0    0    0  0.15916523418E+02  0.62129105578E+01  0.19681350748E+02  0.98936777970E+02  0.95442100210E+02 0.  0.
         13    1    3    3    0    0  0.52883881858E+02 -0.12986972816E+02  0.17599518133E+02  0.57228669614E+02  0.10566000000E+00 0. -1.
         22    1    1    0    0    0 -0.15916523418E+02 -0.62129105578E+01 -0.19681350748E+02  0.26063222030E+02  0.00000000000E+00 0. -1.
</event>
<event>
 5    1  0.6978980E-004  0.9118800E+02  0.7818608E-02  0.1130116E+00
         25   -1    0    0    0    0  0.00000000000E+00  0.00000000000E+00  0.99999998245E-14  0.12500000000E+03  0.12500000000E+03 0.  0.
        -13    1    3    3    0    0  0.30241581343E+02  0.32651512891E+01  0.17849583704E+02  0.35268020323E+02  0.10566000000E+00 0.  1.
         23    2    1    0    0    0 -0.24962807514E+02  0.18022767227E+02  0.57205139208E+01  0.93684090672E+02  0.88295088584E+02 0.  0.
         13    1    3    3    0    0 -0.55204388857E+02  0.14757615938E+02 -0.12129069783E+02  0.58416070349E+02  0.10566000000E+00 0. -1.
         22    1    1    0    0    0  0.24962807514E+02 -0.18022767227E+02 -0.57205139208E+01  0.31315909328E+02  0.00000000000E+00 0. -1.
</event>
<event>
 5    1  0.6978980E-004  0.9118800E+02  0.7818608E-02  0.1130116E+00
         25   -1    0    0    0    0  0.00000000000E+00  0.00000000000E+00  0.99999998245E-14  0.12500000000E+03  0.12500000000E+03 0.  0.
        -13    1    3    3    0    0  0.16950530931E+02 -0.20168774344E+02  0.37148250493E+02  0.45542327961E+02  0.10566000000E+00 0.  1.
         23    2    1    0    0    0 -0.23917569579E+02 -0.28729013834E+01  0.48545690331E+01  0.10042622257E+03  0.97373279914E+02 0.  0.
         13    1    3    3    0    0 -0.40868100510E+02  0.17295872961E+02 -0.32293681459E+02  0.54883894605E+02  0.10566000000E+00 0. -1.
         22    1    1    0    0    0  0.23917569579E+02  0.28729013834E+01 -0.48545690331E+01  0.24573777435E+02  0.00000000000E+00 0. -1.
</event>
<event>
 5    1  0.6978980E-004  0.9118800E+02  0.7818608E-02  0.1130116E+00
         25   -1    0    0    0    0  0.00000000000E+00  0.00000000000E+00  0.99999998245E-14  0.12500000000E+03  0.12500000000E+03 0.  0.
        -13    1    3    3    0    0  0.28601493905E+02  0.53774483793E+02 -0.76627863666E+01  0.61387865411E+02  0.10566000000E+00 0. -1.
         23    2    1    0    0    0  0.79861897228E+01  0.21705370864E+02 -0.10465022561E+02  0.99614589863E+02  0.96325736259E+02 0.  0.
         13    1    3    3    0    0 -0.20615304183E+02 -0.32069112929E+02 -0.28022361940E+01  0.38226724452E+02  0.10566000000E+00 0.  1.
         22    1    1    0    0    0 -0.79861897228E+01 -0.21705370864E+02  0.10465022561E+02  0.25385410137E+02  0.00000000000E+00 0. -1.
</event>
<event>
 5    1  0.6978980E-004  0.9118800E+02  0.7818608E-02  0.1130116E+00
         25   -1    0    0    0    0  0.00000000000E+00  0.00000000000E+00  0.99999998245E-14  0.12500000000E+03  0.12500000000E+03 0.  0.
        -13    1    3    3    0    0 -0.11938185298E+02  0.55570672503E+02  0.15436530742E+02  0.58897517402E+02  0.10566000000E+00 0.  1.
         23    2    1    0    0    0 -0.19289647422E+01  0.21474780682E+02  0.21043115552E+02  0.94871942936E+02  0.89961023416E+02 0.  0.
         13    1    3    3    0    0  0.10009220556E+02 -0.34095891822E+02  0.56065848097E+01  0.35974425534E+02  0.10566000000E+00 0. -1.
         22    1    1    0    0    0  0.19289647422E+01 -0.21474780682E+02 -0.21043115552E+02  0.30128057064E+02  0.00000000000E+00 0.  1.
</event>
<event>
 5    1  0.6978980E-004  0.9118800E+02  0.7818608E-02  0.1130116E+00
         25   -1    0    0    0    0  0.00000000000E+00  0.00000000000E+00  0.99999998245E-14  0.12500000000E+03  0.12500000000E+03 0.  0.
        -13    1    3    3    0    0  0.64013147136E+01 -0.43147129328E+01 -0.43235413322E+02  0.43919309044E+02  0.10566000000E+00 0.  1.
         23    2    1    0    0    0  0.29483883034E+02 -0.12697002623E+02 -0.87135330204E+00  0.92886568372E+02  0.87158717826E+02 0.  0.
         13    1    3    3    0    0  0.23082568320E+02 -0.83822896903E+01  0.42364060020E+02  0.48967259328E+02  0.10566000000E+00 0. -1.
         22    1    1    0    0    0 -0.29483883034E+02  0.12697002623E+02  0.87135330204E+00  0.32113431628E+02  0.00000000000E+00 0. -1.
</event>
<event>
 5    1  0.6978980E-004  0.9118800E+02  0.7818608E-02  0.1130116E+00
         25   -1    0    0    0    0  0.00000000000E+00  0.00000000000E+00  0.99999998245E-14  0.12500000000E+03  0.12500000000E+03 0.  0.
        -13    1    3    3    0    0  0.85088684912E+01  0.38205172440E+02 -0.39333899542E+02  0.55490565517E+02  0.10566000000E+00 0.  1.
         23    2    1    0    0    0 -0.70752859014E+01  0.37038245535E+02 -0.14984460028E+02  0.84423832792E+02  0.74033493759E+02 0.  0.
         13    1    3    3    0    0 -0.15584154393E+02 -0.11669269042E+01  0.24349439515E+02  0.28933267276E+02  0.10566000000E+00 0. -1.
         22    1    1    0    0    0  0.70752859014E+01 -0.37038245535E+02  0.14984460028E+02  0.40576167208E+02  0.00000000000E+00 0.  1.
</event>
<event>
 5    1  0.6978980E-004  0.9118800E+02  0.7818608E-02  0.1130116E+00
         25   -1    0    0    0    0  0.00000000000E+00  0.00000000000E+00  0.99999998245E-14  0.12500000000E+03  0.12500000000E+03 0.  0.
        -13    1    3    3    0    0 -0.30253794607E+01 -0.14695648047E+02 -0.33702464831E+02  0.36891493492E+02  0.10566000000E+00 0.  1.
         23    2    1    0    0    0  0.11275243596E+02  0.25564786461E+02  0.73138054766E+01  0.96117805217E+02  0.91675794538E+02 0.  0.
         13    1    3    3    0    0  0.14300623057E+02  0.40260434508E+02  0.41016270307E+02  0.59226311725E+02  0.10566000000E+00 0. -1.
         22    1    1    0    0    0 -0.11275243596E+02 -0.25564786461E+02 -0.73138054766E+01  0.28882194783E+02  0.00000000000E+00 0. -1.
</event>
<event>
 5    1  0.6978980E-004  0.9118800E+02  0.7818608E-02  0.1130116E+00
         25   -1    0    0    0    0  0.00000000000E+00  0.00000000000E+00  0.99999998245E-14  0.12500000000E+03  0.12500000000E+03 0.  0.
        -13    1    3    3    0    0 -0.19594161876E+02  0.44141312874E+02 -0.37750074408E+02  0.61298172597E+02  0.10566000000E+00 0.  1.
         23    2    1    0    0    0 -0.15808338085E+02  0.21673139400E+02 -0.12205994995E+02  0.95527727636E+02  0.90867661514E+02 0.  0.
         13    1    3    3    0    0  0.37858237912E+01 -0.22468173474E+02  0.25544079413E+02  0.34229555039E+02  0.10566000000E+00 0. -1.
         22    1    1    0    0    0  0.15808338085E+02 -0.21673139400E+02  0.12205994995E+02  0.29472272364E+02  0.00000000000E+00 0.  1.
</event>
<event>
 5    1  0.6978980E-004  0.9118800E+02  0.7818608E-02  0.1130116E+00
         25   -1    0    0    0    0  0.00000000000E+00  0.00000000000E+00  0.99999998245E-14  0.12500000000E+03  0.12500000000E+03 0.  0.
        -13    1    3    3    0    0  0.40987664709E+02  0.26393789038E+02  0.50093910412E+01  0.49007406794E+02  0.10566000000E+00 0. -1.
         23    2    1    0    0    0  0.21381430229E+02 -0.11996845314E+02  0.18621304205E+02  0.94212943849E+02  0.89040642194E+02 0.  0.
         13    1    3    3    0    0 -0.19606234479E+02 -0.38390634352E+02  0.13611913164E+02  0.45205537055E+02  0.10566000000E+00 0.  1.
         22    1    1    0    0    0 -0.21381430229E+02  0.11996845314E+02 -0.18621304205E+02  0.30787056151E+02  0.00000000000E+00 0.  1.
</event>
<event>
 5    1  0.6978980E-004  0.9118800E+02  0.7818608E-02  0.1130116E+00
         25   -1    0    0    0    0  0.00000000000E+00  0.00000000000E+00  0.99999998245E-14  0.12500000000E+03  0.12500000000E+03 0.  0.
        -13    1    3    3    0    0 -0.22027332987E+02 -0.17831878364E+02  0.42353861425E+02  0.50961161939E+02  0.10566000000E+00 0.  1.
         23    2    1    0    0    0  0.11940491533E+02 -0.22779941756E+02  0.12732926090E+02  0.96301071600E+02  0.91925338727E+02 0.  0.
         13    1    3    3    0    0  0.33967824520E+02 -0.49480633925E+01 -0.29620935335E+02  0.45339909662E+02  0.10566000000E+00 0. -1.
         22    1    1    0    0    0 -0.11940491533E+02  0.22779941756E+02 -0.12732926090E+02  0.28698928400E+02  0.00000000000E+00 0.  1.
</event>
<event>
 5    1  0.6978980E-004  0.9118800E+02  0.7818608E-02  0.1130116E+00
         25   -1    0    0    0    0  0.00000000000E+00  0.00000000000E+00  0.99999998245E-14  0.12500000000E+03  0.12500000000E+03 0.  0.
        -13    1    3    3    0    0  0.11956771786E+02 -0.26593817516E+02 -0.24188034202E+02  0.37884926873E+02  0.10566000000E+00 0. -1.
         23    2    1    0    0    0  0.23393693416E+02  0.19007317717E+02  0.66801737194E+01  0.94126585234E+02  0.88919324719E+02 0.  0.
         13    1    3    3    0    0  0.11436921630E+02  0.45601135233E+02  0.30868207921E+02  0.56241658361E+02  0.10566000000E+00 0.  1.
         22    1    1    0    0    0 -0.23393693416E+02 -0.19007317717E+02 -0.66801737194E+01  0.30873414766E+02  0.00000000000E+00 0.  1.
</event>
<event>
 5    1  0.6978980E-004  0.9118800E+02  0.7818608E-02  0.1130116E+00
         25   -1    0    0    0    0  0.00000000000E+00  0.00000000000E+00  0.99999998245E-14  0.12500000000E+03  0.12500000000E+03 0.  0.
        -13    1    3    3    0    0  0.14778499213E+02  0.39904038322E+02 -0.29866919982E+01  0.42657564470E+02  0.10566000000E+00 0.  1.
         23    2    1    0    0    0  0.64686235268E+01 -0.73376943413E+01 -0.26987685269E+02  0.96294251364E+02  0.91916064108E+02 0.  0.
         13    1    3    3    0    0 -0.83098756866E+01 -0.47241732663E+02 -0.24000993270E+02  0.53636686894E+02  0.10566000000E+00 0. -1.
         22    1    1    0    0    0 -0.64686235268E+01  0.73376943413E+01  0.26987685269E+02  0.28705748636E+02  0.00000000000E+00 0. -1.
</event>
<event>
 5    1  0.6978980E-004  0.9118800E+02  0.7818608E-02  0.1130116E+00
         25   -1    0    0    0    0  0.00000000000E+00  0.00000000000E+00  0.99999998245E-14  0.12500000000E+03  0.12500000000E+03 0.  0.
        -13    1    3    3    0    0 -0.68362907847E+01  0.16135058101E+02  0.20036548284E+02  0.26618591300E+02  0.10566000000E+00 0. -1.
         23    2    1    0    0    0 -0.12332275338E+02 -0.26669582694E+02 -0.23090411574E+02  0.87629975077E+02  0.79262183728E+02 0.  0.
         13    1    3    3    0    0 -0.54959845535E+01 -0.42804640795E+02 -0.43126959858E+02  0.61011383777E+02  0.10566000000E+00 0.  1.
         22    1    1    0    0    0  0.12332275338E+02  0.26669582694E+02  0.23090411574E+02  0.37370024923E+02  0.00000000000E+00 0.  1.
</event>
<event>
 5    1  0.6978980E-004  0.9118800E+02  0.7818608E-02  0.1130116E+00
         25   -1    0    0    0    0  0.00000000000E+00  0.00000000000E+00  0.99999998245E-14  0.12500000000E+03  0.12500000000E+03 0.  0.
        -13    1    3    3    0    0  0.29783185090E+02 -0.44187313514E+01  0.17971061943E+02  0.35064704936E+02  0.10566000000E+00 0. -1.
         23    2    1    0    0    0 -0.96201098409E+01  0.85903326470E+01 -0.26278710979E+02  0.95726958152E+02  0.91141316306E+02 0.  0.
         13    1    3    3    0    0 -0.39403294931E+02  0.13009063998E+02 -0.44249772922E+02  0.60662253216E+02  0.10566000000E+00 0.  1.
         22    1    1    0    0    0  0.96201098409E+01 -0.85903326470E+01  0.26278710979E+02  0.29273041848E+02  0.00000000000E+00 0.  1.
</event>
<event>
 5    1  0.6978980E-004  0.9118800E+02  0.7818608E-02  0.1130116E+00
         25   -1    0    0    0    0  0.00000000000E+00  0.00000000000E+00  0.99999998245E-14  0.12500000000E+03  0.12500000000E+03 0.  0.
        -13    1    3    3    0    0  0.35265526693E+01 -0.32039770160E+02  0.72981374494E+01  0.33049317995E+02  0.10566000000E+00 0.  1.
         23    2    1    0    0    0 -0.30430080456E+01  0.29552277151E+02  0.30191067286E+01  0.95138453018E+02  0.90330577627E+02 0.  0.
         13    1    3    3    0    0 -0.65695607149E+01  0.61592047311E+02 -0.42790307207E+01  0.62089135023E+02  0.10566000000E+00 0. -1.
         22    1    1    0    0    0  0.30430080456E+01 -0.29552277151E+02 -0.30191067286E+01  0.29861546982E+02  0.00000000000E+00 0. -1.
</event>
<event>
 5    1  0.6978980E-004  0.9118800E+02  0.7818608E-02  0.1130116E+00
         25   -1    0    0    0    0  0.00000000000E+00  0.00000000000E+00  0.99999998245E-14  0.12500000000E+03  0.12500000000E+03 0.  0.
        -13    1    3    3    0    0 -0.48668632128E+02 -0.11363061502E+02 -0.32804634283E+02  0.59782188940E+02  0.10566000000E+00 0. -1.
         23    2    1    0    0    0 -0.29104163213E+02 -0.14768155196E+00 -0.51879907795E+01  0.95436688709E+02  0.90742339496E+02 0.  0.
         13    1    3    3    0    0  0.19564468915E+02  0.11215379950E+02  0.27616643504E+02  0.35654499769E+02  0.10566000000E+00 0.  1.
         22    1    1    0    0    0  0.29104163213E+02  0.14768155196E+00  0.51879907795E+01  0.29563311291E+02  0.00000000000E+00 0. -1.
</event>
<event>
 5    1  0.6978980E-004  0.9118800E+02  0.7818608E-02  0.1130116E+00
         25   -1    0    0    0    0  0.00000000000E+00  0.00000000000E+00  0.99999998245E-14  0.12500000000E+03  0.12500000000E+03 0.  0.
        -13    1    3    3    0    0  0.32151898787E+02  0.43971196293E+02 -0.29412315747E+02  0.61905623175E+02  0.10566000000E+00 0.  1.
         23    2    1    0    0    0  0.25111169041E+02  0.25719892114E+02 -0.15817328146E+02  0.85728234944E+02  0.76204059839E+02 0.  0.
         13    1    3    3    0    0 -0.70407297454E+01 -0.18251304179E+02  0.13594987601E+02  0.23822611769E+02  0.10566000000E+00 0. -1.
         22    1    1    0    0    0 -0.25111169041E+02 -0.25719892114E+02  0.15817328146E+02  0.39271765056E+02  0.00000000000E+00 0.  1.
</event>
<event>
 5    1  0.6978980E-004  0.9118800E+02  0.7818608E-02  0.1130116E+00
         25   -1    0    0    0    0  0.00000000000E+00  0.00000000000E+00  0.99999998245E-14  0.12500000000E+03  0.12500000000E+03 0.  0.
        -13    1    3    3    0    0 -0.12210584960E+02  0.22431202827E+02  0.26897480096E+02  0.37091007601E+02  0.10566000000E+00 0. -1.
         23    2    1    0    0    0  0.27015685295E+02  0.15001401830E+01 -0.11271611416E+02  0.95688792307E+02  0.91088956942E+02 0.  0.
         13    1    3    3    0    0  0.39226270255E+02 -0.20931062644E+02 -0.38169091512E+02  0.58597784706E+02  0.10566000000E+00 0.  1.
         22    1    1    0    0    0 -0.27015685295E+02 -0.15001401830E+01  0.11271611416E+02  0.29311207693E+02  0.00000000000E+00 0.  1.
</event>
<event>
 5    1  0.6978980E-004  0.9118800E+02  0.7818608E-02  0.1130116E+00
         25   -1    0    0    0    0  0.00000000000E+00  0.00000000000E+00  0.99999998245E-14  0.12500000000E+03  0.12500000000E+03 0.  0.
        -13    1    3    3    0    0  0.34693885099E+02  0.53418786427E+01 -0.12546090010E+02  0.37277565227E+02  0.10566000000E+00 0.  1.
         23    2    1    0    0    0  0.22111119932E+01  0.55074409872E+01  0.32025059126E+02  0.92429686300E+02  0.86500991758E+02 0.  0.
         13    1    3    3    0    0 -0.32482773106E+02  0.16556234455E+00  0.44571149136E+02  0.55152121073E+02  0.10566000000E+00 0. -1.
         22    1    1    0    0    0 -0.22111119932E+01 -0.55074409872E+01 -0.32025059126E+02  0.32570313700E+02  0.00000000000E+00 0. -1.
</event>
<event>
 5    1  0.6978980E-004  0.9118800E+02  0.7818608E-02  0.1130116E+00
         25   -1    0    0    0    0  0.00000000000E+00  0.00000000000E+00  0.99999998245E-14  0.12500000000E+03  0.12500000000E+03 0.  0.
        -13    1    3    3    0    0 -0.15047311563E+02  0.32136733130E+02  0.47786558180E+02  0.59521067768E+02  0.10566000000E+00 0.  1.
         23    2    1    0    0    0 -0.13927200759E+02  0.41353119590E+01  0.26739869688E+02  0.94568300131E+02  0.89538120557E+02 0.  0.
         13    1    3    3    0    0  0.11201108038E+01 -0.28001421171E+02 -0.21046688492E+02  0.35047232363E+02  0.10566000000E+00 0. -1.
         22    1    1    0    0    0  0.13927200759E+02 -0.41353119590E+01 -0.26739869688E+02  0.30431699869E+02  0.00000000000E+00 0.  1.
</event>
<event>
 5    1  0.6978980E-004  0.9118800E+02  0.7818608E-02  0.1130116E+00
         25   -1    0    0    0    0  0.00000000000E+00  0.00000000000E+00  0.99999998245E-14  0.12500000000E+03  0.12500000000E+03 0.  0.
        -13    1    3    3    0    0  0.23823801915E+02 -0.91239098007E+00 -0.55131990730E+02  0.60066243106E+02  0.10566000000E+00 0.  1.
         23    2    1    0    0    0  0.20213911984E+02 -0.83260889490E+01 -0.22884282304E+02  0.93351676641E+02  0.87823226770E+02 0.  0.
         13    1    3    3    0    0 -0.36098899312E+01 -0.74136979690E+01  0.32247708426E+02  0.33285433535E+02  0.10566000000E+00 0. -1.
         22    1    1    0    0    0 -0.20213911984E+02  0.83260889490E+01  0.22884282304E+02  0.31648323359E+02  0.00000000000E+00 0.  1.
</event>
<event>
 5    1  0.6978980E-004  0.9118800E+02  0.7818608E-02  0.1130116E+00
         25   -1    0    0    0    0  0.00000000000E+00  0.00000000000E+00  0.99999998245E-14  0.12500000000E+03  0.12500000000E+03 0.  0.
        -13    1    3    3    0    0 -0.38719178708E+02 -0.26792420671E+01  0.18891572596E+02  0.43165447027E+02  0.10566000000E+00 0. -1.
         23    2    1    0    0    0 -0.11316977615E+02 -0.30866184049E+01 -0.26404650775E+02  0.96106977000E+02  0.91661029069E+02 0.  0.
         13    1    3    3    0    0  0.27402201093E+02 -0.40737633776E+00 -0.45296223371E+02  0.52941529973E+02  0.10566000000E+00 0.  1.
         22    1    1    0    0    0  0.11316977615E+02  0.30866184049E+01  0.26404650775E+02  0.28893023000E+02  0.00000000000E+00 0.  1.
</event>
<event>
 5    1  0.6978980E-004  0.9118800E+02  0.7818608E-02  0.1130116E+00
         25   -1    0    0    0    0  0.00000000000E+00  0.00000000000E+00  0.99999998245E-14  0.12500000000E+03  0.12500000000E+03 0.  0.
        -13    1    3    3    0    0  0.33869333506E+02  0.23313926719E+02 -0.26938655826E+02  0.49156619828E+02  0.10566000000E+00 0.  1.
         23    2    1    0    0    0  0.34678310788E+01 -0.16524601600E+02 -0.18460739279E+02  0.99982262190E+02  0.96801681532E+02 0.  0.
         13    1    3    3    0    0 -0.30401502427E+02 -0.39838528319E+02  0.84779165470E+01  0.50825642362E+02  0.10566000000E+00 0. -1.
         22    1    1    0    0    0 -0.34678310788E+01  0.16524601600E+02  0.18460739279E+02  0.25017737810E+02  0.00000000000E+00 0. -1.
</event>
<event>
 5    1  0.6978980E-004  0.9118800E+02  0.7818608E-02  0.1130116E+00
         25   -1    0    0    0    0  0.00000000000E+00  0.00000000000E+00  0.99999998245E-14  0.12500000000E+03  0.12500000000E+03 0.  0.
        -13    1    3    3    0    0  0.59806002732E+01  0.24609705172E+02  0.22350959015E+02  0.33778420644E+02  0.10566000000E+00 0. -1.
         23    2    1    0    0    0 -0.15064430912E+01 -0.13820780465E+02 -0.25711728121E+02  0.95770283846E+02  0.91200717988E+02 0.  0.
         13    1    3    3    0    0 -0.74870433644E+01 -0.38430485636E+02 -0.48062687136E+02  0.61991863203E+02  0.10566000000E+00 0.  1.
         22    1    1    0    0    0  0.15064430912E+01  0.13820780465E+02  0.25711728121E+02  0.29229716154E+02  0.00000000000E+00 0.  1.
</event>
<event>
 5    1  0.6978980E-004  0.9118800E+02  0.7818608E-02  0.1130116E+00
         25   -1    0    0    0    0  0.00000000000E+00  0.00000000000E+00  0.99999998245E-14  0.12500000000E+03  0.12500000000E+03 0.  0.
        -13    1    3    3    0    0  0.78078187403E+01  0.33277414435E+02  0.26652378072E+02  0.43344074173E+02  0.10566000000E+00 0. -1.
         23    2    1    0    0    0  0.23392338861E+02  0.85485453050E+01 -0.16253253556E+02  0.95260339690E+02  0.90499087965E+02 0.  0.
         13    1    3    3    0    0  0.15584520120E+02 -0.24728869130E+02 -0.42905631628E+02  0.51916265517E+02  0.10566000000E+00 0.  1.
         22    1    1    0    0    0 -0.23392338861E+02 -0.85485453050E+01  0.16253253556E+02  0.29739660310E+02  0.00000000000E+00 0.  1.
</event>
<event>
 5    1  0.6978980E-004  0.9118800E+02  0.7818608E-02  0.1130116E+00
         25   -1    0    0    0    0  0.00000000000E+00  0.00000000000E+00  0.99999998245E-14  0.12500000000E+03  0.12500000000E+03 0.  0.
        -13    1    3    3    0    0 -0.36161633138E+02 -0.12679483411E+02 -0.92268113137E-01  0.38320395199E+02  0.10566000000E+00 0. -1.
         23    2    1    0    0    0  0.12516345893E+02  0.82828605644E+01  0.24122163222E+02  0.96589729812E+02  0.92317021470E+02 0.  0.
         13    1    3    3    0    0  0.48677979030E+02  0.20962343975E+02  0.24214431335E+02  0.58269334614E+02  0.10566000000E+00 0.  1.
         22    1    1    0    0    0 -0.12516345893E+02 -0.82828605644E+01 -0.24122163222E+02  0.28410270188E+02  0.00000000000E+00 0.  1.
</event>
<event>
 5    1  0.6978980E-004  0.9118800E+02  0.7818608E-02  0.1130116E+00
         25   -1    0    0    0    0  0.00000000000E+00  0.00000000000E+00  0.99999998245E-14  0.12500000000E+03  0.12500000000E+03 0.  0.
        -13    1    3    3    0    0  0.39723876636E+01 -0.31727514960E+02 -0.13329518365E+02  0.34642492594E+02  0.10566000000E+00 0.  1.
         23    2    1    0    0    0  0.10769248239E+02  0.26526574043E+02  0.46713076002E+01  0.95992122574E+02  0.91504265712E+02 0.  0.
         13    1    3    3    0    0  0.67968605754E+01  0.58254089002E+02  0.18000825965E+02  0.61349629980E+02  0.10566000000E+00 0. -1.
         22    1    1    0    0    0 -0.10769248239E+02 -0.26526574043E+02 -0.46713076002E+01  0.29007877426E+02  0.00000000000E+00 0. -1.
</event>
<event>
 5    1  0.6978980E-004  0.9118800E+02  0.7818608E-02  0.1130116E+00
         25   -1    0    0    0    0  0.00000000000E+00  0.00000000000E+00  0.99999998245E-14  0.12500000000E+03  0.12500000000E+03 0.  0.
        -13    1    3    3    0    0  0.11836740243E+02 -0.54777267282E+02 -0.22876547018E+02  0.60531025086E+02  0.10566000000E+00 0.  1.
         23    2    1    0    0    0  0.12045326534E+02 -0.19290070805E+02 -0.17236030312E+02  0.96464452627E+02  0.92147236294E+02 0.  0.
         13    1    3    3    0    0  0.20858629081E+00  0.35487196477E+02  0.56405167057E+01  0.35933427541E+02  0.10566000000E+00 0. -1.
         22    1    1    0    0    0 -0.12045326534E+02  0.19290070805E+02  0.17236030312E+02  0.28535547373E+02  0.00000000000E+00 0.  1.
</event>
<event>
 5    1  0.6978980E-004  0.9118800E+02  0.7818608E-02  0.1130116E+00
         25   -1    0    0    0    0  0.00000000000E+00  0.00000000000E+00  0.99999998245E-14  0.12500000000E+03  0.12500000000E+03 0.  0.
        -13    1    3    3    0    0 -0.15526467745E+02  0.12859202035E+02 -0.37175515499E+02  0.42290192649E+02  0.10566000000E+00 0. -1.
         23    2    1    0    0    0  0.27380033628E+02 -0.25464299751E+01 -0.82099847059E+01  0.96302362537E+02  0.91927094125E+02 0.  0.
         13    1    3    3    0    0  0.42906501374E+02 -0.15405632011E+02  0.28965530794E+02  0.54012169887E+02  0.10566000000E+00 0.  1.
         22    1    1    0    0    0 -0.27380033628E+02  0.25464299751E+01  0.82099847059E+01  0.28697637463E+02  0.00000000000E+00 0.  1.
</event>
<event>
 5    1  0.6978980E-004  0.9118800E+02  0.7818608E-02  0.1130116E+00
         25   -1    0    0    0    0  0.00000000000E+00  0.00000000000E+00  0.99999998245E-14  0.12500000000E+03  0.12500000000E+03 0.  0.
        -13    1    3    3    0    0 -0.14916459868E+02  0.27931041482E+02 -0.47164167771E+02  0.56807690842E+02  0.10566000000E+00 0.  1.
         23    2    1    0    0    0 -0.14575373644E+02 -0.47357724765E+01 -0.22655211753E+02  0.97648077263E+02  0.93739102384E+02 0.  0.
         13    1    3    3    0    0  0.34108622385E+00 -0.32666813958E+02  0.24508956017E+02  0.40840386422E+02  0.10566000000E+00 0. -1.
         22    1    1    0    0    0  0.14575373644E+02  0.47357724765E+01  0.22655211753E+02  0.27351922737E+02  0.00000000000E+00 0.  1.
</event>
<event>
 5    1  0.6978980E-004  0.9118800E+02  0.7818608E-02  0.1130116E+00
         25   -1    0    0    0    0  0.00000000000E+00  0.00000000000E+00  0.99999998245E-14  0.12500000000E+03  0.12500000000E+03 0.  0.
        -13    1    3    3    0    0  0.46883043294E+02 -0.41926528553E+01  0.21993359136E+02  0.51954952570E+02  0.10566000000E+00 0.  1.
         23    2    1    0    0    0  0.60747669180E+01  0.10634611881E+02  0.26697189882E+02  0.95627602914E+02  0.91004948923E+02 0.  0.
         13    1    3    3    0    0 -0.40808276376E+02  0.14827264736E+02  0.47038307463E+01  0.43672650344E+02  0.10566000000E+00 0. -1.
         22    1    1    0    0    0 -0.60747669180E+01 -0.10634611881E+02 -0.26697189882E+02  0.29372397086E+02  0.00000000000E+00 0.  1.
</event>
<event>
 4    1  0.6978980E-004  0.9118800E+02  0.7818608E-02  0.1130116E+00
         25   -1    0    0    0    0  0.00000000000E+00  0.00000000000E+00  0.99999998245E-14  0.12500000000E+03  0.12500000000E+03 0.  0.
        -13    1    1    0    0    0 -0.13100530684E+02 -0.29735376284E+02  0.73233918067E+01  0.33308553534E+02  0.10566000000E+00 0. -1.
         13    1    1    0    0    0  0.15002047925E+02  0.11994453369E+01  0.36432179418E+02  0.39418459790E+02  0.10566000000E+00 0.  1.
         22    1    1    0    0    0 -0.19015172410E+01  0.28535930947E+02 -0.43755571225E+02  0.52272986676E+02  0.00000000000E+00 0. -1.
</event>
<event>
 5    1  0.6978980E-004  0.9118800E+02  0.7818608E-02  0.1130116E+00
         25   -1    0    0    0    0  0.00000000000E+00  0.00000000000E+00  0.99999998245E-14  0.12500000000E+03  0.12500000000E+03 0.  0.
        -13    1    3    3    0    0  0.32402321830E+02  0.20659186502E+02  0.25006513474E+02  0.45848111489E+02  0.10566000000E+00 0. -1.
         23    2    1    0    0    0  0.14594066032E+02  0.13415673710E+02 -0.21249031238E+02  0.95939917533E+02  0.91432922863E+02 0.  0.
         13    1    3    3    0    0 -0.17808255798E+02 -0.72435127928E+01 -0.46255544712E+02  0.50091806044E+02  0.10566000000E+00 0.  1.
         22    1    1    0    0    0 -0.14594066032E+02 -0.13415673710E+02  0.21249031238E+02  0.29060082467E+02  0.00000000000E+00 0.  1.
</event>
<event>
 5    1  0.6978980E-004  0.9118800E+02  0.7818608E-02  0.1130116E+00
         25   -1    0    0    0    0  0.00000000000E+00  0.00000000000E+00  0.99999998245E-14  0.12500000000E+03  0.12500000000E+03 0.  0.
        -13    1    3    3    0    0 -0.13632606203E+01 -0.60236445031E+02  0.96567602166E+01  0.61020914213E+02  0.10566000000E+00 0.  1.
         23    2    1    0    0    0 -0.51507092789E+01 -0.30198941368E+02 -0.37580162212E+01  0.94135318700E+02  0.88931601104E+02 0.  0.
         13    1    3    3    0    0 -0.37874486585E+01  0.30037503663E+02 -0.13414776438E+02  0.33114404487E+02  0.10566000000E+00 0. -1.
         22    1    1    0    0    0  0.51507092789E+01  0.30198941368E+02  0.37580162212E+01  0.30864681300E+02  0.00000000000E+00 0.  1.
</event>
<event>
 5    1  0.6978980E-004  0.9118800E+02  0.7818608E-02  0.1130116E+00
         25   -1    0    0    0    0  0.00000000000E+00  0.00000000000E+00  0.99999998245E-14  0.12500000000E+03  0.12500000000E+03 0.  0.
        -13    1    3    3    0    0  0.48064255833E+02  0.24970742597E+02  0.90747060529E+01  0.54918777559E+02  0.10566000000E+00 0. -1.
         23    2    1    0    0    0  0.16234005215E+02  0.10979879334E+02 -0.17534883487E+02  0.98702227957E+02  0.95134415378E+02 0.  0.
         13    1    3    3    0    0 -0.31830250618E+02 -0.13990863263E+02 -0.26609589540E+02  0.43783450398E+02  0.10566000000E+00 0.  1.
         22    1    1    0    0    0 -0.16234005215E+02 -0.10979879334E+02  0.17534883487E+02  0.26297772043E+02  0.00000000000E+00 0. -1.
</event>
<event>
 5    1  0.6978980E-004  0.9118800E+02  0.7818608E-02  0.1130116E+00
         25   -1    0    0    0    0  0.00000000000E+00  0.00000000000E+00  0.99999998245E-14  0.12500000000E+03  0.12500000000E+03 0.  0.
        -13    1    3    3    0    0  0.40906821401E+02  0.23461761317E+02 -0.30045592318E+01  0.47253156735E+02  0.10566000000E+00 0.  1.
         23    2    1    0    0    0  0.20541452832E+02 -0.20125550698E+02 -0.65905548586E+01  0.95497042713E+02  0.90825440700E+02 0.  0.
         13    1    3    3    0    0 -0.20365368569E+02 -0.43587312014E+02 -0.35859956268E+01  0.48243885978E+02  0.10566000000E+00 0. -1.
         22    1    1    0    0    0 -0.20541452832E+02  0.20125550698E+02  0.65905548586E+01  0.29502957287E+02  0.00000000000E+00 0.  1.
</event>
<event>
 5    1  0.6978980E-004  0.9118800E+02  0.7818608E-02  0.1130116E+00
         25   -1    0    0    0    0  0.00000000000E+00  0.00000000000E+00  0.99999998245E-14  0.12500000000E+03  0.12500000000E+03 0.  0.
        -13    1    3    3    0    0  0.53619389003E+02  0.11079140437E+02 -0.20340722350E+02  0.58408410179E+02  0.10566000000E+00 0. -1.
         23    2    1    0    0    0  0.27224652257E+02  0.94239235089E+01  0.58203728008E+01  0.95608355535E+02  0.90978507813E+02 0.  0.
         13    1    3    3    0    0 -0.26394736746E+02 -0.16552169285E+01  0.26161095151E+02  0.37199945356E+02  0.10566000000E+00 0.  1.
         22    1    1    0    0    0 -0.27224652257E+02 -0.94239235089E+01 -0.58203728008E+01  0.29391644465E+02  0.00000000000E+00 0. -1.
</event>
<event>
 5    1  0.6978980E-004  0.9118800E+02  0.7818608E-02  0.1130116E+00
         25   -1    0    0    0    0  0.00000000000E+00  0.00000000000E+00  0.99999998245E-14  0.12500000000E+03  0.12500000000E+03 0.  0.
        -13    1    3    3    0    0 -0.33111115913E+02  0.22319949544E+02  0.24478332302E+02  0.46837229433E+02  0.10566000000E+00 0.  1.
         23    2    1    0    0    0  0.57898500570E+01 -0.26060029178E+01  0.30874322224E+02  0.93479571899E+02  0.88005073573E+02 0.  0.
         13    1    3    3    0    0  0.38900965970E+02 -0.24925952462E+02  0.63959899222E+01  0.46642342465E+02  0.10566000000E+00 0. -1.
         22    1    1    0    0    0 -0.57898500570E+01  0.26060029178E+01 -0.30874322224E+02  0.31520428101E+02  0.00000000000E+00 0.  1.
</event>
<event>
 5    1  0.6978980E-004  0.9118800E+02  0.7818608E-02  0.1130116E+00
         25   -1    0    0    0    0  0.00000000000E+00  0.00000000000E+00  0.99999998245E-14  0.12500000000E+03  0.12500000000E+03 0.  0.
        -13    1    3    3    0    0  0.24050651556E+02  0.38773179452E+01 -0.45346708174E+02  0.51476232777E+02  0.10566000000E+00 0. -1.
         23    2    1    0    0    0 -0.14144443598E+02  0.65072182995E+01 -0.26771976380E+02  0.94029887084E+02  0.88783285426E+02 0.  0.
         13    1    3    3    0    0 -0.38195095154E+02  0.26299003543E+01  0.18574731793E+02  0.42553654307E+02  0.10566000000E+00 0.  1.
         22    1    1    0    0    0  0.14144443598E+02 -0.65072182995E+01  0.26771976380E+02  0.30970112916E+02  0.00000000000E+00 0. -1.
</event>
<event>
 5    1  0.6978980E-004  0.9118800E+02  0.7818608E-02  0.1130116E+00
         25   -1    0    0    0    0  0.00000000000E+00  0.00000000000E+00  0.99999998245E-14  0.12500000000E+03  0.12500000000E+03 0.  0.
        -13    1    3    3    0    0  0.15792443840E+02  0.88037992691E+01 -0.30440547806E+02  0.35405455494E+02  0.10566000000E+00 0.  1.
         23    2    1    0    0    0 -0.22398933926E+02 -0.15784542319E+02  0.96087302529E+01  0.95962236409E+02  0.91463430410E+02 0.  0.
         13    1    3    3    0    0 -0.38191377766E+02 -0.24588341588E+02  0.40049278059E+02  0.60556780915E+02  0.10566000000E+00 0. -1.
         22    1    1    0    0    0  0.22398933926E+02  0.15784542319E+02 -0.96087302529E+01  0.29037763591E+02  0.00000000000E+00 0. -1.
</event>
<event>
 5    1  0.6978980E-004  0.9118800E+02  0.7818608E-02  0.1130116E+00
         25   -1    0    0    0    0  0.00000000000E+00  0.00000000000E+00  0.99999998245E-14  0.12500000000E+03  0.12500000000E+03 0.  0.
        -13    1    3    3    0    0  0.42330286397E+02 -0.25519989603E+02  0.26734957945E+02  0.56195125733E+02  0.10566000000E+00 0. -1.
         23    2    1    0    0    0  0.10385383793E+02 -0.25894828392E+02  0.12325699793E+01  0.97072995816E+02  0.92969075256E+02 0.  0.
         13    1    3    3    0    0 -0.31944902605E+02 -0.37483878932E+00 -0.25502387965E+02  0.40877870083E+02  0.10566000000E+00 0.  1.
         22    1    1    0    0    0 -0.10385383793E+02  0.25894828392E+02 -0.12325699793E+01  0.27927004184E+02  0.00000000000E+00 0. -1.
</event>
<event>
 5    1  0.6978980E-004  0.9118800E+02  0.7818608E-02  0.1130116E+00
         25   -1    0    0    0    0  0.00000000000E+00  0.00000000000E+00  0.99999998245E-14  0.12500000000E+03  0.12500000000E+03 0.  0.
        -13    1    3    3    0    0 -0.45409330175E+02 -0.37875493324E+02  0.14382558803E+02  0.60855808459E+02  0.10566000000E+00 0.  1.
         23    2    1    0    0    0 -0.26536926804E+02 -0.90207826399E+01  0.68151246648E+01  0.96155088354E+02  0.91726616031E+02 0.  0.
         13    1    3    3    0    0  0.18872403371E+02  0.28854710684E+02 -0.75674341384E+01  0.35299279895E+02  0.10566000000E+00 0. -1.
         22    1    1    0    0    0  0.26536926804E+02  0.90207826399E+01 -0.68151246648E+01  0.28844911646E+02  0.00000000000E+00 0.  1.
</event>
<event>
 5    1  0.6978980E-004  0.9118800E+02  0.7818608E-02  0.1130116E+00
         25   -1    0    0    0    0  0.00000000000E+00  0.00000000000E+00  0.99999998245E-14  0.12500000000E+03  0.12500000000E+03 0.  0.
        -13    1    3    3    0    0  0.34355757149E+02 -0.36812112117E+02 -0.30230161289E+02  0.58730941278E+02  0.10566000000E+00 0.  1.
         23    2    1    0    0    0  0.16035480192E+02 -0.23060110011E+02  0.31389580848E+00  0.96910788027E+02  0.92750725101E+02 0.  0.
         13    1    3    3    0    0 -0.18320276958E+02  0.13752002106E+02  0.30544057098E+02  0.38179846749E+02  0.10566000000E+00 0. -1.
         22    1    1    0    0    0 -0.16035480192E+02  0.23060110011E+02 -0.31389580848E+00  0.28089211973E+02  0.00000000000E+00 0.  1.
</event>
<event>
 5    1  0.6978980E-004  0.9118800E+02  0.7818608E-02  0.1130116E+00
         25   -1    0    0    0    0  0.00000000000E+00  0.00000000000E+00  0.99999998245E-14  0.12500000000E+03  0.12500000000E+03 0.  0.
        -13    1    3    3    0    0  0.29771489907E+02 -0.23926972684E+01  0.14412894237E+02  0.33163372806E+02  0.10566000000E+00 0.  1.
         23    2    1    0    0    0 -0.15795087677E+02  0.41044357488E+01 -0.25925484331E+02  0.94365674067E+02  0.89254795484E+02 0.  0.
         13    1    3    3    0    0 -0.45566577584E+02  0.64971330172E+01 -0.40338378568E+02  0.61202301262E+02  0.10566000000E+00 0. -1.
         22    1    1    0    0    0  0.15795087677E+02 -0.41044357488E+01  0.25925484331E+02  0.30634325933E+02  0.00000000000E+00 0. -1.
</event>
<event>
 5    1  0.6978980E-004  0.9118800E+02  0.7818608E-02  0.1130116E+00
         25   -1    0    0    0    0  0.00000000000E+00  0.00000000000E+00  0.99999998245E-14  0.12500000000E+03  0.12500000000E+03 0.  0.
        -13    1    3    3    0    0  0.24962805788E+02 -0.44461714972E+02  0.30763460486E+02  0.59551552761E+02  0.10566000000E+00 0. -1.
         23    2    1    0    0    0 -0.20371594558E+01 -0.20948521870E+02  0.17130050997E+02  0.97862770327E+02  0.94024957228E+02 0.  0.
         13    1    3    3    0    0 -0.26999965244E+02  0.23513193102E+02 -0.13633409490E+02  0.38311217566E+02  0.10566000000E+00 0.  1.
         22    1    1    0    0    0  0.20371594558E+01  0.20948521870E+02 -0.17130050997E+02  0.27137229673E+02  0.00000000000E+00 0. -1.
</event>
<event>
 5    1  0.6978980E-004  0.9118800E+02  0.7818608E-02  0.1130116E+00
         25   -1    0    0    0    0  0.00000000000E+00  0.00000000000E+00  0.99999998245E-14  0.12500000000E+03  0.12500000000E+03 0.  0.
        -13    1    3    3    0    0  0.38379271871E+02 -0.19724694509E+02 -0.97013154357E+01  0.44228483673E+02  0.10566000000E+00 0. -1.
         23    2    1    0    0    0  0.67760453602E+01 -0.13602751751E+00  0.27411680584E+02  0.96762905131E+02  0.92551208976E+02 0.  0.
         13    1    3    3    0    0 -0.31603226510E+02  0.19588666992E+02  0.37112996019E+02  0.52534421458E+02  0.10566000000E+00 0.  1.
         22    1    1    0    0    0 -0.67760453602E+01  0.13602751751E+00 -0.27411680584E+02  0.28237094869E+02  0.00000000000E+00 0. -1.
</event>
<event>
 5    1  0.6978980E-004  0.9118800E+02  0.7818608E-02  0.1130116E+00
         25   -1    0    0    0    0  0.00000000000E+00  0.00000000000E+00  0.99999998245E-14  0.12500000000E+03  0.12500000000E+03 0.  0.
        -13    1    3    3    0    0  0.33583774369E+02 -0.39070981440E+02 -0.30332554839E+02  0.59787009782E+02  0.10566000000E+00 0.  1.
         23    2    1    0    0    0  0.83333984053E+01 -0.16266497830E+02 -0.24698562435E+02  0.94274384189E+02  0.89126853682E+02 0.  0.
         13    1    3    3    0    0 -0.25250375964E+02  0.22804483610E+02  0.56339924040E+01  0.34487374407E+02  0.10566000000E+00 0. -1.
         22    1    1    0    0    0 -0.83333984053E+01  0.16266497830E+02  0.24698562435E+02  0.30725615811E+02  0.00000000000E+00 0.  1.
</event>
<event>
 5    1  0.6978980E-004  0.9118800E+02  0.7818608E-02  0.1130116E+00
         25   -1    0    0    0    0  0.00000000000E+00  0.00000000000E+00  0.99999998245E-14  0.12500000000E+03  0.12500000000E+03 0.  0.
        -13    1    3    3    0    0 -0.35687502436E+02  0.44146135147E+01  0.10635379627E+02  0.37499454748E+02  0.10566000000E+00 0. -1.
         23    2    1    0    0    0  0.71917618960E+01  0.21803425972E+02 -0.21268811298E+02  0.93703464133E+02  0.88322511475E+02 0.  0.
         13    1    3    3    0    0  0.42879264332E+02  0.17388812457E+02 -0.31904190925E+02  0.56204009384E+02  0.10566000000E+00 0.  1.
         22    1    1    0    0    0 -0.71917618960E+01 -0.21803425972E+02  0.21268811298E+02  0.31296535867E+02  0.00000000000E+00 0.  1.
</event>
<event>
 5    1  0.6978980E-004  0.9118800E+02  0.7818608E-02  0.1130116E+00
         25   -1    0    0    0    0  0.00000000000E+00  0.00000000000E+00  0.99999998245E-14  0.12500000000E+03  0.12500000000E+03 0.  0.
        -13    1    3    3    0    0 -0.35436838918E+02  0.28266333371E+02 -0.29269882739E+02  0.53958246398E+02  0.10566000000E+00 0.  1.
         23    2    1    0    0    0 -0.24703982093E+02 -0.87367921837E+01 -0.11853914937E+02  0.96240070093E+02  0.91842351469E+02 0.  0.
         13    1    3    3    0    0  0.10732856825E+02 -0.37003125555E+02  0.17415967802E+02  0.42281823695E+02  0.10566000000E+00 0. -1.
         22    1    1    0    0    0  0.24703982093E+02  0.87367921837E+01  0.11853914937E+02  0.28759929907E+02  0.00000000000E+00 0.  1.
</event>
<event>
 5    1  0.6978980E-004  0.9118800E+02  0.7818608E-02  0.1130116E+00
         25   -1    0    0    0    0  0.00000000000E+00  0.00000000000E+00  0.99999998245E-14  0.12500000000E+03  0.12500000000E+03 0.  0.
        -13    1    3    3    0    0 -0.34494341656E+02 -0.10413252638E+02  0.15643454120E+02  0.39281347452E+02  0.10566000000E+00 0. -1.
         23    2    1    0    0    0  0.26621859690E+01  0.28657490248E+02 -0.23523447419E+01  0.96123149284E+02  0.91683080888E+02 0.  0.
         13    1    3    3    0    0  0.37156527625E+02  0.39070742887E+02 -0.17995798862E+02  0.56841801833E+02  0.10566000000E+00 0.  1.
         22    1    1    0    0    0 -0.26621859690E+01 -0.28657490248E+02  0.23523447419E+01  0.28876850716E+02  0.00000000000E+00 0.  1.
</event>
<event>
 5    1  0.6978980E-004  0.9118800E+02  0.7818608E-02  0.1130116E+00
         25   -1    0    0    0    0  0.00000000000E+00  0.00000000000E+00  0.99999998245E-14  0.12500000000E+03  0.12500000000E+03 0.  0.
        -13    1    3    3    0    0  0.17468615676E+01 -0.41748286084E+02 -0.25059221335E+02  0.48723163426E+02  0.10566000000E+00 0. -1.
         23    2    1    0    0    0  0.24979621925E+02 -0.28306888343E+01 -0.16717793842E+02  0.94809290473E+02  0.89873926243E+02 0.  0.
         13    1    3    3    0    0  0.23232760358E+02  0.38917597250E+02  0.83414274933E+01  0.46086127047E+02  0.10566000000E+00 0.  1.
         22    1    1    0    0    0 -0.24979621925E+02  0.28306888343E+01  0.16717793842E+02  0.30190709527E+02  0.00000000000E+00 0.  1.
</event>
