<event>
 5    1  0.6835419E-004  0.9118800E+02  0.7818608E-02  0.1130116E+00
         25   -1    0    0    0    0  0.00000000000E+00  0.00000000000E+00  0.99999998245E-14  0.12500000000E+03  0.12500000000E+03 0.  0.
        -13    1    3    3    0    0 -0.12340589200E+02  0.40984999391E+02 -0.44554126652E+02  0.61783020990E+02  0.10566000000E+00 0.  1.
         23    2    1    0    0    0 -0.11621643725E+01  0.26613820087E+02 -0.26220063872E+02  0.87621693523E+02  0.79249122271E+02 0.  0.
         13    1    3    3    0    0  0.11178424827E+02 -0.14371179304E+02  0.18334062780E+02  0.25838672533E+02  0.10566000000E+00 0. -1.
         22    1    1    0    0    0  0.11621643725E+01 -0.26613820087E+02  0.26220063872E+02  0.37378306477E+02  0.00000000000E+00 0.  1.
</event>
<event>
 5    1  0.6835419E-004  0.9118800E+02  0.7818608E-02  0.1130116E+00
         25   -1    0    0    0    0  0.00000000000E+00  0.00000000000E+00  0.99999998245E-14  0.12500000000E+03  0.12500000000E+03 0.  0.
        -13    1    3    3    0    0 -0.28922550743E+02 -0.29214536682E+02 -0.86103541396E+01  0.42001814931E+02  0.10566000000E+00 0.  1.
         23    2    1    0    0    0  0.47299122954E+01 -0.84849139047E+01  0.27682990710E+02  0.95662075585E+02  0.91052286607E+02 0.  0.
         13    1    3    3    0    0  0.33652463039E+02  0.20729622777E+02  0.36293344850E+02  0.53660260654E+02  0.10566000000E+00 0. -1.
         22    1    1    0    0    0 -0.47299122954E+01  0.84849139047E+01 -0.27682990710E+02  0.29337924415E+02  0.00000000000E+00 0. -1.
</event>
<event>
 5    1  0.6835419E-004  0.9118800E+02  0.7818608E-02  0.1130116E+00
         25   -1    0    0    0    0  0.00000000000E+00  0.00000000000E+00  0.99999998245E-14  0.12500000000E+03  0.12500000000E+03 0.  0.
        -13    1    3    3    0    0 -0.76168020811E+01  0.57428632498E+02  0.12079148063E+02  0.59177533630E+02  0.10566000000E+00 0. -1.
         23    2    1    0    0    0  0.68667197229E+01  0.24521214179E+02  0.15328377264E+02  0.95277938595E+02  0.90523392827E+02 0.  0.
         13    1    3    3    0    0  0.14483521804E+02 -0.32907418319E+02  0.32492292015E+01  0.36100404966E+02  0.10566000000E+00 0.  1.
         22    1    1    0    0    0 -0.68667197229E+01 -0.24521214179E+02 -0.15328377264E+02  0.29722061405E+02  0.00000000000E+00 0. -1.
</event>
<event>
 5    1  0.6835419E-004  0.9118800E+02  0.7818608E-02  0.1130116E+00
         25   -1    0    0    0    0  0.00000000000E+00  0.00000000000E+00  0.99999998245E-14  0.12500000000E+03  0.12500000000E+03 0.  0.
        -13    1    3    3    0    0  0.73123695298E+01 -0.46869036931E+02  0.18138876177E+02  0.50785897294E+02  0.10566000000E+00 0.  1.
         23    2    1    0    0    0 -0.14665788936E+02 -0.24276778499E+02 -0.11821255335E+02  0.94272334662E+02  0.89123979183E+02 0.  0.
         13    1    3    3    0    0 -0.21978158466E+02  0.22592258432E+02 -0.29960131513E+02  0.43486437367E+02  0.10566000000E+00 0. -1.
         22    1    1    0    0    0  0.14665788936E+02  0.24276778499E+02  0.11821255335E+02  0.30727665338E+02  0.00000000000E+00 0.  1.
</event>
<event>
 5    1  0.6835419E-004  0.9118800E+02  0.7818608E-02  0.1130116E+00
         25   -1    0    0    0    0  0.00000000000E+00  0.00000000000E+00  0.99999998245E-14  0.12500000000E+03  0.12500000000E+03 0.  0.
        -13    1    3    3    0    0  0.33241537021E+02 -0.22014054805E+02 -0.10286422672E+02  0.41175721583E+02  0.10566000000E+00 0. -1.
         23    2    1    0    0    0 -0.18859144163E+02 -0.88231666047E+01 -0.20385409407E+02  0.95861014016E+02  0.91324988388E+02 0.  0.
         13    1    3    3    0    0 -0.52100681184E+02  0.13190888201E+02 -0.10098986735E+02  0.54685292433E+02  0.10566000000E+00 0.  1.
         22    1    1    0    0    0  0.18859144163E+02  0.88231666047E+01  0.20385409407E+02  0.29138985984E+02  0.00000000000E+00 0.  1.
</event>
<event>
 5    1  0.6835419E-004  0.9118800E+02  0.7818608E-02  0.1130116E+00
         25   -1    0    0    0    0  0.00000000000E+00  0.00000000000E+00  0.99999998245E-14  0.12500000000E+03  0.12500000000E+03 0.  0.
        -13    1    3    3    0    0 -0.36284116476E+02  0.13064456752E+02  0.47447495754E+02  0.61143218398E+02  0.10566000000E+00 0. -1.
         23    2    1    0    0    0 -0.17023417857E+02 -0.34444814027E+01  0.19151808842E+02  0.99145542172E+02  0.95715127033E+02 0.  0.
         13    1    3    3    0    0  0.19260698620E+02 -0.16508938155E+02 -0.28295686912E+02  0.38002323773E+02  0.10566000000E+00 0.  1.
         22    1    1    0    0    0  0.17023417857E+02  0.34444814027E+01 -0.19151808842E+02  0.25854457828E+02  0.00000000000E+00 0. -1.
</event>
<event>
 5    1  0.6835419E-004  0.9118800E+02  0.7818608E-02  0.1130116E+00
         25   -1    0    0    0    0  0.00000000000E+00  0.00000000000E+00  0.99999998245E-14  0.12500000000E+03  0.12500000000E+03 0.  0.
        -13    1    3    3    0    0  0.45676929726E+02  0.28414255223E+02 -0.14144983403E+02  0.55622329406E+02  0.10566000000E+00 0.  1.
         23    2    1    0    0    0  0.16224591594E+02  0.14947902257E+02  0.14286805556E+02  0.98717116458E+02  0.95153975821E+02 0.  0.
         13    1    3    3    0    0 -0.29452338131E+02 -0.13466352966E+02  0.28431788959E+02  0.43094787052E+02  0.10566000000E+00 0. -1.
         22    1    1    0    0    0 -0.16224591594E+02 -0.14947902257E+02 -0.14286805556E+02  0.26282883542E+02  0.00000000000E+00 0.  1.
</event>
<event>
 5    1  0.6835419E-004  0.9118800E+02  0.7818608E-02  0.1130116E+00
         25   -1    0    0    0    0  0.00000000000E+00  0.00000000000E+00  0.99999998245E-14  0.12500000000E+03  0.12500000000E+03 0.  0.
        -13    1    3    3    0    0 -0.15394480118E+01  0.18545836269E+02 -0.43281038158E+02  0.47112390845E+02  0.10566000000E+00 0.  1.
         23    2    1    0    0    0  0.16132385902E+01  0.31002595052E+02  0.17157975293E+01  0.93908081438E+02  0.88611626548E+02 0.  0.
         13    1    3    3    0    0  0.31526866021E+01  0.12456758783E+02  0.44996835687E+02  0.46795690593E+02  0.10566000000E+00 0. -1.
         22    1    1    0    0    0 -0.16132385902E+01 -0.31002595052E+02 -0.17157975293E+01  0.31091918562E+02  0.00000000000E+00 0. -1.
</event>
<event>
 5    1  0.6835419E-004  0.9118800E+02  0.7818608E-02  0.1130116E+00
         25   -1    0    0    0    0  0.00000000000E+00  0.00000000000E+00  0.99999998245E-14  0.12500000000E+03  0.12500000000E+03 0.  0.
        -13    1    3    3    0    0 -0.89614028233E+01 -0.37252244815E+02 -0.15458516032E+02  0.41316018277E+02  0.10566000000E+00 0. -1.
         23    2    1    0    0    0 -0.21036397937E+02  0.30227843822E+00  0.21174740128E+02  0.95150527142E+02  0.90347284328E+02 0.  0.
         13    1    3    3    0    0 -0.12074995114E+02  0.37554523253E+02  0.36633256160E+02  0.53834508865E+02  0.10566000000E+00 0.  1.
         22    1    1    0    0    0  0.21036397937E+02 -0.30227843822E+00 -0.21174740128E+02  0.29849472858E+02  0.00000000000E+00 0.  1.
</event>
<event>
 5    1  0.6835419E-004  0.9118800E+02  0.7818608E-02  0.1130116E+00
         25   -1    0    0    0    0  0.00000000000E+00  0.00000000000E+00  0.99999998245E-14  0.12500000000E+03  0.12500000000E+03 0.  0.
        -13    1    3    3    0    0 -0.26904427000E+02  0.14807800829E+02  0.40779204898E+02  0.51049719625E+02  0.10566000000E+00 0.  1.
         23    2    1    0    0    0 -0.19829757694E+02 -0.16978296336E+02  0.29725755489E+02  0.85438625200E+02  0.75727513494E+02 0.  0.
         13    1    3    3    0    0  0.70746693056E+01 -0.31786097165E+02 -0.11053449410E+02  0.34388905575E+02  0.10566000000E+00 0. -1.
         22    1    1    0    0    0  0.19829757694E+02  0.16978296336E+02 -0.29725755489E+02  0.39561374800E+02  0.00000000000E+00 0.  1.
</event>
<event>
 5    1  0.6835419E-004  0.9118800E+02  0.7818608E-02  0.1130116E+00
         25   -1    0    0    0    0  0.00000000000E+00  0.00000000000E+00  0.99999998245E-14  0.12500000000E+03  0.12500000000E+03 0.  0.
        -13    1    3    3    0    0  0.22197225690E+02  0.55889144725E+01 -0.51770059844E+02  0.56604797090E+02  0.10566000000E+00 0.  1.
         23    2    1    0    0    0  0.75619372720E+01 -0.16506880389E+02 -0.19697999728E+02  0.98210614252E+02  0.94486261239E+02 0.  0.
         13    1    3    3    0    0 -0.14635288418E+02 -0.22095794862E+02  0.32072060116E+02  0.41605817162E+02  0.10566000000E+00 0. -1.
         22    1    1    0    0    0 -0.75619372720E+01  0.16506880389E+02  0.19697999728E+02  0.26789385748E+02  0.00000000000E+00 0.  1.
</event>
<event>
 5    1  0.6835419E-004  0.9118800E+02  0.7818608E-02  0.1130116E+00
         25   -1    0    0    0    0  0.00000000000E+00  0.00000000000E+00  0.99999998245E-14  0.12500000000E+03  0.12500000000E+03 0.  0.
        -13    1    3    3    0    0  0.54584164272E+01 -0.44660306817E+02 -0.23586432634E+02  0.50800278378E+02  0.10566000000E+00 0. -1.
         23    2    1    0    0    0  0.44500343432E+01 -0.22721642845E+02  0.16541345898E+02  0.96544912874E+02  0.92256318041E+02 0.  0.
         13    1    3    3    0    0 -0.10083820840E+01  0.21938663971E+02  0.40127778531E+02  0.45744634496E+02  0.10566000000E+00 0.  1.
         22    1    1    0    0    0 -0.44500343432E+01  0.22721642845E+02 -0.16541345898E+02  0.28455087126E+02  0.00000000000E+00 0. -1.
</event>
<event>
 5    1  0.6835419E-004  0.9118800E+02  0.7818608E-02  0.1130116E+00
         25   -1    0    0    0    0  0.00000000000E+00  0.00000000000E+00  0.99999998245E-14  0.12500000000E+03  0.12500000000E+03 0.  0.
        -13    1    3    3    0    0 -0.42128074881E+02  0.18754419306E+02  0.40969038109E+02  0.61684489009E+02  0.10566000000E+00 0. -1.
         23    2    1    0    0    0 -0.14512268432E+02  0.13204006129E+02  0.21302354535E+02  0.96038956827E+02  0.91568221599E+02 0.  0.
         13    1    3    3    0    0  0.27615806449E+02 -0.55504131771E+01 -0.19666683573E+02  0.34354467818E+02  0.10566000000E+00 0.  1.
         22    1    1    0    0    0  0.14512268432E+02 -0.13204006129E+02 -0.21302354535E+02  0.28961043173E+02  0.00000000000E+00 0. -1.
</event>
<event>
 5    1  0.6835419E-004  0.9118800E+02  0.7818608E-02  0.1130116E+00
         25   -1    0    0    0    0  0.00000000000E+00  0.00000000000E+00  0.99999998245E-14  0.12500000000E+03  0.12500000000E+03 0.  0.
        -13    1    3    3    0    0 -0.42497994787E+02  0.38251379463E+02  0.24558515958E+02  0.62228445762E+02  0.10566000000E+00 0.  1.
         23    2    1    0    0    0 -0.20045498425E+02  0.12912129424E+02  0.86517265070E+01  0.99634719301E+02  0.96351854291E+02 0.  0.
         13    1    3    3    0    0  0.22452496362E+02 -0.25339250039E+02 -0.15906789451E+02  0.37406273539E+02  0.10566000000E+00 0. -1.
         22    1    1    0    0    0  0.20045498425E+02 -0.12912129424E+02 -0.86517265070E+01  0.25365280699E+02  0.00000000000E+00 0.  1.
</event>
<event>
 5    1  0.6835419E-004  0.9118800E+02  0.7818608E-02  0.1130116E+00
         25   -1    0    0    0    0  0.00000000000E+00  0.00000000000E+00  0.99999998245E-14  0.12500000000E+03  0.12500000000E+03 0.  0.
        -13    1    3    3    0    0 -0.34579897510E+01 -0.17880239048E+02  0.32105857297E+02  0.36911487078E+02  0.10566000000E+00 0. -1.
         23    2    1    0    0    0  0.20947198954E+02  0.17038950396E+02 -0.94179255883E+01  0.96402652273E+02  0.92063364420E+02 0.  0.
         13    1    3    3    0    0  0.24405188705E+02  0.34919189444E+02 -0.41523782885E+02  0.59491165195E+02  0.10566000000E+00 0.  1.
         22    1    1    0    0    0 -0.20947198954E+02 -0.17038950396E+02  0.94179255883E+01  0.28597347727E+02  0.00000000000E+00 0.  1.
</event>
<event>
 5    1  0.6835419E-004  0.9118800E+02  0.7818608E-02  0.1130116E+00
         25   -1    0    0    0    0  0.00000000000E+00  0.00000000000E+00  0.99999998245E-14  0.12500000000E+03  0.12500000000E+03 0.  0.
        -13    1    3    3    0    0  0.33624929074E+02  0.19491643524E+02 -0.75066409040E+01  0.39584351001E+02  0.10566000000E+00 0. -1.
         23    2    1    0    0    0 -0.18041045897E+02  0.10661564914E+02  0.17536214740E+02  0.97674789463E+02  0.93774716026E+02 0.  0.
         13    1    3    3    0    0 -0.51665974970E+02 -0.88300786100E+01  0.25042855644E+02  0.58090438462E+02  0.10566000000E+00 0.  1.
         22    1    1    0    0    0  0.18041045897E+02 -0.10661564914E+02 -0.17536214740E+02  0.27325210537E+02  0.00000000000E+00 0.  1.
</event>
<event>
 5    1  0.6835419E-004  0.9118800E+02  0.7818608E-02  0.1130116E+00
         25   -1    0    0    0    0  0.00000000000E+00  0.00000000000E+00  0.99999998245E-14  0.12500000000E+03  0.12500000000E+03 0.  0.
        -13    1    3    3    0    0 -0.42434357620E+02 -0.16379848039E+02 -0.22587398550E+02  0.50785587184E+02  0.10566000000E+00 0.  1.
         23    2    1    0    0    0 -0.14728647801E+02 -0.22252363866E+02  0.12212019163E+02  0.95653208426E+02  0.91040112623E+02 0.  0.
         13    1    3    3    0    0  0.27705709819E+02 -0.58725158272E+01  0.34799417713E+02  0.44867621242E+02  0.10566000000E+00 0. -1.
         22    1    1    0    0    0  0.14728647801E+02  0.22252363866E+02 -0.12212019163E+02  0.29346791574E+02  0.00000000000E+00 0.  1.
</event>
<event>
 5    1  0.6835419E-004  0.9118800E+02  0.7818608E-02  0.1130116E+00
         25   -1    0    0    0    0  0.00000000000E+00  0.00000000000E+00  0.99999998245E-14  0.12500000000E+03  0.12500000000E+03 0.  0.
        -13    1    3    3    0    0  0.24686613363E+02 -0.29200074161E+01  0.51277546022E+02  0.56985552667E+02  0.10566000000E+00 0. -1.
         23    2    1    0    0    0  0.27645607085E+02 -0.21707629651E+01  0.14845153534E+02  0.93545741363E+02  0.88099008739E+02 0.  0.
         13    1    3    3    0    0  0.29589937216E+01  0.74924445106E+00 -0.36432392488E+02  0.36560188697E+02  0.10566000000E+00 0.  1.
         22    1    1    0    0    0 -0.27645607085E+02  0.21707629651E+01 -0.14845153534E+02  0.31454258637E+02  0.00000000000E+00 0. -1.
</event>
<event>
 5    1  0.6835419E-004  0.9118800E+02  0.7818608E-02  0.1130116E+00
         25   -1    0    0    0    0  0.00000000000E+00  0.00000000000E+00  0.99999998245E-14  0.12500000000E+03  0.12500000000E+03 0.  0.
        -13    1    3    3    0    0 -0.10480914919E+02  0.26854132136E+02 -0.48594269300E+02  0.56501399657E+02  0.10566000000E+00 0. -1.
         23    2    1    0    0    0 -0.22115022408E+02  0.96211261981E+01 -0.13317279495E+02  0.97450222895E+02  0.93474893547E+02 0.  0.
         13    1    3    3    0    0 -0.11634107489E+02 -0.17233005938E+02  0.35276989806E+02  0.40948823237E+02  0.10566000000E+00 0.  1.
         22    1    1    0    0    0  0.22115022408E+02 -0.96211261981E+01  0.13317279495E+02  0.27549777105E+02  0.00000000000E+00 0. -1.
</event>
<event>
 5    1  0.6835419E-004  0.9118800E+02  0.7818608E-02  0.1130116E+00
         25   -1    0    0    0    0  0.00000000000E+00  0.00000000000E+00  0.99999998245E-14  0.12500000000E+03  0.12500000000E+03 0.  0.
        -13    1    3    3    0    0 -0.22254996401E+02 -0.39317337602E+02  0.36257794782E+02  0.57929066516E+02  0.10566000000E+00 0. -1.
         23    2    1    0    0    0 -0.20560925307E+02 -0.47147776488E+01  0.18893715823E+02  0.96681220447E+02  0.92440819511E+02 0.  0.
         13    1    3    3    0    0  0.16940710939E+01  0.34602559953E+02 -0.17364078959E+02  0.38752153931E+02  0.10566000000E+00 0.  1.
         22    1    1    0    0    0  0.20560925307E+02  0.47147776488E+01 -0.18893715823E+02  0.28318779553E+02  0.00000000000E+00 0. -1.
</event>
<event>
 5    1  0.6835419E-004  0.9118800E+02  0.7818608E-02  0.1130116E+00
         25   -1    0    0    0    0  0.00000000000E+00  0.00000000000E+00  0.99999998245E-14  0.12500000000E+03  0.12500000000E+03 0.  0.
        -13    1    3    3    0    0 -0.15595013461E+02 -0.28741956013E+02  0.83643280734E+01  0.33753186938E+02  0.10566000000E+00 0. -1.
         23    2    1    0    0    0  0.14771109322E+02  0.22276298512E+02 -0.10845175344E+02  0.96154948878E+02  0.91726425961E+02 0.  0.
         13    1    3    3    0    0  0.30366122783E+02  0.51018254525E+02 -0.19209503417E+02  0.62401761940E+02  0.10566000000E+00 0.  1.
         22    1    1    0    0    0 -0.14771109322E+02 -0.22276298512E+02  0.10845175344E+02  0.28845051122E+02  0.00000000000E+00 0.  1.
</event>
<event>
 5    1  0.6835419E-004  0.9118800E+02  0.7818608E-02  0.1130116E+00
         25   -1    0    0    0    0  0.00000000000E+00  0.00000000000E+00  0.99999998245E-14  0.12500000000E+03  0.12500000000E+03 0.  0.
        -13    1    3    3    0    0 -0.13428991830E+02  0.51650691852E+02 -0.14145351227E+02  0.55210813395E+02  0.10566000000E+00 0. -1.
         23    2    1    0    0    0 -0.41829025249E+00  0.16051943338E+02 -0.25577925906E+02  0.94799500909E+02  0.89860309522E+02 0.  0.
         13    1    3    3    0    0  0.13010701578E+02 -0.35598748514E+02 -0.11432574679E+02  0.39588687515E+02  0.10566000000E+00 0.  1.
         22    1    1    0    0    0  0.41829025249E+00 -0.16051943338E+02  0.25577925906E+02  0.30200499091E+02  0.00000000000E+00 0. -1.
</event>
<event>
 5    1  0.6835419E-004  0.9118800E+02  0.7818608E-02  0.1130116E+00
         25   -1    0    0    0    0  0.00000000000E+00  0.00000000000E+00  0.99999998245E-14  0.12500000000E+03  0.12500000000E+03 0.  0.
        -13    1    3    3    0    0 -0.10821865714E+02 -0.18175458798E+02  0.32336931716E+02  0.38641278407E+02  0.10566000000E+00 0.  1.
         23    2    1    0    0    0 -0.22520696213E+02  0.87226986378E+01 -0.16598973145E+02  0.95694827438E+02  0.91097238485E+02 0.  0.
         13    1    3    3    0    0 -0.11698830499E+02  0.26898157436E+02 -0.48935904861E+02  0.57053549031E+02  0.10566000000E+00 0. -1.
         22    1    1    0    0    0  0.22520696213E+02 -0.87226986378E+01  0.16598973145E+02  0.29305172562E+02  0.00000000000E+00 0. -1.
</event>
<event>
 5    1  0.6835419E-004  0.9118800E+02  0.7818608E-02  0.1130116E+00
         25   -1    0    0    0    0  0.00000000000E+00  0.00000000000E+00  0.99999998245E-14  0.12500000000E+03  0.12500000000E+03 0.  0.
        -13    1    3    3    0    0  0.71596899686E+01 -0.36830225418E+02 -0.48254436066E+02  0.61124695737E+02  0.10566000000E+00 0.  1.
         23    2    1    0    0    0 -0.41322818252E+01 -0.21637794764E+02 -0.19330569979E+02  0.95692307306E+02  0.91093780394E+02 0.  0.
         13    1    3    3    0    0 -0.11291971794E+02  0.15192430655E+02  0.28923866087E+02  0.34567611569E+02  0.10566000000E+00 0. -1.
         22    1    1    0    0    0  0.41322818252E+01  0.21637794764E+02  0.19330569979E+02  0.29307692694E+02  0.00000000000E+00 0.  1.
</event>
<event>
 5    1  0.6835419E-004  0.9118800E+02  0.7818608E-02  0.1130116E+00
         25   -1    0    0    0    0  0.00000000000E+00  0.00000000000E+00  0.99999998245E-14  0.12500000000E+03  0.12500000000E+03 0.  0.
        -13    1    3    3    0    0 -0.22645578146E+02 -0.40291301460E+02 -0.15731302020E+02  0.48823111435E+02  0.10566000000E+00 0.  1.
         23    2    1    0    0    0 -0.19471201063E+02 -0.19262748985E+02  0.20468162968E+02  0.90807502803E+02  0.84124168351E+02 0.  0.
         13    1    3    3    0    0  0.31743770831E+01  0.21028552475E+02  0.36199464988E+02  0.41984391368E+02  0.10566000000E+00 0. -1.
         22    1    1    0    0    0  0.19471201063E+02  0.19262748985E+02 -0.20468162968E+02  0.34192497197E+02  0.00000000000E+00 0. -1.
</event>
<event>
 5    1  0.6835419E-004  0.9118800E+02  0.7818608E-02  0.1130116E+00
         25   -1    0    0    0    0  0.00000000000E+00  0.00000000000E+00  0.99999998245E-14  0.12500000000E+03  0.12500000000E+03 0.  0.
        -13    1    3    3    0    0  0.15881235248E+02  0.51630772903E+02 -0.15294128340E+02  0.56141534262E+02  0.10566000000E+00 0. -1.
         23    2    1    0    0    0 -0.10070561069E+02  0.21997007086E+02 -0.16774866061E+02  0.95560559579E+02  0.90912814799E+02 0.  0.
         13    1    3    3    0    0 -0.25951796317E+02 -0.29633765818E+02 -0.14807377208E+01  0.39419025316E+02  0.10566000000E+00 0.  1.
         22    1    1    0    0    0  0.10070561069E+02 -0.21997007086E+02  0.16774866061E+02  0.29439440421E+02  0.00000000000E+00 0.  1.
</event>
<event>
 5    1  0.6835419E-004  0.9118800E+02  0.7818608E-02  0.1130116E+00
         25   -1    0    0    0    0  0.00000000000E+00  0.00000000000E+00  0.99999998245E-14  0.12500000000E+03  0.12500000000E+03 0.  0.
        -13    1    3    3    0    0 -0.90609340468E+01  0.31188759334E+02 -0.84945522790E+01  0.33570937089E+02  0.10566000000E+00 0.  1.
         23    2    1    0    0    0  0.52645723342E+01 -0.28796118569E+02 -0.46188543030E+01  0.95364447338E+02  0.90642770449E+02 0.  0.
         13    1    3    3    0    0  0.14325506381E+02 -0.59984877903E+02  0.38756979760E+01  0.61793510249E+02  0.10566000000E+00 0. -1.
         22    1    1    0    0    0 -0.52645723342E+01  0.28796118569E+02  0.46188543030E+01  0.29635552662E+02  0.00000000000E+00 0. -1.
</event>
<event>
 5    1  0.6835419E-004  0.9118800E+02  0.7818608E-02  0.1130116E+00
         25   -1    0    0    0    0  0.00000000000E+00  0.00000000000E+00  0.99999998245E-14  0.12500000000E+03  0.12500000000E+03 0.  0.
        -13    1    3    3    0    0  0.19382521683E+02 -0.15191667002E+02  0.28523295656E+02  0.37683662935E+02  0.10566000000E+00 0.  1.
         23    2    1    0    0    0  0.51482668050E+00 -0.10648245665E+02 -0.26717356413E+02  0.96234268374E+02  0.91834454828E+02 0.  0.
         13    1    3    3    0    0 -0.18867695002E+02  0.45434213364E+01 -0.55240652070E+02  0.58550605439E+02  0.10566000000E+00 0. -1.
         22    1    1    0    0    0 -0.51482668050E+00  0.10648245665E+02  0.26717356413E+02  0.28765731626E+02  0.00000000000E+00 0. -1.
</event>
<event>
 5    1  0.6835419E-004  0.9118800E+02  0.7818608E-02  0.1130116E+00
         25   -1    0    0    0    0  0.00000000000E+00  0.00000000000E+00  0.99999998245E-14  0.12500000000E+03  0.12500000000E+03 0.  0.
        -13    1    3    3    0    0  0.11578144175E+02 -0.10546443912E+02 -0.39856637034E+02  0.42823399928E+02  0.10566000000E+00 0. -1.
         23    2    1    0    0    0  0.21444815734E+02  0.21041586505E+02  0.42185004355E+00  0.94953262373E+02  0.90073945142E+02 0.  0.
         13    1    3    3    0    0  0.98666715593E+01  0.31588030417E+02  0.40278487077E+02  0.52129862445E+02  0.10566000000E+00 0.  1.
         22    1    1    0    0    0 -0.21444815734E+02 -0.21041586505E+02 -0.42185004355E+00  0.30046737627E+02  0.00000000000E+00 0. -1.
</event>
<event>
 5    1  0.6835419E-004  0.9118800E+02  0.7818608E-02  0.1130116E+00
         25   -1    0    0    0    0  0.00000000000E+00  0.00000000000E+00  0.99999998245E-14  0.12500000000E+03  0.12500000000E+03 0.  0.
        -13    1    3    3    0    0 -0.42784077217E+02 -0.17970828961E+02  0.19452533950E+02  0.50317394586E+02  0.10566000000E+00 0. -1.
         23    2    1    0    0    0 -0.15652222947E+01 -0.29306124718E+02  0.73851623823E+01  0.94737159911E+02  0.89773548319E+02 0.  0.
         13    1    3    3    0    0  0.41218854922E+02 -0.11335295757E+02 -0.12067371567E+02  0.44419765325E+02  0.10566000000E+00 0.  1.
         22    1    1    0    0    0  0.15652222947E+01  0.29306124718E+02 -0.73851623823E+01  0.30262840089E+02  0.00000000000E+00 0.  1.
</event>
<event>
 5    1  0.6835419E-004  0.9118800E+02  0.7818608E-02  0.1130116E+00
         25   -1    0    0    0    0  0.00000000000E+00  0.00000000000E+00  0.99999998245E-14  0.12500000000E+03  0.12500000000E+03 0.  0.
        -13    1    3    3    0    0 -0.24310712147E+02 -0.29376521305E+02 -0.19736577552E+02  0.42936399320E+02  0.10566000000E+00 0. -1.
         23    2    1    0    0    0  0.35884231899E+01 -0.15317398826E+02  0.23768367386E+02  0.96496758501E+02  0.92191049593E+02 0.  0.
         13    1    3    3    0    0  0.27899135336E+02  0.14059122479E+02  0.43504944939E+02  0.53560359181E+02  0.10566000000E+00 0.  1.
         22    1    1    0    0    0 -0.35884231899E+01  0.15317398826E+02 -0.23768367386E+02  0.28503241499E+02  0.00000000000E+00 0.  1.
</event>
<event>
 5    1  0.6835419E-004  0.9118800E+02  0.7818608E-02  0.1130116E+00
         25   -1    0    0    0    0  0.00000000000E+00  0.00000000000E+00  0.99999998245E-14  0.12500000000E+03  0.12500000000E+03 0.  0.
        -13    1    3    3    0    0  0.33072798850E+02 -0.25986123992E+02 -0.35431619241E+02  0.54995449539E+02  0.10566000000E+00 0.  1.
         23    2    1    0    0    0 -0.37977316592E+01 -0.10543305813E+02 -0.26884903601E+02  0.95873000415E+02  0.91341393156E+02 0.  0.
         13    1    3    3    0    0 -0.36870530509E+02  0.15442818179E+02  0.85467156399E+01  0.40877550876E+02  0.10566000000E+00 0. -1.
         22    1    1    0    0    0  0.37977316592E+01  0.10543305813E+02  0.26884903601E+02  0.29126999585E+02  0.00000000000E+00 0. -1.
</event>
<event>
 5    1  0.6835419E-004  0.9118800E+02  0.7818608E-02  0.1130116E+00
         25   -1    0    0    0    0  0.00000000000E+00  0.00000000000E+00  0.99999998245E-14  0.12500000000E+03  0.12500000000E+03 0.  0.
        -13    1    3    3    0    0  0.26516950527E+02 -0.96539918036E+01  0.51465013538E+02  0.58694182041E+02  0.10566000000E+00 0. -1.
         23    2    1    0    0    0  0.24103099430E+02 -0.60101986459E+01  0.13857261241E+02  0.96555218774E+02  0.92270280662E+02 0.  0.
         13    1    3    3    0    0 -0.24138510971E+01  0.36437931577E+01 -0.37607752296E+02  0.37861036733E+02  0.10566000000E+00 0.  1.
         22    1    1    0    0    0 -0.24103099430E+02  0.60101986459E+01 -0.13857261241E+02  0.28444781226E+02  0.00000000000E+00 0. -1.
</event>
<event>
 5    1  0.6835419E-004  0.9118800E+02  0.7818608E-02  0.1130116E+00
         25   -1    0    0    0    0  0.00000000000E+00  0.00000000000E+00  0.99999998245E-14  0.12500000000E+03  0.12500000000E+03 0.  0.
        -13    1    3    3    0    0  0.91946318724E+01 -0.42686875377E+02 -0.17545748048E+01  0.43701261784E+02  0.10566000000E+00 0.  1.
         23    2    1    0    0    0  0.17992468186E+02  0.42022040803E+01 -0.22637797176E+02  0.95779163401E+02  0.91212887522E+02 0.  0.
         13    1    3    3    0    0  0.87978363137E+01  0.46889079457E+02 -0.20883222372E+02  0.52077901617E+02  0.10566000000E+00 0. -1.
         22    1    1    0    0    0 -0.17992468186E+02 -0.42022040803E+01  0.22637797176E+02  0.29220836599E+02  0.00000000000E+00 0. -1.
</event>
<event>
 5    1  0.6835419E-004  0.9118800E+02  0.7818608E-02  0.1130116E+00
         25   -1    0    0    0    0  0.00000000000E+00  0.00000000000E+00  0.99999998245E-14  0.12500000000E+03  0.12500000000E+03 0.  0.
        -13    1    3    3    0    0  0.19354563867E+02  0.31370846304E+02 -0.11793942258E+02  0.38701904066E+02  0.10566000000E+00 0.  1.
         23    2    1    0    0    0 -0.12237391161E+01 -0.43786864698E+01  0.28365914198E+02  0.96272042869E+02  0.91885857003E+02 0.  0.
         13    1    3    3    0    0 -0.20578302983E+02 -0.35749532773E+02  0.40159856456E+02  0.57570138803E+02  0.10566000000E+00 0. -1.
         22    1    1    0    0    0  0.12237391161E+01  0.43786864698E+01 -0.28365914198E+02  0.28727957131E+02  0.00000000000E+00 0. -1.
</event>
<event>
 5    1  0.6835419E-004  0.9118800E+02  0.7818608E-02  0.1130116E+00
         25   -1    0    0    0    0  0.00000000000E+00  0.00000000000E+00  0.99999998245E-14  0.12500000000E+03  0.12500000000E+03 0.  0.
        -13    1    3    3    0    0 -0.28606020715E+02 -0.47486805389E+02  0.21172998087E+02  0.59343138771E+02  0.10566000000E+00 0.  1.
         23    2    1    0    0    0 -0.23183011370E+02 -0.19829647797E+02  0.16936092285E+00  0.94492695447E+02  0.89432510095E+02 0.  0.
         13    1    3    3    0    0  0.54230093445E+01  0.27657157592E+02 -0.21003637164E+02  0.35149556677E+02  0.10566000000E+00 0. -1.
         22    1    1    0    0    0  0.23183011370E+02  0.19829647797E+02 -0.16936092285E+00  0.30507304553E+02  0.00000000000E+00 0.  1.
</event>
<event>
 5    1  0.6835419E-004  0.9118800E+02  0.7818608E-02  0.1130116E+00
         25   -1    0    0    0    0  0.00000000000E+00  0.00000000000E+00  0.99999998245E-14  0.12500000000E+03  0.12500000000E+03 0.  0.
        -13    1    3    3    0    0 -0.29306983564E+02 -0.37901014355E+02 -0.45476502720E+01  0.48125652845E+02  0.10566000000E+00 0. -1.
         23    2    1    0    0    0 -0.34520012970E+02  0.37384976224E+01 -0.34834109212E+01  0.90103842453E+02  0.83072020640E+02 0.  0.
         13    1    3    3    0    0 -0.52130294065E+01  0.41639511977E+02  0.10642393508E+01  0.41978189608E+02  0.10566000000E+00 0.  1.
         22    1    1    0    0    0  0.34520012970E+02 -0.37384976224E+01  0.34834109212E+01  0.34896157547E+02  0.00000000000E+00 0. -1.
</event>
<event>
 5    1  0.6835419E-004  0.9118800E+02  0.7818608E-02  0.1130116E+00
         25   -1    0    0    0    0  0.00000000000E+00  0.00000000000E+00  0.99999998245E-14  0.12500000000E+03  0.12500000000E+03 0.  0.
        -13    1    3    3    0    0 -0.27101847073E+01  0.10543115963E+02 -0.49949384628E+02  0.51121957945E+02  0.10566000000E+00 0.  1.
         23    2    1    0    0    0  0.25341992523E+02  0.48391353995E+01 -0.23070641690E+02  0.90389476680E+02  0.83500713590E+02 0.  0.
         13    1    3    3    0    0  0.28052177230E+02 -0.57039805637E+01  0.26878742938E+02  0.39267518735E+02  0.10566000000E+00 0. -1.
         22    1    1    0    0    0 -0.25341992523E+02 -0.48391353995E+01  0.23070641690E+02  0.34610523320E+02  0.00000000000E+00 0.  1.
</event>
<event>
 5    1  0.6835419E-004  0.9118800E+02  0.7818608E-02  0.1130116E+00
         25   -1    0    0    0    0  0.00000000000E+00  0.00000000000E+00  0.99999998245E-14  0.12500000000E+03  0.12500000000E+03 0.  0.
        -13    1    3    3    0    0 -0.93537202859E+01 -0.35138096588E+02  0.25629739353E+02  0.44486769026E+02  0.10566000000E+00 0. -1.
         23    2    1    0    0    0 -0.26840296011E+02  0.14385177980E+01 -0.77765255273E+01  0.97018842542E+02  0.92896235852E+02 0.  0.
         13    1    3    3    0    0 -0.17486575725E+02  0.36576614386E+02 -0.33406264881E+02  0.52532073516E+02  0.10566000000E+00 0.  1.
         22    1    1    0    0    0  0.26840296011E+02 -0.14385177980E+01  0.77765255273E+01  0.27981157458E+02  0.00000000000E+00 0. -1.
</event>
<event>
 5    1  0.6835419E-004  0.9118800E+02  0.7818608E-02  0.1130116E+00
         25   -1    0    0    0    0  0.00000000000E+00  0.00000000000E+00  0.99999998245E-14  0.12500000000E+03  0.12500000000E+03 0.  0.
        -13    1    3    3    0    0 -0.44632272985E+02  0.16003088789E+02 -0.13568564164E+02  0.49317904863E+02  0.10566000000E+00 0. -1.
         23    2    1    0    0    0 -0.20111465969E+02 -0.13290273125E+01  0.21529505651E+02  0.95508357276E+02  0.90841011217E+02 0.  0.
         13    1    3    3    0    0  0.24520807016E+02 -0.17332116101E+02  0.35098069815E+02  0.46190452412E+02  0.10566000000E+00 0.  1.
         22    1    1    0    0    0  0.20111465969E+02  0.13290273125E+01 -0.21529505651E+02  0.29491642724E+02  0.00000000000E+00 0. -1.
</event>
<event>
 5    1  0.6835419E-004  0.9118800E+02  0.7818608E-02  0.1130116E+00
         25   -1    0    0    0    0  0.00000000000E+00  0.00000000000E+00  0.99999998245E-14  0.12500000000E+03  0.12500000000E+03 0.  0.
        -13    1    3    3    0    0  0.30578904642E+02 -0.29409275582E+02 -0.41911610117E+01  0.42632756116E+02  0.10566000000E+00 0.  1.
         23    2    1    0    0    0  0.12343063187E+02  0.20413437747E+02 -0.15058768309E+02  0.96789609140E+02  0.92587268482E+02 0.  0.
         13    1    3    3    0    0 -0.18235841455E+02  0.49822713329E+02 -0.10867607297E+02  0.54156853024E+02  0.10566000000E+00 0. -1.
         22    1    1    0    0    0 -0.12343063187E+02 -0.20413437747E+02  0.15058768309E+02  0.28210390860E+02  0.00000000000E+00 0. -1.
</event>
<event>
 5    1  0.6835419E-004  0.9118800E+02  0.7818608E-02  0.1130116E+00
         25   -1    0    0    0    0  0.00000000000E+00  0.00000000000E+00  0.99999998245E-14  0.12500000000E+03  0.12500000000E+03 0.  0.
        -13    1    3    3    0    0  0.42572146269E+02  0.28109906110E+02 -0.23404548967E+02  0.56127876637E+02  0.10566000000E+00 0.  1.
         23    2    1    0    0    0  0.22843777517E+02 -0.61620597197E+01 -0.16204028038E+02  0.96322837032E+02  0.91954930580E+02 0.  0.
         13    1    3    3    0    0 -0.19728368752E+02 -0.34271965829E+02  0.72005209288E+01  0.40194960394E+02  0.10566000000E+00 0. -1.
         22    1    1    0    0    0 -0.22843777517E+02  0.61620597197E+01  0.16204028038E+02  0.28677162968E+02  0.00000000000E+00 0.  1.
</event>
<event>
 5    1  0.6835419E-004  0.9118800E+02  0.7818608E-02  0.1130116E+00
         25   -1    0    0    0    0  0.00000000000E+00  0.00000000000E+00  0.99999998245E-14  0.12500000000E+03  0.12500000000E+03 0.  0.
        -13    1    3    3    0    0 -0.17721939952E+02  0.49023826118E+02  0.18913894195E+02  0.55454028173E+02  0.10566000000E+00 0.  1.
         23    2    1    0    0    0  0.84568806223E+01  0.27743888159E+02 -0.32413005290E+01  0.95815274728E+02  0.91262361804E+02 0.  0.
         13    1    3    3    0    0  0.26178820575E+02 -0.21279937959E+02 -0.22155194724E+02  0.40361246555E+02  0.10566000000E+00 0. -1.
         22    1    1    0    0    0 -0.84568806223E+01 -0.27743888159E+02  0.32413005290E+01  0.29184725272E+02  0.00000000000E+00 0.  1.
</event>
<event>
 5    1  0.6835419E-004  0.9118800E+02  0.7818608E-02  0.1130116E+00
         25   -1    0    0    0    0  0.00000000000E+00  0.00000000000E+00  0.99999998245E-14  0.12500000000E+03  0.12500000000E+03 0.  0.
        -13    1    3    3    0    0 -0.16355041473E+02 -0.47956198107E+02 -0.24908170664E+02  0.56459830396E+02  0.10566000000E+00 0. -1.
         23    2    1    0    0    0 -0.15019886510E+02 -0.88104371492E+01 -0.23626982887E+02  0.95649444402E+02  0.91034944393E+02 0.  0.
         13    1    3    3    0    0  0.13351549627E+01  0.39145760958E+02  0.12811877771E+01  0.39189614006E+02  0.10566000000E+00 0.  1.
         22    1    1    0    0    0  0.15019886510E+02  0.88104371492E+01  0.23626982887E+02  0.29350555598E+02  0.00000000000E+00 0. -1.
</event>
<event>
 5    1  0.6835419E-004  0.9118800E+02  0.7818608E-02  0.1130116E+00
         25   -1    0    0    0    0  0.00000000000E+00  0.00000000000E+00  0.99999998245E-14  0.12500000000E+03  0.12500000000E+03 0.  0.
        -13    1    3    3    0    0 -0.33188327523E+02  0.77412087616E+01 -0.42199208017E+02  0.54241826279E+02  0.10566000000E+00 0.  1.
         23    2    1    0    0    0 -0.88101477231E+01  0.24797154444E+02 -0.14198780558E+02  0.95098111418E+02  0.90274735417E+02 0.  0.
         13    1    3    3    0    0  0.24378179800E+02  0.17055945682E+02  0.28000427459E+02  0.40856285139E+02  0.10566000000E+00 0. -1.
         22    1    1    0    0    0  0.88101477231E+01 -0.24797154444E+02  0.14198780558E+02  0.29901888582E+02  0.00000000000E+00 0.  1.
</event>
<event>
 5    1  0.6835419E-004  0.9118800E+02  0.7818608E-02  0.1130116E+00
         25   -1    0    0    0    0  0.00000000000E+00  0.00000000000E+00  0.99999998245E-14  0.12500000000E+03  0.12500000000E+03 0.  0.
        -13    1    3    3    0    0 -0.35259349790E+02 -0.35946507899E+02  0.32405853589E+02  0.59879242552E+02  0.10566000000E+00 0.  1.
         23    2    1    0    0    0 -0.28465160655E+02 -0.18330978252E+02  0.89688563976E+01  0.89975287013E+02  0.82878355155E+02 0.  0.
         13    1    3    3    0    0  0.67941891348E+01  0.17615529647E+02 -0.23436997192E+02  0.30096044460E+02  0.10566000000E+00 0. -1.
         22    1    1    0    0    0  0.28465160655E+02  0.18330978252E+02 -0.89688563976E+01  0.35024712987E+02  0.00000000000E+00 0.  1.
</event>
<event>
 5    1  0.6835419E-004  0.9118800E+02  0.7818608E-02  0.1130116E+00
         25   -1    0    0    0    0  0.00000000000E+00  0.00000000000E+00  0.99999998245E-14  0.12500000000E+03  0.12500000000E+03 0.  0.
        -13    1    3    3    0    0 -0.41469869762E+02  0.36614177237E+02 -0.17534642906E+02  0.58032947011E+02  0.10566000000E+00 0.  1.
         23    2    1    0    0    0 -0.28621384455E+02  0.57774106784E+01  0.84688362592E-01  0.95801210737E+02  0.91243096639E+02 0.  0.
         13    1    3    3    0    0  0.12848485307E+02 -0.30836766559E+02  0.17619331269E+02  0.37768263726E+02  0.10566000000E+00 0. -1.
         22    1    1    0    0    0  0.28621384455E+02 -0.57774106784E+01 -0.84688362592E-01  0.29198789263E+02  0.00000000000E+00 0.  1.
</event>
<event>
 5    1  0.6835419E-004  0.9118800E+02  0.7818608E-02  0.1130116E+00
         25   -1    0    0    0    0  0.00000000000E+00  0.00000000000E+00  0.99999998245E-14  0.12500000000E+03  0.12500000000E+03 0.  0.
        -13    1    3    3    0    0  0.17986626844E+02  0.53740363841E+02  0.42450794518E+00  0.56672187376E+02  0.10566000000E+00 0.  1.
         23    2    1    0    0    0 -0.53836551798E+01  0.26882429602E+02  0.13295906904E+02  0.94529852236E+02  0.89484429142E+02 0.  0.
         13    1    3    3    0    0 -0.23370282024E+02 -0.26857934239E+02  0.12871398959E+02  0.37857664860E+02  0.10566000000E+00 0. -1.
         22    1    1    0    0    0  0.53836551798E+01 -0.26882429602E+02 -0.13295906904E+02  0.30470147764E+02  0.00000000000E+00 0.  1.
</event>
<event>
 5    1  0.6835419E-004  0.9118800E+02  0.7818608E-02  0.1130116E+00
         25   -1    0    0    0    0  0.00000000000E+00  0.00000000000E+00  0.99999998245E-14  0.12500000000E+03  0.12500000000E+03 0.  0.
        -13    1    3    3    0    0  0.61570307722E+00 -0.43473515863E+02 -0.45909775433E+01  0.43719719928E+02  0.10566000000E+00 0. -1.
         23    2    1    0    0    0 -0.18813759631E+02 -0.14147606412E+01  0.21099288469E+02  0.96695599759E+02  0.92460261408E+02 0.  0.
         13    1    3    3    0    0 -0.19429462708E+02  0.42058755222E+02  0.25690266012E+02  0.52975879830E+02  0.10566000000E+00 0.  1.
         22    1    1    0    0    0  0.18813759631E+02  0.14147606412E+01 -0.21099288469E+02  0.28304400241E+02  0.00000000000E+00 0.  1.
</event>
<event>
 5    1  0.6835419E-004  0.9118800E+02  0.7818608E-02  0.1130116E+00
         25   -1    0    0    0    0  0.00000000000E+00  0.00000000000E+00  0.99999998245E-14  0.12500000000E+03  0.12500000000E+03 0.  0.
        -13    1    3    3    0    0 -0.81048990268E+01 -0.27332910807E+02  0.32453220762E+02  0.43197223328E+02  0.10566000000E+00 0.  1.
         23    2    1    0    0    0  0.23920243845E+02 -0.14594805420E+02 -0.75298143709E+01  0.95984753744E+02  0.91494198919E+02 0.  0.
         13    1    3    3    0    0  0.32025142872E+02  0.12738105387E+02 -0.39983035133E+02  0.52787530415E+02  0.10566000000E+00 0. -1.
         22    1    1    0    0    0 -0.23920243845E+02  0.14594805420E+02  0.75298143709E+01  0.29015246256E+02  0.00000000000E+00 0.  1.
</event>
<event>
 5    1  0.6835419E-004  0.9118800E+02  0.7818608E-02  0.1130116E+00
         25   -1    0    0    0    0  0.00000000000E+00  0.00000000000E+00  0.99999998245E-14  0.12500000000E+03  0.12500000000E+03 0.  0.
        -13    1    3    3    0    0 -0.82093687716E+01 -0.36527418624E+02 -0.21081326114E+01  0.37498019069E+02  0.10566000000E+00 0.  1.
         23    2    1    0    0    0  0.22523915677E+02  0.14278810167E+02  0.66391628273E+01  0.97517465905E+02  0.93564771556E+02 0.  0.
         13    1    3    3    0    0  0.30733284449E+02  0.50806228791E+02  0.87472954387E+01  0.60019446836E+02  0.10566000000E+00 0. -1.
         22    1    1    0    0    0 -0.22523915677E+02 -0.14278810167E+02 -0.66391628273E+01  0.27482534095E+02  0.00000000000E+00 0. -1.
</event>
<event>
 5    1  0.6835419E-004  0.9118800E+02  0.7818608E-02  0.1130116E+00
         25   -1    0    0    0    0  0.00000000000E+00  0.00000000000E+00  0.99999998245E-14  0.12500000000E+03  0.12500000000E+03 0.  0.
        -13    1    3    3    0    0 -0.21715283198E+02 -0.27075151265E+02 -0.38550865501E+02  0.51872899815E+02  0.10566000000E+00 0. -1.
         23    2    1    0    0    0 -0.85090892947E+01  0.13575105833E+02 -0.22171447458E+02  0.97645636886E+02  0.93735848113E+02 0.  0.
         13    1    3    3    0    0  0.13206193903E+02  0.40650257097E+02  0.16379418042E+02  0.45772737070E+02  0.10566000000E+00 0.  1.
         22    1    1    0    0    0  0.85090892947E+01 -0.13575105833E+02  0.22171447458E+02  0.27354363114E+02  0.00000000000E+00 0. -1.
</event>
<event>
 5    1  0.6835419E-004  0.9118800E+02  0.7818608E-02  0.1130116E+00
         25   -1    0    0    0    0  0.00000000000E+00  0.00000000000E+00  0.99999998245E-14  0.12500000000E+03  0.12500000000E+03 0.  0.
        -13    1    3    3    0    0 -0.12142913561E+02 -0.42864859849E+02 -0.13024006085E+02  0.46416402900E+02  0.10566000000E+00 0.  1.
         23    2    1    0    0    0  0.13984790290E+02 -0.17853016428E+02  0.19524385374E+02  0.95074990739E+02  0.90242715410E+02 0.  0.
         13    1    3    3    0    0  0.26127703851E+02  0.25011843421E+02  0.32548391459E+02  0.48658587839E+02  0.10566000000E+00 0. -1.
         22    1    1    0    0    0 -0.13984790290E+02  0.17853016428E+02 -0.19524385374E+02  0.29925009261E+02  0.00000000000E+00 0. -1.
</event>
<event>
 5    1  0.6835419E-004  0.9118800E+02  0.7818608E-02  0.1130116E+00
         25   -1    0    0    0    0  0.00000000000E+00  0.00000000000E+00  0.99999998245E-14  0.12500000000E+03  0.12500000000E+03 0.  0.
        -13    1    3    3    0    0 -0.34166615002E+02  0.10553777677E+02  0.50226194474E+02  0.61655669482E+02  0.10566000000E+00 0.  1.
         23    2    1    0    0    0 -0.17262820890E+02  0.11089468168E+02  0.19689335153E+02  0.96563206789E+02  0.92281101518E+02 0.  0.
         13    1    3    3    0    0  0.16903794112E+02  0.53569049086E+00 -0.30536859320E+02  0.34907537307E+02  0.10566000000E+00 0. -1.
         22    1    1    0    0    0  0.17262820890E+02 -0.11089468168E+02 -0.19689335153E+02  0.28436793211E+02  0.00000000000E+00 0.  1.
</event>
<event>
 5    1  0.6835419E-004  0.9118800E+02  0.7818608E-02  0.1130116E+00
         25   -1    0    0    0    0  0.00000000000E+00  0.00000000000E+00  0.99999998245E-14  0.12500000000E+03  0.12500000000E+03 0.  0.
        -13    1    3    3    0    0 -0.15561870743E+01  0.16786839718E+02  0.44450950012E+02  0.47540696534E+02  0.10566000000E+00 0.  1.
         23    2    1    0    0    0  0.27296748231E+02 -0.17356738062E+01  0.10766906331E+02  0.95605250477E+02  0.90974241516E+02 0.  0.
         13    1    3    3    0    0  0.28852935306E+02 -0.18522513524E+02 -0.33684043681E+02  0.48064553943E+02  0.10566000000E+00 0. -1.
         22    1    1    0    0    0 -0.27296748231E+02  0.17356738062E+01 -0.10766906331E+02  0.29394749523E+02  0.00000000000E+00 0.  1.
</event>
<event>
 5    1  0.6835419E-004  0.9118800E+02  0.7818608E-02  0.1130116E+00
         25   -1    0    0    0    0  0.00000000000E+00  0.00000000000E+00  0.99999998245E-14  0.12500000000E+03  0.12500000000E+03 0.  0.
        -13    1    3    3    0    0 -0.43499377271E+02  0.20058343141E+02 -0.23457162986E+02  0.53336503559E+02  0.10566000000E+00 0.  1.
         23    2    1    0    0    0 -0.18676012094E+02  0.81781783598E+01  0.14327688656E+02  0.10008095726E+03  0.96929042677E+02 0.  0.
         13    1    3    3    0    0  0.24823365177E+02 -0.11880164781E+02  0.37784851642E+02  0.46744453698E+02  0.10566000000E+00 0. -1.
         22    1    1    0    0    0  0.18676012094E+02 -0.81781783598E+01 -0.14327688656E+02  0.24919042743E+02  0.00000000000E+00 0. -1.
</event>
<event>
 5    1  0.6835419E-004  0.9118800E+02  0.7818608E-02  0.1130116E+00
         25   -1    0    0    0    0  0.00000000000E+00  0.00000000000E+00  0.99999998245E-14  0.12500000000E+03  0.12500000000E+03 0.  0.
        -13    1    3    3    0    0  0.21106953571E+02  0.17523061750E+02  0.45923366377E+02  0.53493251215E+02  0.10566000000E+00 0. -1.
         23    2    1    0    0    0  0.29383831436E+02  0.29319469338E+00  0.10408036341E+02  0.93825928507E+02  0.88495661626E+02 0.  0.
         13    1    3    3    0    0  0.82768778655E+01 -0.17229867057E+02 -0.35515330035E+02  0.40332677292E+02  0.10566000000E+00 0.  1.
         22    1    1    0    0    0 -0.29383831436E+02 -0.29319469338E+00 -0.10408036341E+02  0.31174071493E+02  0.00000000000E+00 0. -1.
</event>
<event>
 5    1  0.6835419E-004  0.9118800E+02  0.7818608E-02  0.1130116E+00
         25   -1    0    0    0    0  0.00000000000E+00  0.00000000000E+00  0.99999998245E-14  0.12500000000E+03  0.12500000000E+03 0.  0.
        -13    1    3    3    0    0  0.15186033922E+02  0.60390889498E+01 -0.45088773602E+02  0.47959304526E+02  0.10566000000E+00 0. -1.
         23    2    1    0    0    0 -0.15897292538E+02 -0.17364458571E+02 -0.17862976608E+02  0.95447770561E+02  0.90757603760E+02 0.  0.
         13    1    3    3    0    0 -0.31083326460E+02 -0.23403547521E+02  0.27225796994E+02  0.47488466035E+02  0.10566000000E+00 0.  1.
         22    1    1    0    0    0  0.15897292538E+02  0.17364458571E+02  0.17862976608E+02  0.29552229439E+02  0.00000000000E+00 0. -1.
</event>
<event>
 5    1  0.6835419E-004  0.9118800E+02  0.7818608E-02  0.1130116E+00
         25   -1    0    0    0    0  0.00000000000E+00  0.00000000000E+00  0.99999998245E-14  0.12500000000E+03  0.12500000000E+03 0.  0.
        -13    1    3    3    0    0  0.35404833321E+02  0.28365928659E+01  0.10143691781E+02  0.36938518223E+02  0.10566000000E+00 0.  1.
         23    2    1    0    0    0 -0.16374564604E+02  0.25838094555E+02  0.65905496762E+01  0.93708326328E+02  0.88329392514E+02 0.  0.
         13    1    3    3    0    0 -0.51779397925E+02  0.23001501689E+02 -0.35531421046E+01  0.56769808104E+02  0.10566000000E+00 0. -1.
         22    1    1    0    0    0  0.16374564604E+02 -0.25838094555E+02 -0.65905496762E+01  0.31291673672E+02  0.00000000000E+00 0. -1.
</event>
<event>
 5    1  0.6835419E-004  0.9118800E+02  0.7818608E-02  0.1130116E+00
         25   -1    0    0    0    0  0.00000000000E+00  0.00000000000E+00  0.99999998245E-14  0.12500000000E+03  0.12500000000E+03 0.  0.
        -13    1    3    3    0    0 -0.20912560100E+02 -0.10137439695E+02 -0.53689370026E+02  0.58503525290E+02  0.10566000000E+00 0.  1.
         23    2    1    0    0    0  0.41507210701E+01 -0.11242874531E+02 -0.28629158042E+02  0.93963579405E+02  0.88689880208E+02 0.  0.
         13    1    3    3    0    0  0.25063281170E+02 -0.11054348357E+01  0.25060211984E+02  0.35460054116E+02  0.10566000000E+00 0. -1.
         22    1    1    0    0    0 -0.41507210701E+01  0.11242874531E+02  0.28629158042E+02  0.31036420595E+02  0.00000000000E+00 0.  1.
</event>
<event>
 5    1  0.6835419E-004  0.9118800E+02  0.7818608E-02  0.1130116E+00
         25   -1    0    0    0    0  0.00000000000E+00  0.00000000000E+00  0.99999998245E-14  0.12500000000E+03  0.12500000000E+03 0.  0.
        -13    1    3    3    0    0 -0.18232598368E+02  0.46427501866E+02  0.94896526888E+00  0.49888398169E+02  0.10566000000E+00 0. -1.
         23    2    1    0    0    0 -0.26891849835E+02 -0.44278381726E+00 -0.40018371007E+01  0.97808414073E+02  0.93952666371E+02 0.  0.
         13    1    3    3    0    0 -0.86592514670E+01 -0.46870285683E+02 -0.49508023696E+01  0.47920015903E+02  0.10566000000E+00 0.  1.
         22    1    1    0    0    0  0.26891849835E+02  0.44278381726E+00  0.40018371007E+01  0.27191585927E+02  0.00000000000E+00 0. -1.
</event>
<event>
 5    1  0.6835419E-004  0.9118800E+02  0.7818608E-02  0.1130116E+00
         25   -1    0    0    0    0  0.00000000000E+00  0.00000000000E+00  0.99999998245E-14  0.12500000000E+03  0.12500000000E+03 0.  0.
        -13    1    3    3    0    0 -0.39149642121E+02 -0.56913963503E+01  0.38957207448E+02  0.55522622838E+02  0.10566000000E+00 0. -1.
         23    2    1    0    0    0 -0.11729453994E+02 -0.21122256936E+02  0.82977160980E+01  0.99454316969E+02  0.96117528278E+02 0.  0.
         13    1    3    3    0    0  0.27420188127E+02 -0.15430860586E+02 -0.30659491350E+02  0.43931694131E+02  0.10566000000E+00 0.  1.
         22    1    1    0    0    0  0.11729453994E+02  0.21122256936E+02 -0.82977160980E+01  0.25545683031E+02  0.00000000000E+00 0.  1.
</event>
<event>
 5    1  0.6835419E-004  0.9118800E+02  0.7818608E-02  0.1130116E+00
         25   -1    0    0    0    0  0.00000000000E+00  0.00000000000E+00  0.99999998245E-14  0.12500000000E+03  0.12500000000E+03 0.  0.
        -13    1    3    3    0    0  0.39434505876E+02 -0.35867912012E+02 -0.19248153592E+02  0.56675302792E+02  0.10566000000E+00 0.  1.
         23    2    1    0    0    0  0.28011429536E+02 -0.34599753383E+01  0.13588391642E+01  0.96742999844E+02  0.92524320916E+02 0.  0.
         13    1    3    3    0    0 -0.11423076341E+02  0.32407936674E+02  0.20606992756E+02  0.40067697052E+02  0.10566000000E+00 0. -1.
         22    1    1    0    0    0 -0.28011429536E+02  0.34599753383E+01 -0.13588391642E+01  0.28257000156E+02  0.00000000000E+00 0. -1.
</event>
<event>
 5    1  0.6835419E-004  0.9118800E+02  0.7818608E-02  0.1130116E+00
         25   -1    0    0    0    0  0.00000000000E+00  0.00000000000E+00  0.99999998245E-14  0.12500000000E+03  0.12500000000E+03 0.  0.
        -13    1    3    3    0    0  0.18228683465E+02 -0.45930787440E+01  0.34295131023E+02  0.39109441943E+02  0.10566000000E+00 0.  1.
         23    2    1    0    0    0 -0.27864914412E+02 -0.56119703188E+01 -0.77523071031E-02  0.96575578702E+02  0.92297858456E+02 0.  0.
         13    1    3    3    0    0 -0.46093597876E+02 -0.10188915749E+01 -0.34302883330E+02  0.57466136759E+02  0.10566000000E+00 0. -1.
         22    1    1    0    0    0  0.27864914412E+02  0.56119703188E+01  0.77523071031E-02  0.28424421298E+02  0.00000000000E+00 0. -1.
</event>
<event>
 5    1  0.6835419E-004  0.9118800E+02  0.7818608E-02  0.1130116E+00
         25   -1    0    0    0    0  0.00000000000E+00  0.00000000000E+00  0.99999998245E-14  0.12500000000E+03  0.12500000000E+03 0.  0.
        -13    1    3    3    0    0  0.34533387929E+01  0.17081764155E+00  0.34963287988E+02  0.35133992065E+02  0.10566000000E+00 0.  1.
         23    2    1    0    0    0  0.12304235667E+02  0.13075275565E+02 -0.23369825790E+02  0.95529577474E+02  0.90870206165E+02 0.  0.
         13    1    3    3    0    0  0.88508968742E+01  0.12904457923E+02 -0.58333113778E+02  0.60395585408E+02  0.10566000000E+00 0. -1.
         22    1    1    0    0    0 -0.12304235667E+02 -0.13075275565E+02  0.23369825790E+02  0.29470422526E+02  0.00000000000E+00 0. -1.
</event>
<event>
 5    1  0.6835419E-004  0.9118800E+02  0.7818608E-02  0.1130116E+00
         25   -1    0    0    0    0  0.00000000000E+00  0.00000000000E+00  0.99999998245E-14  0.12500000000E+03  0.12500000000E+03 0.  0.
        -13    1    3    3    0    0  0.32028482952E+02 -0.33394977212E+02 -0.36274246364E+00  0.46273004758E+02  0.10566000000E+00 0. -1.
         23    2    1    0    0    0  0.84668030452E+01  0.95632191681E-01  0.27778830383E+02  0.95959350614E+02  0.91459486405E+02 0.  0.
         13    1    3    3    0    0 -0.23561679907E+02  0.33490609404E+02  0.28141572846E+02  0.49686345856E+02  0.10566000000E+00 0.  1.
         22    1    1    0    0    0 -0.84668030452E+01 -0.95632191681E-01 -0.27778830383E+02  0.29040649386E+02  0.00000000000E+00 0.  1.
</event>
<event>
 5    1  0.6835419E-004  0.9118800E+02  0.7818608E-02  0.1130116E+00
         25   -1    0    0    0    0  0.00000000000E+00  0.00000000000E+00  0.99999998245E-14  0.12500000000E+03  0.12500000000E+03 0.  0.
        -13    1    3    3    0    0  0.29461466088E+02 -0.37523457062E+02  0.40030601914E+02  0.62277187377E+02  0.10566000000E+00 0. -1.
         23    2    1    0    0    0  0.22221468643E+02 -0.23183965958E+02  0.28648790720E+02  0.81964629014E+02  0.69757847253E+02 0.  0.
         13    1    3    3    0    0 -0.72399974447E+01  0.14339491104E+02 -0.11381811194E+02  0.19687441637E+02  0.10566000000E+00 0.  1.
         22    1    1    0    0    0 -0.22221468643E+02  0.23183965958E+02 -0.28648790720E+02  0.43035370986E+02  0.00000000000E+00 0. -1.
</event>
<event>
 5    1  0.6835419E-004  0.9118800E+02  0.7818608E-02  0.1130116E+00
         25   -1    0    0    0    0  0.00000000000E+00  0.00000000000E+00  0.99999998245E-14  0.12500000000E+03  0.12500000000E+03 0.  0.
        -13    1    3    3    0    0  0.36672837168E+02  0.33590539835E+02  0.12656338959E+02  0.51316814323E+02  0.10566000000E+00 0. -1.
         23    2    1    0    0    0 -0.65712842196E+01  0.27867621555E+02  0.84860384399E+01  0.95136996872E+02  0.90328562582E+02 0.  0.
         13    1    3    3    0    0 -0.43244121387E+02 -0.57229182804E+01 -0.41703005194E+01  0.43820182550E+02  0.10566000000E+00 0.  1.
         22    1    1    0    0    0  0.65712842196E+01 -0.27867621555E+02 -0.84860384399E+01  0.29863003128E+02  0.00000000000E+00 0. -1.
</event>
<event>
 5    1  0.6835419E-004  0.9118800E+02  0.7818608E-02  0.1130116E+00
         25   -1    0    0    0    0  0.00000000000E+00  0.00000000000E+00  0.99999998245E-14  0.12500000000E+03  0.12500000000E+03 0.  0.
        -13    1    3    3    0    0  0.15004181830E+01  0.37641931908E+02  0.23525921687E+02  0.44414484662E+02  0.10566000000E+00 0. -1.
         23    2    1    0    0    0  0.25525545282E+02 -0.26058420205E+01 -0.43871564707E+01  0.98969421511E+02  0.95484843707E+02 0.  0.
         13    1    3    3    0    0  0.24025127099E+02 -0.40247773928E+02 -0.27913078158E+02  0.54554936849E+02  0.10566000000E+00 0.  1.
         22    1    1    0    0    0 -0.25525545282E+02  0.26058420205E+01  0.43871564707E+01  0.26030578489E+02  0.00000000000E+00 0.  1.
</event>
<event>
 5    1  0.6835419E-004  0.9118800E+02  0.7818608E-02  0.1130116E+00
         25   -1    0    0    0    0  0.00000000000E+00  0.00000000000E+00  0.99999998245E-14  0.12500000000E+03  0.12500000000E+03 0.  0.
        -13    1    3    3    0    0  0.21099524581E+02  0.53344396976E+02  0.23633910021E+02  0.62043432313E+02  0.10566000000E+00 0.  1.
         23    2    1    0    0    0  0.14334983640E+02  0.21823252538E+02  0.10884676786E+02  0.96711799350E+02  0.92482159563E+02 0.  0.
         13    1    3    3    0    0 -0.67645409408E+01 -0.31521144438E+02 -0.12749233236E+02  0.34668367037E+02  0.10566000000E+00 0. -1.
         22    1    1    0    0    0 -0.14334983640E+02 -0.21823252538E+02 -0.10884676786E+02  0.28288200650E+02  0.00000000000E+00 0.  1.
</event>
<event>
 5    1  0.6835419E-004  0.9118800E+02  0.7818608E-02  0.1130116E+00
         25   -1    0    0    0    0  0.00000000000E+00  0.00000000000E+00  0.99999998245E-14  0.12500000000E+03  0.12500000000E+03 0.  0.
        -13    1    3    3    0    0  0.11775869538E+02 -0.31435024413E+02  0.85965020154E+01  0.34651736957E+02  0.10566000000E+00 0.  1.
         23    2    1    0    0    0  0.51359726422E+01  0.23123929731E+02 -0.17553786241E+02  0.95517297400E+02  0.90853312268E+02 0.  0.
         13    1    3    3    0    0 -0.66398968953E+01  0.54558954145E+02 -0.26150288256E+02  0.60865560443E+02  0.10566000000E+00 0. -1.
         22    1    1    0    0    0 -0.51359726422E+01 -0.23123929731E+02  0.17553786241E+02  0.29482702600E+02  0.00000000000E+00 0. -1.
</event>
<event>
 5    1  0.6835419E-004  0.9118800E+02  0.7818608E-02  0.1130116E+00
         25   -1    0    0    0    0  0.00000000000E+00  0.00000000000E+00  0.99999998245E-14  0.12500000000E+03  0.12500000000E+03 0.  0.
        -13    1    3    3    0    0  0.38944794476E+02 -0.16199032937E+02  0.57211189257E+00  0.42183458381E+02  0.10566000000E+00 0.  1.
         23    2    1    0    0    0 -0.26531264695E+01  0.10676300688E+02  0.25207184450E+02  0.97496825195E+02  0.93537192062E+02 0.  0.
         13    1    3    3    0    0 -0.41597920946E+02  0.26875333625E+02  0.24635072557E+02  0.55313366815E+02  0.10566000000E+00 0. -1.
         22    1    1    0    0    0  0.26531264695E+01 -0.10676300688E+02 -0.25207184450E+02  0.27503174805E+02  0.00000000000E+00 0. -1.
</event>
<event>
 5    1  0.6835419E-004  0.9118800E+02  0.7818608E-02  0.1130116E+00
         25   -1    0    0    0    0  0.00000000000E+00  0.00000000000E+00  0.99999998245E-14  0.12500000000E+03  0.12500000000E+03 0.  0.
        -13    1    3    3    0    0  0.54763021760E+02 -0.70141788675E+01  0.16703909692E+02  0.57682051112E+02  0.10566000000E+00 0. -1.
         23    2    1    0    0    0  0.25347736705E+02 -0.13887749062E+02 -0.60126518984E+01  0.95478324693E+02  0.90799676064E+02 0.  0.
         13    1    3    3    0    0 -0.29415285055E+02 -0.68735701948E+01 -0.22716561590E+02  0.37796273581E+02  0.10566000000E+00 0.  1.
         22    1    1    0    0    0 -0.25347736705E+02  0.13887749062E+02  0.60126518984E+01  0.29521675307E+02  0.00000000000E+00 0. -1.
</event>
<event>
 5    1  0.6835419E-004  0.9118800E+02  0.7818608E-02  0.1130116E+00
         25   -1    0    0    0    0  0.00000000000E+00  0.00000000000E+00  0.99999998245E-14  0.12500000000E+03  0.12500000000E+03 0.  0.
        -13    1    3    3    0    0  0.76964139108E+01  0.40519534462E+02 -0.28118497163E+02  0.49917216537E+02  0.10566000000E+00 0.  1.
         23    2    1    0    0    0 -0.23760038262E+02  0.10100332404E+02 -0.11698996035E+02  0.96655289010E+02  0.92405747941E+02 0.  0.
         13    1    3    3    0    0 -0.31456452173E+02 -0.30419202057E+02  0.16419501128E+02  0.46738072472E+02  0.10566000000E+00 0. -1.
         22    1    1    0    0    0  0.23760038262E+02 -0.10100332404E+02  0.11698996035E+02  0.28344710990E+02  0.00000000000E+00 0.  1.
</event>
<event>
 5    1  0.6835419E-004  0.9118800E+02  0.7818608E-02  0.1130116E+00
         25   -1    0    0    0    0  0.00000000000E+00  0.00000000000E+00  0.99999998245E-14  0.12500000000E+03  0.12500000000E+03 0.  0.
        -13    1    3    3    0    0  0.27294184114E+02 -0.54674046425E+00  0.30695352641E+02  0.41079036617E+02  0.10566000000E+00 0.  1.
         23    2    1    0    0    0 -0.29571484449E+01  0.31028724430E+02  0.12335462692E+01  0.93806281032E+02  0.88467905242E+02 0.  0.
         13    1    3    3    0    0 -0.30251332559E+02  0.31575464894E+02 -0.29461806372E+02  0.52727244415E+02  0.10566000000E+00 0. -1.
         22    1    1    0    0    0  0.29571484449E+01 -0.31028724430E+02 -0.12335462692E+01  0.31193718968E+02  0.00000000000E+00 0.  1.
</event>
<event>
 5    1  0.6835419E-004  0.9118800E+02  0.7818608E-02  0.1130116E+00
         25   -1    0    0    0    0  0.00000000000E+00  0.00000000000E+00  0.99999998245E-14  0.12500000000E+03  0.12500000000E+03 0.  0.
        -13    1    3    3    0    0  0.32463974847E+02  0.21746386097E+02  0.87012530779E+01  0.40031711684E+02  0.10566000000E+00 0. -1.
         23    2    1    0    0    0 -0.14132482815E+01 -0.25890400582E+02  0.49192831397E+01  0.98608534342E+02  0.95011228733E+02 0.  0.
         13    1    3    3    0    0 -0.33877223129E+02 -0.47636786679E+02 -0.37819699382E+01  0.58576822658E+02  0.10566000000E+00 0.  1.
         22    1    1    0    0    0  0.14132482815E+01  0.25890400582E+02 -0.49192831397E+01  0.26391465658E+02  0.00000000000E+00 0.  1.
</event>
<event>
 5    1  0.6835419E-004  0.9118800E+02  0.7818608E-02  0.1130116E+00
         25   -1    0    0    0    0  0.00000000000E+00  0.00000000000E+00  0.99999998245E-14  0.12500000000E+03  0.12500000000E+03 0.  0.
        -13    1    3    3    0    0  0.30965400563E+02 -0.35124662669E+01 -0.43260010772E+02  0.53316349719E+02  0.10566000000E+00 0.  1.
         23    2    1    0    0    0  0.24745277381E+02 -0.13396092742E+02 -0.13435664413E+01  0.96829284279E+02  0.92640817515E+02 0.  0.
         13    1    3    3    0    0 -0.62201231815E+01 -0.98836264748E+01  0.41916444331E+02  0.43512934560E+02  0.10566000000E+00 0. -1.
         22    1    1    0    0    0 -0.24745277381E+02  0.13396092742E+02  0.13435664413E+01  0.28170715721E+02  0.00000000000E+00 0.  1.
</event>
<event>
 5    1  0.6835419E-004  0.9118800E+02  0.7818608E-02  0.1130116E+00
         25   -1    0    0    0    0  0.00000000000E+00  0.00000000000E+00  0.99999998245E-14  0.12500000000E+03  0.12500000000E+03 0.  0.
        -13    1    3    3    0    0  0.48381733856E+02  0.75095959418E+01  0.99875611187E+01  0.49969478116E+02  0.10566000000E+00 0.  1.
         23    2    1    0    0    0  0.75567794428E+01 -0.12382824597E+01  0.28388893330E+02  0.95596470900E+02  0.90962177443E+02 0.  0.
         13    1    3    3    0    0 -0.40824954413E+02 -0.87478784015E+01  0.18401332211E+02  0.45626992784E+02  0.10566000000E+00 0. -1.
         22    1    1    0    0    0 -0.75567794428E+01  0.12382824597E+01 -0.28388893330E+02  0.29403529100E+02  0.00000000000E+00 0. -1.
</event>
<event>
 5    1  0.6835419E-004  0.9118800E+02  0.7818608E-02  0.1130116E+00
         25   -1    0    0    0    0  0.00000000000E+00  0.00000000000E+00  0.99999998245E-14  0.12500000000E+03  0.12500000000E+03 0.  0.
        -13    1    3    3    0    0 -0.29547629185E+02  0.29192421728E+02 -0.13399910980E+02  0.43644342762E+02  0.10566000000E+00 0. -1.
         23    2    1    0    0    0 -0.87075057310E+01  0.29891409651E+01  0.27209234803E+02  0.96275479493E+02  0.91890532011E+02 0.  0.
         13    1    3    3    0    0  0.20840123454E+02 -0.26203280763E+02  0.40609145784E+02  0.52631136731E+02  0.10566000000E+00 0.  1.
         22    1    1    0    0    0  0.87075057310E+01 -0.29891409651E+01 -0.27209234803E+02  0.28724520507E+02  0.00000000000E+00 0.  1.
</event>
<event>
 4    1  0.6835419E-004  0.9118800E+02  0.7818608E-02  0.1130116E+00
         25   -1    0    0    0    0  0.00000000000E+00  0.00000000000E+00  0.99999998245E-14  0.12500000000E+03  0.12500000000E+03 0.  0.
        -13    1    1    0    0    0 -0.34524375393E+02 -0.46308986496E+02  0.15013638757E+02  0.59681448033E+02  0.10566000000E+00 0.  1.
         13    1    1    0    0    0  0.10093599591E+02  0.32626488400E+00 -0.77800196650E+01  0.12748610572E+02  0.10566000000E+00 0. -1.
         22    1    1    0    0    0  0.24430775801E+02  0.45982721612E+02 -0.72336190924E+01  0.52569941395E+02  0.00000000000E+00 0.  1.
</event>
<event>
 5    1  0.6835419E-004  0.9118800E+02  0.7818608E-02  0.1130116E+00
         25   -1    0    0    0    0  0.00000000000E+00  0.00000000000E+00  0.99999998245E-14  0.12500000000E+03  0.12500000000E+03 0.  0.
        -13    1    3    3    0    0 -0.40837390323E+02  0.35930893894E+02 -0.44288896747E+01  0.54574241289E+02  0.10566000000E+00 0. -1.
         23    2    1    0    0    0  0.34740718341E+00  0.24924717729E+02  0.77252687336E+01  0.98903218156E+02  0.95398136979E+02 0.  0.
         13    1    3    3    0    0  0.41184797507E+02 -0.11006176165E+02  0.12154158408E+02  0.44328976867E+02  0.10566000000E+00 0.  1.
         22    1    1    0    0    0 -0.34740718341E+00 -0.24924717729E+02 -0.77252687336E+01  0.26096781844E+02  0.00000000000E+00 0. -1.
</event>
<event>
 5    1  0.6835419E-004  0.9118800E+02  0.7818608E-02  0.1130116E+00
         25   -1    0    0    0    0  0.00000000000E+00  0.00000000000E+00  0.99999998245E-14  0.12500000000E+03  0.12500000000E+03 0.  0.
        -13    1    3    3    0    0 -0.86276818693E+01 -0.43303208719E+02  0.93265779274E+01  0.45128715910E+02  0.10566000000E+00 0.  1.
         23    2    1    0    0    0  0.24563068590E+02 -0.66863953048E+01  0.15901124853E+02  0.94985037193E+02  0.90118029818E+02 0.  0.
         13    1    3    3    0    0  0.33190750459E+02  0.36616813414E+02  0.65745469254E+01  0.49856321284E+02  0.10566000000E+00 0. -1.
         22    1    1    0    0    0 -0.24563068590E+02  0.66863953048E+01 -0.15901124853E+02  0.30014962807E+02  0.00000000000E+00 0. -1.
</event>
<event>
 5    1  0.6835419E-004  0.9118800E+02  0.7818608E-02  0.1130116E+00
         25   -1    0    0    0    0  0.00000000000E+00  0.00000000000E+00  0.99999998245E-14  0.12500000000E+03  0.12500000000E+03 0.  0.
        -13    1    3    3    0    0 -0.19057628765E+02 -0.25285859267E+02 -0.37027892637E+02  0.48720056344E+02  0.10566000000E+00 0.  1.
         23    2    1    0    0    0 -0.27252459068E+02  0.29919315082E+01  0.18889140087E+01  0.97518803237E+02  0.93566558178E+02 0.  0.
         13    1    3    3    0    0 -0.81948303032E+01  0.28277790775E+02  0.38916806645E+02  0.48798746893E+02  0.10566000000E+00 0. -1.
         22    1    1    0    0    0  0.27252459068E+02 -0.29919315082E+01 -0.18889140087E+01  0.27481196763E+02  0.00000000000E+00 0. -1.
</event>
<event>
 5    1  0.6835419E-004  0.9118800E+02  0.7818608E-02  0.1130116E+00
         25   -1    0    0    0    0  0.00000000000E+00  0.00000000000E+00  0.99999998245E-14  0.12500000000E+03  0.12500000000E+03 0.  0.
        -13    1    3    3    0    0 -0.37050870539E+02  0.22176643793E+02  0.37303500509E+02  0.57062534573E+02  0.10566000000E+00 0. -1.
         23    2    1    0    0    0  0.13338185526E+01  0.16013745587E+02  0.19244638708E+02  0.99928597194E+02  0.96732359107E+02 0.  0.
         13    1    3    3    0    0  0.38384689092E+02 -0.61628982060E+01 -0.18058861801E+02  0.42866062620E+02  0.10566000000E+00 0.  1.
         22    1    1    0    0    0 -0.13338185526E+01 -0.16013745587E+02 -0.19244638708E+02  0.25071402806E+02  0.00000000000E+00 0. -1.
</event>
<event>
 5    1  0.6835419E-004  0.9118800E+02  0.7818608E-02  0.1130116E+00
         25   -1    0    0    0    0  0.00000000000E+00  0.00000000000E+00  0.99999998245E-14  0.12500000000E+03  0.12500000000E+03 0.  0.
        -13    1    3    3    0    0  0.35144780145E+02  0.40626580188E+01  0.15517035907E+02  0.38632244679E+02  0.10566000000E+00 0.  1.
         23    2    1    0    0    0  0.42952037796E+02 -0.19171208140E+02 -0.12965697000E+02  0.76209405916E+02  0.58543586147E+02 0.  0.
         13    1    3    3    0    0  0.78072576512E+01 -0.23233866159E+02 -0.28482732907E+02  0.37577161236E+02  0.10566000000E+00 0. -1.
         22    1    1    0    0    0 -0.42952037796E+02  0.19171208140E+02  0.12965697000E+02  0.48790594084E+02  0.00000000000E+00 0.  1.
</event>
<event>
 5    1  0.6835419E-004  0.9118800E+02  0.7818608E-02  0.1130116E+00
         25   -1    0    0    0    0  0.00000000000E+00  0.00000000000E+00  0.99999998245E-14  0.12500000000E+03  0.12500000000E+03 0.  0.
        -13    1    3    3    0    0  0.20288714971E+02  0.28546072447E+02  0.20575377845E+02  0.40618561581E+02  0.10566000000E+00 0.  1.
         23    2    1    0    0    0 -0.27040415144E+02  0.49522733438E+01  0.14695292899E+02  0.93828527532E+02  0.88499332670E+02 0.  0.
         13    1    3    3    0    0 -0.47329130115E+02 -0.23593799104E+02 -0.58800849460E+01  0.53209965952E+02  0.10566000000E+00 0. -1.
         22    1    1    0    0    0  0.27040415144E+02 -0.49522733438E+01 -0.14695292899E+02  0.31171472468E+02  0.00000000000E+00 0. -1.
</event>
<event>
 5    1  0.6835419E-004  0.9118800E+02  0.7818608E-02  0.1130116E+00
         25   -1    0    0    0    0  0.00000000000E+00  0.00000000000E+00  0.99999998245E-14  0.12500000000E+03  0.12500000000E+03 0.  0.
        -13    1    3    3    0    0 -0.29119820772E+02  0.53345574347E+02 -0.63071066232E+00  0.60779299306E+02  0.10566000000E+00 0.  1.
         23    2    1    0    0    0 -0.18672479904E+02  0.21119437844E+02 -0.84949582198E+01  0.95557573541E+02  0.90908709073E+02 0.  0.
         13    1    3    3    0    0  0.10447340868E+02 -0.32226136503E+02 -0.78642475575E+01  0.34778274235E+02  0.10566000000E+00 0. -1.
         22    1    1    0    0    0  0.18672479904E+02 -0.21119437844E+02  0.84949582198E+01  0.29442426459E+02  0.00000000000E+00 0.  1.
</event>
<event>
 5    1  0.6835419E-004  0.9118800E+02  0.7818608E-02  0.1130116E+00
         25   -1    0    0    0    0  0.00000000000E+00  0.00000000000E+00  0.99999998245E-14  0.12500000000E+03  0.12500000000E+03 0.  0.
        -13    1    3    3    0    0  0.23175060595E+02  0.72623775052E+01  0.33623287553E+02  0.41477249071E+02  0.10566000000E+00 0. -1.
         23    2    1    0    0    0  0.11533133685E+02 -0.25831148881E+02 -0.76982195268E+01  0.95682360105E+02  0.91080129701E+02 0.  0.
         13    1    3    3    0    0 -0.11641926910E+02 -0.33093526386E+02 -0.41321507080E+02  0.54205111034E+02  0.10566000000E+00 0.  1.
         22    1    1    0    0    0 -0.11533133685E+02  0.25831148881E+02  0.76982195268E+01  0.29317639895E+02  0.00000000000E+00 0.  1.
</event>
<event>
 5    1  0.6835419E-004  0.9118800E+02  0.7818608E-02  0.1130116E+00
         25   -1    0    0    0    0  0.00000000000E+00  0.00000000000E+00  0.99999998245E-14  0.12500000000E+03  0.12500000000E+03 0.  0.
        -13    1    3    3    0    0  0.42751922648E+01  0.44732615382E+02  0.36755648515E+02  0.58054052483E+02  0.10566000000E+00 0.  1.
         23    2    1    0    0    0 -0.92482811693E+01  0.15520153537E+02 -0.26343494555E-01  0.10693327466E+03  0.10539600878E+03 0.  0.
         13    1    3    3    0    0 -0.13523473434E+02 -0.29212461845E+02 -0.36781992010E+02  0.48879222181E+02  0.10566000000E+00 0. -1.
         22    1    1    0    0    0  0.92482811693E+01 -0.15520153537E+02  0.26343494555E-01  0.18066725337E+02  0.00000000000E+00 0.  1.
</event>
<event>
 5    1  0.6835419E-004  0.9118800E+02  0.7818608E-02  0.1130116E+00
         25   -1    0    0    0    0  0.00000000000E+00  0.00000000000E+00  0.99999998245E-14  0.12500000000E+03  0.12500000000E+03 0.  0.
        -13    1    3    3    0    0 -0.65577957401E+01 -0.32302579312E+02 -0.16893241237E+02  0.37038548550E+02  0.10566000000E+00 0.  1.
         23    2    1    0    0    0  0.10449774872E+02  0.22703044560E+02 -0.17280845020E+02  0.94614911029E+02  0.89603168233E+02 0.  0.
         13    1    3    3    0    0  0.17007570612E+02  0.55005623871E+02 -0.38760378322E+00  0.57576362479E+02  0.10566000000E+00 0. -1.
         22    1    1    0    0    0 -0.10449774872E+02 -0.22703044560E+02  0.17280845020E+02  0.30385088971E+02  0.00000000000E+00 0. -1.
</event>
<event>
 5    1  0.6835419E-004  0.9118800E+02  0.7818608E-02  0.1130116E+00
         25   -1    0    0    0    0  0.00000000000E+00  0.00000000000E+00  0.99999998245E-14  0.12500000000E+03  0.12500000000E+03 0.  0.
        -13    1    3    3    0    0  0.38840378118E+02  0.14033803320E+02  0.36313914882E+02  0.54993037614E+02  0.10566000000E+00 0. -1.
         23    2    1    0    0    0  0.51835489314E+01  0.23158805797E+02  0.21835109224E+02  0.92751411499E+02  0.86964664518E+02 0.  0.
         13    1    3    3    0    0 -0.33656829187E+02  0.91250024774E+01 -0.14478805658E+02  0.37758373885E+02  0.10566000000E+00 0.  1.
         22    1    1    0    0    0 -0.51835489314E+01 -0.23158805797E+02 -0.21835109224E+02  0.32248588501E+02  0.00000000000E+00 0. -1.
</event>
<event>
 5    1  0.6835419E-004  0.9118800E+02  0.7818608E-02  0.1130116E+00
         25   -1    0    0    0    0  0.00000000000E+00  0.00000000000E+00  0.99999998245E-14  0.12500000000E+03  0.12500000000E+03 0.  0.
        -13    1    3    3    0    0 -0.37982099869E+02  0.18755851719E+02 -0.46130677745E+01  0.42611189170E+02  0.10566000000E+00 0. -1.
         23    2    1    0    0    0 -0.76881058500E+01 -0.20400151128E+02  0.17704383329E+02  0.96915870556E+02  0.92757574563E+02 0.  0.
         13    1    3    3    0    0  0.30293994019E+02 -0.39156002847E+02  0.22317451103E+02  0.54304681385E+02  0.10566000000E+00 0.  1.
         22    1    1    0    0    0  0.76881058500E+01  0.20400151128E+02 -0.17704383329E+02  0.28084129444E+02  0.00000000000E+00 0. -1.
</event>
<event>
 5    1  0.6835419E-004  0.9118800E+02  0.7818608E-02  0.1130116E+00
         25   -1    0    0    0    0  0.00000000000E+00  0.00000000000E+00  0.99999998245E-14  0.12500000000E+03  0.12500000000E+03 0.  0.
        -13    1    3    3    0    0  0.16707956087E+02 -0.49381459913E+02  0.28655326699E+02  0.59488009649E+02  0.10566000000E+00 0. -1.
         23    2    1    0    0    0  0.14353551228E+02 -0.14566000597E+02  0.21910405694E+02  0.95029035986E+02  0.90179038564E+02 0.  0.
         13    1    3    3    0    0 -0.23544048585E+01  0.34815459316E+02 -0.67449210050E+01  0.35541026336E+02  0.10566000000E+00 0.  1.
         22    1    1    0    0    0 -0.14353551228E+02  0.14566000597E+02 -0.21910405694E+02  0.29970964014E+02  0.00000000000E+00 0. -1.
</event>
<event>
 5    1  0.6835419E-004  0.9118800E+02  0.7818608E-02  0.1130116E+00
         25   -1    0    0    0    0  0.00000000000E+00  0.00000000000E+00  0.99999998245E-14  0.12500000000E+03  0.12500000000E+03 0.  0.
        -13    1    3    3    0    0  0.11362104457E+02  0.33110053500E+02  0.31223175169E+02  0.46907045229E+02  0.10566000000E+00 0.  1.
         23    2    1    0    0    0 -0.24416910994E+02  0.30900975961E+01  0.13991118223E+02  0.96689478373E+02  0.92451985340E+02 0.  0.
         13    1    3    3    0    0 -0.35779015451E+02 -0.30019955903E+02 -0.17232056947E+02  0.49782433144E+02  0.10566000000E+00 0. -1.
         22    1    1    0    0    0  0.24416910994E+02 -0.30900975961E+01 -0.13991118223E+02  0.28310521627E+02  0.00000000000E+00 0. -1.
</event>
<event>
 5    1  0.6835419E-004  0.9118800E+02  0.7818608E-02  0.1130116E+00
         25   -1    0    0    0    0  0.00000000000E+00  0.00000000000E+00  0.99999998245E-14  0.12500000000E+03  0.12500000000E+03 0.  0.
        -13    1    3    3    0    0  0.11944049034E+02  0.47908934399E+02 -0.26445680453E+02  0.56011708429E+02  0.10566000000E+00 0. -1.
         23    2    1    0    0    0 -0.44187297961E+01  0.18020987804E+02 -0.29422400811E+02  0.90215537320E+02  0.83239920291E+02 0.  0.
         13    1    3    3    0    0 -0.16362778830E+02 -0.29887946594E+02 -0.29767203579E+01  0.34203828891E+02  0.10566000000E+00 0.  1.
         22    1    1    0    0    0  0.44187297961E+01 -0.18020987804E+02  0.29422400811E+02  0.34784462680E+02  0.00000000000E+00 0. -1.
</event>
<event>
 5    1  0.6835419E-004  0.9118800E+02  0.7818608E-02  0.1130116E+00
         25   -1    0    0    0    0  0.00000000000E+00  0.00000000000E+00  0.99999998245E-14  0.12500000000E+03  0.12500000000E+03 0.  0.
        -13    1    3    3    0    0  0.46465446802E+02 -0.10440025984E+02  0.25761256358E+02  0.54145040237E+02  0.10566000000E+00 0. -1.
         23    2    1    0    0    0  0.88697607739E+01  0.74897267307E+01  0.26782269495E+02  0.95809956800E+02  0.91255077667E+02 0.  0.
         13    1    3    3    0    0 -0.37595686028E+02  0.17929752715E+02  0.10210131377E+01  0.41664916563E+02  0.10566000000E+00 0.  1.
         22    1    1    0    0    0 -0.88697607739E+01 -0.74897267307E+01 -0.26782269495E+02  0.29190043200E+02  0.00000000000E+00 0. -1.
</event>
<event>
 5    1  0.6835419E-004  0.9118800E+02  0.7818608E-02  0.1130116E+00
         25   -1    0    0    0    0  0.00000000000E+00  0.00000000000E+00  0.99999998245E-14  0.12500000000E+03  0.12500000000E+03 0.  0.
        -13    1    3    3    0    0  0.20503852513E+02  0.25116356691E+00  0.34860173839E+02  0.40443960428E+02  0.10566000000E+00 0.  1.
         23    2    1    0    0    0  0.20306868245E+01 -0.21880422228E+02 -0.15248190256E+02  0.98253339050E+02  0.94542766845E+02 0.  0.
         13    1    3    3    0    0 -0.18473165688E+02 -0.22131585795E+02 -0.50108364095E+02  0.57809378622E+02  0.10566000000E+00 0. -1.
         22    1    1    0    0    0 -0.20306868245E+01  0.21880422228E+02  0.15248190256E+02  0.26746660950E+02  0.00000000000E+00 0. -1.
</event>
<event>
 5    1  0.6835419E-004  0.9118800E+02  0.7818608E-02  0.1130116E+00
         25   -1    0    0    0    0  0.00000000000E+00  0.00000000000E+00  0.99999998245E-14  0.12500000000E+03  0.12500000000E+03 0.  0.
        -13    1    3    3    0    0  0.43870391283E+01 -0.24265919023E+02 -0.54682426111E+02  0.59985496812E+02  0.10566000000E+00 0. -1.
         23    2    1    0    0    0 -0.91913649901E+01 -0.58233604700E+01 -0.26848429558E+02  0.96030518002E+02  0.91556701013E+02 0.  0.
         13    1    3    3    0    0 -0.13578404118E+02  0.18442558553E+02  0.27833996553E+02  0.36045021190E+02  0.10566000000E+00 0.  1.
         22    1    1    0    0    0  0.91913649901E+01  0.58233604700E+01  0.26848429558E+02  0.28969481998E+02  0.00000000000E+00 0. -1.
</event>
<event>
 5    1  0.6835419E-004  0.9118800E+02  0.7818608E-02  0.1130116E+00
         25   -1    0    0    0    0  0.00000000000E+00  0.00000000000E+00  0.99999998245E-14  0.12500000000E+03  0.12500000000E+03 0.  0.
        -13    1    3    3    0    0 -0.23788561040E+02 -0.24904772762E+02  0.33655387161E+02  0.48154330975E+02  0.10566000000E+00 0. -1.
         23    2    1    0    0    0 -0.11491512604E+02  0.18971782168E+02  0.18316538430E+02  0.96234065970E+02  0.91834179326E+02 0.  0.
         13    1    3    3    0    0  0.12297048436E+02  0.43876554930E+02 -0.15338848730E+02  0.48079734995E+02  0.10566000000E+00 0.  1.
         22    1    1    0    0    0  0.11491512604E+02 -0.18971782168E+02 -0.18316538430E+02  0.28765934030E+02  0.00000000000E+00 0.  1.
</event>
<event>
 5    1  0.6835419E-004  0.9118800E+02  0.7818608E-02  0.1130116E+00
         25   -1    0    0    0    0  0.00000000000E+00  0.00000000000E+00  0.99999998245E-14  0.12500000000E+03  0.12500000000E+03 0.  0.
        -13    1    3    3    0    0 -0.53865597359E+02 -0.30573016745E+02 -0.14583573860E+01  0.61954417938E+02  0.10566000000E+00 0.  1.
         23    2    1    0    0    0 -0.22713971618E+02 -0.18243870541E+02  0.28241549446E+01  0.95729892892E+02  0.91145341203E+02 0.  0.
         13    1    3    3    0    0  0.31151625741E+02  0.12329146205E+02  0.42825123306E+01  0.33775474954E+02  0.10566000000E+00 0. -1.
         22    1    1    0    0    0  0.22713971618E+02  0.18243870541E+02 -0.28241549446E+01  0.29270107108E+02  0.00000000000E+00 0.  1.
</event>
<event>
 5    1  0.6835419E-004  0.9118800E+02  0.7818608E-02  0.1130116E+00
         25   -1    0    0    0    0  0.00000000000E+00  0.00000000000E+00  0.99999998245E-14  0.12500000000E+03  0.12500000000E+03 0.  0.
        -13    1    3    3    0    0 -0.19676134613E+02 -0.14003047909E+01 -0.25461922591E+02  0.32209188020E+02  0.10566000000E+00 0. -1.
         23    2    1    0    0    0  0.25280934582E+02 -0.66002797658E+01  0.16641179670E+02  0.94022294999E+02  0.88772595713E+02 0.  0.
         13    1    3    3    0    0  0.44957069195E+02 -0.51999749748E+01  0.42103102261E+02  0.61813106979E+02  0.10566000000E+00 0.  1.
         22    1    1    0    0    0 -0.25280934582E+02  0.66002797658E+01 -0.16641179670E+02  0.30977705001E+02  0.00000000000E+00 0.  1.
</event>
<event>
 5    1  0.6835419E-004  0.9118800E+02  0.7818608E-02  0.1130116E+00
         25   -1    0    0    0    0  0.00000000000E+00  0.00000000000E+00  0.99999998245E-14  0.12500000000E+03  0.12500000000E+03 0.  0.
        -13    1    3    3    0    0  0.81980709784E+01 -0.33832720336E+02  0.32723426302E+02  0.47777558812E+02  0.10566000000E+00 0. -1.
         23    2    1    0    0    0  0.28156879938E+02 -0.74138247202E+01 -0.20726685459E+01  0.95809750948E+02  0.91254795693E+02 0.  0.
         13    1    3    3    0    0  0.19958808960E+02  0.26418895616E+02 -0.34796094848E+02  0.48032192135E+02  0.10566000000E+00 0.  1.
         22    1    1    0    0    0 -0.28156879938E+02  0.74138247202E+01  0.20726685459E+01  0.29190249052E+02  0.00000000000E+00 0.  1.
</event>
<event>
 5    1  0.6835419E-004  0.9118800E+02  0.7818608E-02  0.1130116E+00
         25   -1    0    0    0    0  0.00000000000E+00  0.00000000000E+00  0.99999998245E-14  0.12500000000E+03  0.12500000000E+03 0.  0.
        -13    1    3    3    0    0 -0.16623066984E+02  0.36032670364E+02 -0.40061526171E+02  0.56388090345E+02  0.10566000000E+00 0. -1.
         23    2    1    0    0    0  0.40228426210E+01  0.27644818753E+02 -0.71003009054E+01  0.96175816758E+02  0.91754859214E+02 0.  0.
         13    1    3    3    0    0  0.20645909605E+02 -0.83878516114E+01  0.32961225265E+02  0.39787726413E+02  0.10566000000E+00 0.  1.
         22    1    1    0    0    0 -0.40228426210E+01 -0.27644818753E+02  0.71003009054E+01  0.28824183242E+02  0.00000000000E+00 0. -1.
</event>
<event>
 5    1  0.6835419E-004  0.9118800E+02  0.7818608E-02  0.1130116E+00
         25   -1    0    0    0    0  0.00000000000E+00  0.00000000000E+00  0.99999998245E-14  0.12500000000E+03  0.12500000000E+03 0.  0.
        -13    1    3    3    0    0 -0.28938466876E+02 -0.98106638169E+00  0.37701601619E+02  0.47537556575E+02  0.10566000000E+00 0.  1.
         23    2    1    0    0    0  0.62226966009E+01 -0.24341277575E+02  0.17812070474E+02  0.94202441630E+02  0.89025897398E+02 0.  0.
         13    1    3    3    0    0  0.35161163477E+02 -0.23360211193E+02 -0.19889531146E+02  0.46664885056E+02  0.10566000000E+00 0. -1.
         22    1    1    0    0    0 -0.62226966009E+01  0.24341277575E+02 -0.17812070474E+02  0.30797558370E+02  0.00000000000E+00 0. -1.
</event>
<event>
 5    1  0.6835419E-004  0.9118800E+02  0.7818608E-02  0.1130116E+00
         25   -1    0    0    0    0  0.00000000000E+00  0.00000000000E+00  0.99999998245E-14  0.12500000000E+03  0.12500000000E+03 0.  0.
        -13    1    3    3    0    0  0.21344991690E+02  0.26652136945E+02 -0.30036834604E+02  0.45477111508E+02  0.10566000000E+00 0. -1.
         23    2    1    0    0    0 -0.19872878385E+02  0.20517685981E+02 -0.24213518121E+02  0.87554023004E+02  0.79142313279E+02 0.  0.
         13    1    3    3    0    0 -0.41217870076E+02 -0.61344509640E+01  0.58233164828E+01  0.42076911497E+02  0.10566000000E+00 0.  1.
         22    1    1    0    0    0  0.19872878385E+02 -0.20517685981E+02  0.24213518121E+02  0.37445976996E+02  0.00000000000E+00 0.  1.
</event>
<event>
 5    1  0.6835419E-004  0.9118800E+02  0.7818608E-02  0.1130116E+00
         25   -1    0    0    0    0  0.00000000000E+00  0.00000000000E+00  0.99999998245E-14  0.12500000000E+03  0.12500000000E+03 0.  0.
        -13    1    3    3    0    0  0.15621098882E+02  0.31123236909E+02 -0.43551469081E+02  0.55762139747E+02  0.10566000000E+00 0. -1.
         23    2    1    0    0    0 -0.64799386189E+01  0.26968642203E+02 -0.11367072770E+02  0.95024883484E+02  0.90173282468E+02 0.  0.
         13    1    3    3    0    0 -0.22101037501E+02 -0.41545947059E+01  0.32184396311E+02  0.39262743737E+02  0.10566000000E+00 0.  1.
         22    1    1    0    0    0  0.64799386189E+01 -0.26968642203E+02  0.11367072770E+02  0.29975116516E+02  0.00000000000E+00 0. -1.
</event>
<event>
 5    1  0.6835419E-004  0.9118800E+02  0.7818608E-02  0.1130116E+00
         25   -1    0    0    0    0  0.00000000000E+00  0.00000000000E+00  0.99999998245E-14  0.12500000000E+03  0.12500000000E+03 0.  0.
        -13    1    3    3    0    0 -0.44367962936E+02 -0.40304338049E+02 -0.10719822581E+02  0.60892376870E+02  0.10566000000E+00 0.  1.
         23    2    1    0    0    0 -0.16705002198E+02 -0.14348777365E+02 -0.13899619740E+02  0.98958803038E+02  0.95470941964E+02 0.  0.
         13    1    3    3    0    0  0.27662960738E+02  0.25955560685E+02 -0.31797971583E+01  0.38066426168E+02  0.10566000000E+00 0. -1.
         22    1    1    0    0    0  0.16705002198E+02  0.14348777365E+02  0.13899619740E+02  0.26041196962E+02  0.00000000000E+00 0.  1.
</event>
<event>
 5    1  0.6835419E-004  0.9118800E+02  0.7818608E-02  0.1130116E+00
         25   -1    0    0    0    0  0.00000000000E+00  0.00000000000E+00  0.99999998245E-14  0.12500000000E+03  0.12500000000E+03 0.  0.
        -13    1    3    3    0    0 -0.40092892739E+02 -0.15814263162E+02  0.15300440141E+02  0.45734512133E+02  0.10566000000E+00 0.  1.
         23    2    1    0    0    0  0.34684115022E+00 -0.26280337276E+02 -0.12483950914E+02  0.95903171022E+02  0.91382672075E+02 0.  0.
         13    1    3    3    0    0  0.40439733889E+02 -0.10466074113E+02 -0.27784391055E+02  0.50168658889E+02  0.10566000000E+00 0. -1.
         22    1    1    0    0    0 -0.34684115022E+00  0.26280337276E+02  0.12483950914E+02  0.29096828978E+02  0.00000000000E+00 0. -1.
</event>
<event>
 5    1  0.6835419E-004  0.9118800E+02  0.7818608E-02  0.1130116E+00
         25   -1    0    0    0    0  0.00000000000E+00  0.00000000000E+00  0.99999998245E-14  0.12500000000E+03  0.12500000000E+03 0.  0.
        -13    1    3    3    0    0 -0.12808031447E+02 -0.12067493427E+02  0.26541608053E+02  0.31845536410E+02  0.10566000000E+00 0. -1.
         23    2    1    0    0    0  0.39187644014E+01  0.18126348358E+02 -0.24996753942E+02  0.93875107601E+02  0.88565099787E+02 0.  0.
         13    1    3    3    0    0  0.16726795848E+02  0.30193841785E+02 -0.51538361995E+02  0.62029571191E+02  0.10566000000E+00 0.  1.
         22    1    1    0    0    0 -0.39187644014E+01 -0.18126348358E+02  0.24996753942E+02  0.31124892399E+02  0.00000000000E+00 0.  1.
</event>
<event>
 5    1  0.6835419E-004  0.9118800E+02  0.7818608E-02  0.1130116E+00
         25   -1    0    0    0    0  0.00000000000E+00  0.00000000000E+00  0.99999998245E-14  0.12500000000E+03  0.12500000000E+03 0.  0.
        -13    1    3    3    0    0  0.32724655080E+02 -0.80415561743E+01  0.52357792529E+02  0.62264912096E+02  0.10566000000E+00 0.  1.
         23    2    1    0    0    0  0.16585022358E+02 -0.79539710033E+00  0.21497955520E+02  0.97836463509E+02  0.93989977536E+02 0.  0.
         13    1    3    3    0    0 -0.16139632722E+02  0.72461590740E+01 -0.30859837009E+02  0.35571551413E+02  0.10566000000E+00 0. -1.
         22    1    1    0    0    0 -0.16585022358E+02  0.79539710033E+00 -0.21497955520E+02  0.27163536491E+02  0.00000000000E+00 0.  1.
</event>
<event>
 5    1  0.6835419E-004  0.9118800E+02  0.7818608E-02  0.1130116E+00
         25   -1    0    0    0    0  0.00000000000E+00  0.00000000000E+00  0.99999998245E-14  0.12500000000E+03  0.12500000000E+03 0.  0.
        -13    1    3    3    0    0 -0.18194199309E+02 -0.32903288893E+02 -0.25429088075E+02  0.45390582645E+02  0.10566000000E+00 0.  1.
         23    2    1    0    0    0  0.43629133181E+01 -0.21198126734E+02  0.18754920188E+02  0.96361867712E+02  0.92007972090E+02 0.  0.
         13    1    3    3    0    0  0.22557112627E+02  0.11705162158E+02  0.44184008263E+02  0.50971285068E+02  0.10566000000E+00 0. -1.
         22    1    1    0    0    0 -0.43629133181E+01  0.21198126734E+02 -0.18754920188E+02  0.28638132288E+02  0.00000000000E+00 0. -1.
</event>
<event>
 5    1  0.6835419E-004  0.9118800E+02  0.7818608E-02  0.1130116E+00
         25   -1    0    0    0    0  0.00000000000E+00  0.00000000000E+00  0.99999998245E-14  0.12500000000E+03  0.12500000000E+03 0.  0.
        -13    1    3    3    0    0  0.94655550333E+01 -0.20329135849E+02 -0.37654905935E+02  0.43826631190E+02  0.10566000000E+00 0.  1.
         23    2    1    0    0    0 -0.91489265276E+01 -0.22189717279E+02  0.12913732845E+02  0.97744708669E+02  0.93867870794E+02 0.  0.
         13    1    3    3    0    0 -0.18614481561E+02 -0.18605814303E+01  0.50568638780E+02  0.53918077480E+02  0.10566000000E+00 0. -1.
         22    1    1    0    0    0  0.91489265276E+01  0.22189717279E+02 -0.12913732845E+02  0.27255291331E+02  0.00000000000E+00 0. -1.
</event>
<event>
 5    1  0.6835419E-004  0.9118800E+02  0.7818608E-02  0.1130116E+00
         25   -1    0    0    0    0  0.00000000000E+00  0.00000000000E+00  0.99999998245E-14  0.12500000000E+03  0.12500000000E+03 0.  0.
        -13    1    3    3    0    0 -0.10263278928E+02 -0.15254890349E+01  0.55564356830E+02  0.56524958426E+02  0.10566000000E+00 0.  1.
         23    2    1    0    0    0 -0.22843713764E+02 -0.10907670586E+01  0.18767658303E+02  0.95415375116E+02  0.90712974701E+02 0.  0.
         13    1    3    3    0    0 -0.12580434836E+02  0.43472197628E+00 -0.36796698526E+02  0.38890416690E+02  0.10566000000E+00 0. -1.
         22    1    1    0    0    0  0.22843713764E+02  0.10907670586E+01 -0.18767658303E+02  0.29584624884E+02  0.00000000000E+00 0.  1.
</event>
<event>
 5    1  0.6835419E-004  0.9118800E+02  0.7818608E-02  0.1130116E+00
         25   -1    0    0    0    0  0.00000000000E+00  0.00000000000E+00  0.99999998245E-14  0.12500000000E+03  0.12500000000E+03 0.  0.
        -13    1    3    3    0    0  0.22026083609E+02 -0.43475477565E+01 -0.39204145759E+02  0.45177712861E+02  0.10566000000E+00 0.  1.
         23    2    1    0    0    0  0.20067736108E+02  0.20727973793E+02  0.46930186874E+01  0.95770094860E+02  0.91200458963E+02 0.  0.
         13    1    3    3    0    0 -0.19583475006E+01  0.25075521550E+02  0.43897164446E+02  0.50592381999E+02  0.10566000000E+00 0. -1.
         22    1    1    0    0    0 -0.20067736108E+02 -0.20727973793E+02 -0.46930186874E+01  0.29229905140E+02  0.00000000000E+00 0. -1.
</event>
<event>
 5    1  0.6835419E-004  0.9118800E+02  0.7818608E-02  0.1130116E+00
         25   -1    0    0    0    0  0.00000000000E+00  0.00000000000E+00  0.99999998245E-14  0.12500000000E+03  0.12500000000E+03 0.  0.
        -13    1    3    3    0    0 -0.11122878752E+02  0.10772335712E+02  0.48088329167E+02  0.50519899194E+02  0.10566000000E+00 0.  1.
         23    2    1    0    0    0 -0.25735468432E+02  0.13710562783E+02  0.59196357661E+01  0.95245404475E+02  0.90478456656E+02 0.  0.
         13    1    3    3    0    0 -0.14612589680E+02  0.29382270704E+01 -0.42168693401E+02  0.44725505281E+02  0.10566000000E+00 0. -1.
         22    1    1    0    0    0  0.25735468432E+02 -0.13710562783E+02 -0.59196357661E+01  0.29754595525E+02  0.00000000000E+00 0.  1.
</event>
<event>
 5    1  0.6835419E-004  0.9118800E+02  0.7818608E-02  0.1130116E+00
         25   -1    0    0    0    0  0.00000000000E+00  0.00000000000E+00  0.99999998245E-14  0.12500000000E+03  0.12500000000E+03 0.  0.
        -13    1    3    3    0    0 -0.39028433780E+00 -0.14428559477E+02 -0.40828109916E+02  0.43304519092E+02  0.10566000000E+00 0. -1.
         23    2    1    0    0    0 -0.15928679807E+02 -0.18999865511E+02  0.11198972647E+02  0.97794582926E+02  0.93934262820E+02 0.  0.
         13    1    3    3    0    0 -0.15538395469E+02 -0.45713060342E+01  0.52027082563E+02  0.54490063834E+02  0.10566000000E+00 0.  1.
         22    1    1    0    0    0  0.15928679807E+02  0.18999865511E+02 -0.11198972647E+02  0.27205417074E+02  0.00000000000E+00 0. -1.
</event>
<event>
 5    1  0.6835419E-004  0.9118800E+02  0.7818608E-02  0.1130116E+00
         25   -1    0    0    0    0  0.00000000000E+00  0.00000000000E+00  0.99999998245E-14  0.12500000000E+03  0.12500000000E+03 0.  0.
        -13    1    3    3    0    0  0.10408603850E+02 -0.18608330746E+02  0.27864084582E+02  0.35085999785E+02  0.10566000000E+00 0.  1.
         23    2    1    0    0    0 -0.13249790140E+01 -0.48439422848E+01 -0.29418317863E+02  0.95156126724E+02  0.90355031298E+02 0.  0.
         13    1    3    3    0    0 -0.11733582864E+02  0.13764388461E+02 -0.57282402445E+02  0.60070126939E+02  0.10566000000E+00 0. -1.
         22    1    1    0    0    0  0.13249790140E+01  0.48439422848E+01  0.29418317863E+02  0.29843873276E+02  0.00000000000E+00 0. -1.
</event>
<event>
 5    1  0.6835419E-004  0.9118800E+02  0.7818608E-02  0.1130116E+00
         25   -1    0    0    0    0  0.00000000000E+00  0.00000000000E+00  0.99999998245E-14  0.12500000000E+03  0.12500000000E+03 0.  0.
        -13    1    3    3    0    0  0.30413242554E+02 -0.16265530479E+02 -0.15537364676E+02  0.37827948259E+02  0.10566000000E+00 0.  1.
         23    2    1    0    0    0 -0.14551327312E+02  0.17408257682E+02 -0.20760584475E+02  0.94246294047E+02  0.89087448677E+02 0.  0.
         13    1    3    3    0    0 -0.44964569866E+02  0.33673788161E+02 -0.52232197985E+01  0.56418345788E+02  0.10566000000E+00 0. -1.
         22    1    1    0    0    0  0.14551327312E+02 -0.17408257682E+02  0.20760584475E+02  0.30753705953E+02  0.00000000000E+00 0. -1.
</event>
<event>
 5    1  0.6835419E-004  0.9118800E+02  0.7818608E-02  0.1130116E+00
         25   -1    0    0    0    0  0.00000000000E+00  0.00000000000E+00  0.99999998245E-14  0.12500000000E+03  0.12500000000E+03 0.  0.
        -13    1    3    3    0    0 -0.11667725557E+02 -0.19235734807E+01 -0.33353888894E+02  0.35388261090E+02  0.10566000000E+00 0. -1.
         23    2    1    0    0    0 -0.14660526776E+01 -0.27597341503E+02  0.16807427140E+02  0.92654178391E+02  0.86824792529E+02 0.  0.
         13    1    3    3    0    0  0.10201672879E+02 -0.25673768023E+02  0.50161316034E+02  0.57265917301E+02  0.10566000000E+00 0.  1.
         22    1    1    0    0    0  0.14660526776E+01  0.27597341503E+02 -0.16807427140E+02  0.32345821609E+02  0.00000000000E+00 0.  1.
</event>
<event>
 5    1  0.6835419E-004  0.9118800E+02  0.7818608E-02  0.1130116E+00
         25   -1    0    0    0    0  0.00000000000E+00  0.00000000000E+00  0.99999998245E-14  0.12500000000E+03  0.12500000000E+03 0.  0.
        -13    1    3    3    0    0 -0.42862705957E+02  0.11511286175E+02 -0.18418074501E+01  0.44419868191E+02  0.10566000000E+00 0. -1.
         23    2    1    0    0    0 -0.80002284230E+01 -0.17643636344E+02 -0.23317097577E+02  0.94685175283E+02  0.89701136117E+02 0.  0.
         13    1    3    3    0    0  0.34862477535E+02 -0.29154922519E+02 -0.21475290127E+02  0.50265307091E+02  0.10566000000E+00 0.  1.
         22    1    1    0    0    0  0.80002284230E+01  0.17643636344E+02  0.23317097577E+02  0.30314824717E+02  0.00000000000E+00 0. -1.
</event>
<event>
 5    1  0.6835419E-004  0.9118800E+02  0.7818608E-02  0.1130116E+00
         25   -1    0    0    0    0  0.00000000000E+00  0.00000000000E+00  0.99999998245E-14  0.12500000000E+03  0.12500000000E+03 0.  0.
        -13    1    3    3    0    0  0.35710861088E+01 -0.23302298717E+02 -0.22385600902E+02  0.32509630470E+02  0.10566000000E+00 0. -1.
         23    2    1    0    0    0 -0.21917772708E+01  0.19114480965E+02  0.23077769365E+02  0.94954189826E+02  0.90075232203E+02 0.  0.
         13    1    3    3    0    0 -0.57628633797E+01  0.42416779682E+02  0.45463370268E+02  0.62444559355E+02  0.10566000000E+00 0.  1.
         22    1    1    0    0    0  0.21917772708E+01 -0.19114480965E+02 -0.23077769365E+02  0.30045810174E+02  0.00000000000E+00 0.  1.
</event>
<event>
 5    1  0.6835419E-004  0.9118800E+02  0.7818608E-02  0.1130116E+00
         25   -1    0    0    0    0  0.00000000000E+00  0.00000000000E+00  0.99999998245E-14  0.12500000000E+03  0.12500000000E+03 0.  0.
        -13    1    3    3    0    0  0.11591300900E+01  0.45702956041E+02  0.28508239233E+02  0.53877960630E+02  0.10566000000E+00 0.  1.
         23    2    1    0    0    0 -0.27913733897E+01  0.49245654240E+01  0.29601635185E+02  0.94861985539E+02  0.89947186642E+02 0.  0.
         13    1    3    3    0    0 -0.39505034796E+01 -0.40778390617E+02  0.10933959520E+01  0.40984024910E+02  0.10566000000E+00 0. -1.
         22    1    1    0    0    0  0.27913733897E+01 -0.49245654240E+01 -0.29601635185E+02  0.30138014461E+02  0.00000000000E+00 0.  1.
</event>
<event>
 5    1  0.6835419E-004  0.9118800E+02  0.7818608E-02  0.1130116E+00
         25   -1    0    0    0    0  0.00000000000E+00  0.00000000000E+00  0.99999998245E-14  0.12500000000E+03  0.12500000000E+03 0.  0.
        -13    1    3    3    0    0  0.30619026369E+02 -0.37840187708E+02  0.32034923211E+02  0.58272223664E+02  0.10566000000E+00 0. -1.
         23    2    1    0    0    0  0.15510611249E+02 -0.40554287400E+01  0.23990573242E+02  0.96145655993E+02  0.91713761226E+02 0.  0.
         13    1    3    3    0    0 -0.15108415120E+02  0.33784758968E+02 -0.80443499690E+01  0.37873432329E+02  0.10566000000E+00 0.  1.
         22    1    1    0    0    0 -0.15510611249E+02  0.40554287400E+01 -0.23990573242E+02  0.28854344007E+02  0.00000000000E+00 0. -1.
</event>
<event>
 5    1  0.6835419E-004  0.9118800E+02  0.7818608E-02  0.1130116E+00
         25   -1    0    0    0    0  0.00000000000E+00  0.00000000000E+00  0.99999998245E-14  0.12500000000E+03  0.12500000000E+03 0.  0.
        -13    1    3    3    0    0 -0.49798487579E+01 -0.10278361510E+01  0.51758906030E+02  0.52008180686E+02  0.10566000000E+00 0. -1.
         23    2    1    0    0    0 -0.27573642664E+01  0.24518524541E+02  0.17730235588E+02  0.94617071284E+02  0.89606181823E+02 0.  0.
         13    1    3    3    0    0  0.22224844915E+01  0.25546360692E+02 -0.34028670442E+02  0.42608890598E+02  0.10566000000E+00 0.  1.
         22    1    1    0    0    0  0.27573642664E+01 -0.24518524541E+02 -0.17730235588E+02  0.30382928716E+02  0.00000000000E+00 0. -1.
</event>
<event>
 5    1  0.6835419E-004  0.9118800E+02  0.7818608E-02  0.1130116E+00
         25   -1    0    0    0    0  0.00000000000E+00  0.00000000000E+00  0.99999998245E-14  0.12500000000E+03  0.12500000000E+03 0.  0.
        -13    1    3    3    0    0 -0.11233286477E+02  0.16906515559E+02  0.31887577583E+02  0.37800076211E+02  0.10566000000E+00 0. -1.
         23    2    1    0    0    0  0.15546195816E+02 -0.24828964808E+02  0.21999806342E+02  0.88364591215E+02  0.80412361013E+02 0.  0.
         13    1    3    3    0    0  0.26779482294E+02 -0.41735480367E+02 -0.98877712410E+01  0.50564515004E+02  0.10566000000E+00 0.  1.
         22    1    1    0    0    0 -0.15546195816E+02  0.24828964808E+02 -0.21999806342E+02  0.36635408785E+02  0.00000000000E+00 0.  1.
</event>
<event>
 5    1  0.6835419E-004  0.9118800E+02  0.7818608E-02  0.1130116E+00
         25   -1    0    0    0    0  0.00000000000E+00  0.00000000000E+00  0.99999998245E-14  0.12500000000E+03  0.12500000000E+03 0.  0.
        -13    1    3    3    0    0 -0.31251618446E+02 -0.96899070430E+01  0.11157876466E+02  0.34569745809E+02  0.10566000000E+00 0. -1.
         23    2    1    0    0    0  0.25582397583E+02 -0.16465628585E+02 -0.52843843969E+01  0.94121193203E+02  0.88911744447E+02 0.  0.
         13    1    3    3    0    0  0.56834016029E+02 -0.67757215422E+01 -0.16442260863E+02  0.59551447394E+02  0.10566000000E+00 0.  1.
         22    1    1    0    0    0 -0.25582397583E+02  0.16465628585E+02  0.52843843969E+01  0.30878806797E+02  0.00000000000E+00 0.  1.
</event>
<event>
 5    1  0.6835419E-004  0.9118800E+02  0.7818608E-02  0.1130116E+00
         25   -1    0    0    0    0  0.00000000000E+00  0.00000000000E+00  0.99999998245E-14  0.12500000000E+03  0.12500000000E+03 0.  0.
        -13    1    3    3    0    0 -0.22268855001E+02 -0.72373301189E+01  0.18288670774E+02  0.29711403417E+02  0.10566000000E+00 0.  1.
         23    2    1    0    0    0  0.18934836675E+02  0.28172155100E+02 -0.80898814300E+01  0.90105236145E+02  0.83074117728E+02 0.  0.
         13    1    3    3    0    0  0.41203691676E+02  0.35409485219E+02 -0.26378552204E+02  0.60393832728E+02  0.10566000000E+00 0. -1.
         22    1    1    0    0    0 -0.18934836675E+02 -0.28172155100E+02  0.80898814300E+01  0.34894763855E+02  0.00000000000E+00 0. -1.
</event>
<event>
 5    1  0.6835419E-004  0.9118800E+02  0.7818608E-02  0.1130116E+00
         25   -1    0    0    0    0  0.00000000000E+00  0.00000000000E+00  0.99999998245E-14  0.12500000000E+03  0.12500000000E+03 0.  0.
        -13    1    3    3    0    0  0.22323765212E+01 -0.21098849968E+02  0.25991146005E+02  0.33551390576E+02  0.10566000000E+00 0. -1.
         23    2    1    0    0    0  0.22901429976E+01  0.24699089913E+02 -0.15832345712E+02  0.95572921174E+02  0.90929809708E+02 0.  0.
         13    1    3    3    0    0  0.57766476369E-01  0.45797939881E+02 -0.41823491717E+02  0.62021530598E+02  0.10566000000E+00 0.  1.
         22    1    1    0    0    0 -0.22901429976E+01 -0.24699089913E+02  0.15832345712E+02  0.29427078826E+02  0.00000000000E+00 0.  1.
</event>
<event>
 5    1  0.6835419E-004  0.9118800E+02  0.7818608E-02  0.1130116E+00
         25   -1    0    0    0    0  0.00000000000E+00  0.00000000000E+00  0.99999998245E-14  0.12500000000E+03  0.12500000000E+03 0.  0.
        -13    1    3    3    0    0 -0.81857176417E+01 -0.28543675835E+02 -0.50096051277E+02  0.58235495370E+02  0.10566000000E+00 0. -1.
         23    2    1    0    0    0 -0.49926481166E+01  0.22160676361E+01 -0.28564104240E+02  0.95918295407E+02  0.91403357989E+02 0.  0.
         13    1    3    3    0    0  0.31930695251E+01  0.30759743471E+02  0.21531947037E+02  0.37682800037E+02  0.10566000000E+00 0.  1.
         22    1    1    0    0    0  0.49926481166E+01 -0.22160676361E+01  0.28564104240E+02  0.29081704593E+02  0.00000000000E+00 0. -1.
</event>
<event>
 5    1  0.6835419E-004  0.9118800E+02  0.7818608E-02  0.1130116E+00
         25   -1    0    0    0    0  0.00000000000E+00  0.00000000000E+00  0.99999998245E-14  0.12500000000E+03  0.12500000000E+03 0.  0.
        -13    1    3    3    0    0 -0.57789787447E+02 -0.17175123909E+02 -0.32254122750E+01  0.60374322877E+02  0.10566000000E+00 0. -1.
         23    2    1    0    0    0 -0.27130955593E+02 -0.20448726314E+01 -0.11356541608E+02  0.95517101690E+02  0.90853043000E+02 0.  0.
         13    1    3    3    0    0  0.30658831854E+02  0.15130251278E+02 -0.81311293331E+01  0.35142778813E+02  0.10566000000E+00 0.  1.
         22    1    1    0    0    0  0.27130955593E+02  0.20448726314E+01  0.11356541608E+02  0.29482898310E+02  0.00000000000E+00 0. -1.
</event>
<event>
 5    1  0.6835419E-004  0.9118800E+02  0.7818608E-02  0.1130116E+00
         25   -1    0    0    0    0  0.00000000000E+00  0.00000000000E+00  0.99999998245E-14  0.12500000000E+03  0.12500000000E+03 0.  0.
        -13    1    3    3    0    0  0.42607925283E+02  0.19922891669E+02 -0.10802693326E+02  0.48260400501E+02  0.10566000000E+00 0. -1.
         23    2    1    0    0    0 -0.12466982147E+01  0.30758004344E+02 -0.35415288990E+01  0.94013688270E+02  0.88760475819E+02 0.  0.
         13    1    3    3    0    0 -0.43854623498E+02  0.10835112675E+02  0.72611644271E+01  0.45753287769E+02  0.10566000000E+00 0.  1.
         22    1    1    0    0    0  0.12466982147E+01 -0.30758004344E+02  0.35415288990E+01  0.30986311730E+02  0.00000000000E+00 0. -1.
</event>
<event>
 5    1  0.6835419E-004  0.9118800E+02  0.7818608E-02  0.1130116E+00
         25   -1    0    0    0    0  0.00000000000E+00  0.00000000000E+00  0.99999998245E-14  0.12500000000E+03  0.12500000000E+03 0.  0.
        -13    1    3    3    0    0 -0.90686401863E+01 -0.54618554209E+02 -0.20621653247E+02  0.59082065344E+02  0.10566000000E+00 0.  1.
         23    2    1    0    0    0  0.10401665649E+02 -0.24888782187E+02 -0.10711627660E+02  0.95976128891E+02  0.91482414828E+02 0.  0.
         13    1    3    3    0    0  0.19470305836E+02  0.29729772022E+02  0.99100255869E+01  0.36894063546E+02  0.10566000000E+00 0. -1.
         22    1    1    0    0    0 -0.10401665649E+02  0.24888782187E+02  0.10711627660E+02  0.29023871109E+02  0.00000000000E+00 0.  1.
</event>
<event>
 5    1  0.6835419E-004  0.9118800E+02  0.7818608E-02  0.1130116E+00
         25   -1    0    0    0    0  0.00000000000E+00  0.00000000000E+00  0.99999998245E-14  0.12500000000E+03  0.12500000000E+03 0.  0.
        -13    1    3    3    0    0 -0.36576810063E+02  0.15332263902E+02  0.41800687140E+02  0.57621610184E+02  0.10566000000E+00 0.  1.
         23    2    1    0    0    0 -0.11970659722E+02  0.22212694213E+02  0.11462128924E+02  0.97285727903E+02  0.93254661952E+02 0.  0.
         13    1    3    3    0    0  0.24606150340E+02  0.68804303103E+01 -0.30338558216E+02  0.39664117720E+02  0.10566000000E+00 0. -1.
         22    1    1    0    0    0  0.11970659722E+02 -0.22212694213E+02 -0.11462128924E+02  0.27714272097E+02  0.00000000000E+00 0.  1.
</event>
<event>
 5    1  0.6835419E-004  0.9118800E+02  0.7818608E-02  0.1130116E+00
         25   -1    0    0    0    0  0.00000000000E+00  0.00000000000E+00  0.99999998245E-14  0.12500000000E+03  0.12500000000E+03 0.  0.
        -13    1    3    3    0    0 -0.25457464158E+02 -0.56234650405E+02  0.96980459277E+01  0.62485851569E+02  0.10566000000E+00 0. -1.
         23    2    1    0    0    0 -0.11087450877E+02 -0.26105462820E+02  0.37888406115E+01  0.96385631771E+02  0.92040251752E+02 0.  0.
         13    1    3    3    0    0  0.14370013281E+02  0.30129187585E+02 -0.59092053162E+01  0.33899780202E+02  0.10566000000E+00 0.  1.
         22    1    1    0    0    0  0.11087450877E+02  0.26105462820E+02 -0.37888406115E+01  0.28614368229E+02  0.00000000000E+00 0. -1.
</event>
<event>
 5    1  0.6835419E-004  0.9118800E+02  0.7818608E-02  0.1130116E+00
         25   -1    0    0    0    0  0.00000000000E+00  0.00000000000E+00  0.99999998245E-14  0.12500000000E+03  0.12500000000E+03 0.  0.
        -13    1    3    3    0    0  0.33480605664E+02  0.12700960844E+01  0.25094393430E+02  0.41860528489E+02  0.10566000000E+00 0.  1.
         23    2    1    0    0    0 -0.19133624567E+02 -0.84111699722E+01  0.20772417916E+02  0.95532446395E+02  0.90874152534E+02 0.  0.
         13    1    3    3    0    0 -0.52614230232E+02 -0.96812660566E+01 -0.43219755145E+01  0.53671917906E+02  0.10566000000E+00 0. -1.
         22    1    1    0    0    0  0.19133624567E+02  0.84111699722E+01 -0.20772417916E+02  0.29467553605E+02  0.00000000000E+00 0. -1.
</event>
<event>
 5    1  0.6835419E-004  0.9118800E+02  0.7818608E-02  0.1130116E+00
         25   -1    0    0    0    0  0.00000000000E+00  0.00000000000E+00  0.99999998245E-14  0.12500000000E+03  0.12500000000E+03 0.  0.
        -13    1    3    3    0    0  0.16836161838E+02 -0.42772761395E+02 -0.30815757811E+02  0.55340650125E+02  0.10566000000E+00 0.  1.
         23    2    1    0    0    0 -0.11673576632E+02 -0.25230644529E+02 -0.72759708514E+01  0.96263306269E+02  0.91873971109E+02 0.  0.
         13    1    3    3    0    0 -0.28509738470E+02  0.17542116865E+02  0.23539786960E+02  0.40922656144E+02  0.10566000000E+00 0. -1.
         22    1    1    0    0    0  0.11673576632E+02  0.25230644529E+02  0.72759708514E+01  0.28736693731E+02  0.00000000000E+00 0.  1.
</event>
<event>
 5    1  0.6835419E-004  0.9118800E+02  0.7818608E-02  0.1130116E+00
         25   -1    0    0    0    0  0.00000000000E+00  0.00000000000E+00  0.99999998245E-14  0.12500000000E+03  0.12500000000E+03 0.  0.
        -13    1    3    3    0    0  0.12499010313E+01 -0.24812902903E+02 -0.48992358575E+02  0.54931819247E+02  0.10566000000E+00 0.  1.
         23    2    1    0    0    0  0.14694803357E+02  0.50401972171E+01 -0.25167642703E+02  0.95423809020E+02  0.90724595645E+02 0.  0.
         13    1    3    3    0    0  0.13444902325E+02  0.29853100120E+02  0.23824715872E+02  0.40491989772E+02  0.10566000000E+00 0. -1.
         22    1    1    0    0    0 -0.14694803357E+02 -0.50401972171E+01  0.25167642703E+02  0.29576190980E+02  0.00000000000E+00 0.  1.
</event>
<event>
 5    1  0.6835419E-004  0.9118800E+02  0.7818608E-02  0.1130116E+00
         25   -1    0    0    0    0  0.00000000000E+00  0.00000000000E+00  0.99999998245E-14  0.12500000000E+03  0.12500000000E+03 0.  0.
        -13    1    3    3    0    0 -0.85862401327E+01  0.32872706334E+02 -0.39615588023E+02  0.52189503923E+02  0.10566000000E+00 0. -1.
         23    2    1    0    0    0 -0.10984549340E+02  0.19892399329E+02  0.74617530377E+01  0.10108252451E+03  0.98212174033E+02 0.  0.
         13    1    3    3    0    0 -0.23983092075E+01 -0.12980307005E+02  0.47077341061E+02  0.48893020589E+02  0.10566000000E+00 0.  1.
         22    1    1    0    0    0  0.10984549340E+02 -0.19892399329E+02 -0.74617530377E+01  0.23917475487E+02  0.00000000000E+00 0.  1.
</event>
<event>
 5    1  0.6835419E-004  0.9118800E+02  0.7818608E-02  0.1130116E+00
         25   -1    0    0    0    0  0.00000000000E+00  0.00000000000E+00  0.99999998245E-14  0.12500000000E+03  0.12500000000E+03 0.  0.
        -13    1    3    3    0    0 -0.99767149152E+01 -0.43282857999E+02 -0.19126973343E+02  0.48361068127E+02  0.10566000000E+00 0. -1.
         23    2    1    0    0    0 -0.20274167466E+02 -0.44253783332E+02  0.64000934647E+01  0.75904171236E+02  0.57888192312E+02 0.  0.
         13    1    3    3    0    0 -0.10297452551E+02 -0.97092533235E+00  0.25527066808E+02  0.27543103109E+02  0.10566000000E+00 0.  1.
         22    1    1    0    0    0  0.20274167466E+02  0.44253783332E+02 -0.64000934647E+01  0.49095828764E+02  0.00000000000E+00 0.  1.
</event>
<event>
 5    1  0.6835419E-004  0.9118800E+02  0.7818608E-02  0.1130116E+00
         25   -1    0    0    0    0  0.00000000000E+00  0.00000000000E+00  0.99999998245E-14  0.12500000000E+03  0.12500000000E+03 0.  0.
        -13    1    3    3    0    0 -0.41998646290E+01 -0.33116605128E+02 -0.20646064436E+02  0.39250726603E+02  0.10566000000E+00 0. -1.
         23    2    1    0    0    0 -0.22043569079E+02  0.26436546259E+01  0.19172124908E+02  0.95666090936E+02  0.91057798864E+02 0.  0.
         13    1    3    3    0    0 -0.17843704450E+02  0.35760259754E+02  0.39818189344E+02  0.56415364333E+02  0.10566000000E+00 0.  1.
         22    1    1    0    0    0  0.22043569079E+02 -0.26436546259E+01 -0.19172124908E+02  0.29333909064E+02  0.00000000000E+00 0.  1.
</event>
<event>
 5    1  0.6835419E-004  0.9118800E+02  0.7818608E-02  0.1130116E+00
         25   -1    0    0    0    0  0.00000000000E+00  0.00000000000E+00  0.99999998245E-14  0.12500000000E+03  0.12500000000E+03 0.  0.
        -13    1    3    3    0    0  0.12959426736E+02 -0.36310413536E+02 -0.30839089545E+02  0.49370573022E+02  0.10566000000E+00 0. -1.
         23    2    1    0    0    0  0.31687086405E+02 -0.48359156524E+01 -0.10465238891E+02  0.91280884500E+02  0.84824649277E+02 0.  0.
         13    1    3    3    0    0  0.18727659669E+02  0.31474497884E+02  0.20373850654E+02  0.41910311478E+02  0.10566000000E+00 0.  1.
         22    1    1    0    0    0 -0.31687086405E+02  0.48359156524E+01  0.10465238891E+02  0.33719115500E+02  0.00000000000E+00 0.  1.
</event>
<event>
 5    1  0.6835419E-004  0.9118800E+02  0.7818608E-02  0.1130116E+00
         25   -1    0    0    0    0  0.00000000000E+00  0.00000000000E+00  0.99999998245E-14  0.12500000000E+03  0.12500000000E+03 0.  0.
        -13    1    3    3    0    0  0.10668634697E+02  0.24752391881E+02  0.21094703684E+02  0.34227158189E+02  0.10566000000E+00 0.  1.
         23    2    1    0    0    0 -0.36177986040E+02  0.87597514116E+01  0.68673812528E+00  0.87770287028E+02  0.79483153920E+02 0.  0.
         13    1    3    3    0    0 -0.46846620737E+02 -0.15992640470E+02 -0.20407965559E+02  0.53543128839E+02  0.10566000000E+00 0. -1.
         22    1    1    0    0    0  0.36177986040E+02 -0.87597514116E+01 -0.68673812528E+00  0.37229712972E+02  0.00000000000E+00 0. -1.
</event>
<event>
 5    1  0.6835419E-004  0.9118800E+02  0.7818608E-02  0.1130116E+00
         25   -1    0    0    0    0  0.00000000000E+00  0.00000000000E+00  0.99999998245E-14  0.12500000000E+03  0.12500000000E+03 0.  0.
        -13    1    3    3    0    0 -0.20767408184E+02  0.16238500513E+00 -0.52013460642E+02  0.56006453767E+02  0.10566000000E+00 0.  1.
         23    2    1    0    0    0 -0.59626641601E+01 -0.19639093527E+02 -0.21557623270E+02  0.95234609367E+02  0.90463541506E+02 0.  0.
         13    1    3    3    0    0  0.14804744024E+02 -0.19801478533E+02  0.30455837373E+02  0.39228155600E+02  0.10566000000E+00 0. -1.
         22    1    1    0    0    0  0.59626641601E+01  0.19639093527E+02  0.21557623270E+02  0.29765390633E+02  0.00000000000E+00 0.  1.
</event>
<event>
 5    1  0.6835419E-004  0.9118800E+02  0.7818608E-02  0.1130116E+00
         25   -1    0    0    0    0  0.00000000000E+00  0.00000000000E+00  0.99999998245E-14  0.12500000000E+03  0.12500000000E+03 0.  0.
        -13    1    3    3    0    0 -0.49265818495E+02 -0.27420761338E+02  0.19198233520E+02  0.59561752482E+02  0.10566000000E+00 0.  1.
         23    2    1    0    0    0 -0.70141574131E+01 -0.17051763230E+02  0.15969131939E+01  0.10649294283E+03  0.10487247354E+03 0.  0.
         13    1    3    3    0    0  0.42251661082E+02  0.10368998108E+02 -0.17601320326E+02  0.46931190345E+02  0.10566000000E+00 0. -1.
         22    1    1    0    0    0  0.70141574131E+01  0.17051763230E+02 -0.15969131939E+01  0.18507057173E+02  0.00000000000E+00 0.  1.
</event>
<event>
 5    1  0.6835419E-004  0.9118800E+02  0.7818608E-02  0.1130116E+00
         25   -1    0    0    0    0  0.00000000000E+00  0.00000000000E+00  0.99999998245E-14  0.12500000000E+03  0.12500000000E+03 0.  0.
        -13    1    3    3    0    0 -0.16998833706E+01 -0.47041990953E+02 -0.13042700131E+00  0.47072993229E+02  0.10566000000E+00 0.  1.
         23    2    1    0    0    0  0.13258305421E+02 -0.77965450217E+01  0.24728786865E+02  0.95878158082E+02  0.91348451112E+02 0.  0.
         13    1    3    3    0    0  0.14958188791E+02  0.39245445931E+02  0.24859213866E+02  0.48805164853E+02  0.10566000000E+00 0. -1.
         22    1    1    0    0    0 -0.13258305421E+02  0.77965450217E+01 -0.24728786865E+02  0.29121841918E+02  0.00000000000E+00 0. -1.
</event>
<event>
 5    1  0.6835419E-004  0.9118800E+02  0.7818608E-02  0.1130116E+00
         25   -1    0    0    0    0  0.00000000000E+00  0.00000000000E+00  0.99999998245E-14  0.12500000000E+03  0.12500000000E+03 0.  0.
        -13    1    3    3    0    0  0.93621454052E+01 -0.11687888804E+01  0.30982163088E+02  0.32387056484E+02  0.10566000000E+00 0. -1.
         23    2    1    0    0    0  0.16437316952E+02 -0.11434231445E+01 -0.28387599882E+02  0.92177010615E+02  0.86135083757E+02 0.  0.
         13    1    3    3    0    0  0.70751715472E+01  0.25365735976E-01 -0.59369762970E+02  0.59789954131E+02  0.10566000000E+00 0.  1.
         22    1    1    0    0    0 -0.16437316952E+02  0.11434231445E+01  0.28387599882E+02  0.32822989385E+02  0.00000000000E+00 0.  1.
</event>
<event>
 5    1  0.6835419E-004  0.9118800E+02  0.7818608E-02  0.1130116E+00
         25   -1    0    0    0    0  0.00000000000E+00  0.00000000000E+00  0.99999998245E-14  0.12500000000E+03  0.12500000000E+03 0.  0.
        -13    1    3    3    0    0 -0.17012266589E+01 -0.56588277043E+01 -0.51384311965E+02  0.51723062392E+02  0.10566000000E+00 0. -1.
         23    2    1    0    0    0 -0.24810519400E+02  0.26084518131E+01 -0.14149249889E+02  0.96319568235E+02  0.91950486996E+02 0.  0.
         13    1    3    3    0    0 -0.23109292741E+02  0.82672795174E+01  0.37235062075E+02  0.44596505843E+02  0.10566000000E+00 0.  1.
         22    1    1    0    0    0  0.24810519400E+02 -0.26084518131E+01  0.14149249889E+02  0.28680431765E+02  0.00000000000E+00 0. -1.
</event>
<event>
 5    1  0.6835419E-004  0.9118800E+02  0.7818608E-02  0.1130116E+00
         25   -1    0    0    0    0  0.00000000000E+00  0.00000000000E+00  0.99999998245E-14  0.12500000000E+03  0.12500000000E+03 0.  0.
        -13    1    3    3    0    0 -0.24273944185E+02 -0.30360717480E+02  0.25200008075E+02  0.46325469272E+02  0.10566000000E+00 0.  1.
         23    2    1    0    0    0 -0.12203331844E+02  0.16552194414E+02  0.22019866794E+02  0.94870762013E+02  0.89959382520E+02 0.  0.
         13    1    3    3    0    0  0.12070612342E+02  0.46912911895E+02 -0.31801412811E+01  0.48545292741E+02  0.10566000000E+00 0. -1.
         22    1    1    0    0    0  0.12203331844E+02 -0.16552194414E+02 -0.22019866794E+02  0.30129237987E+02  0.00000000000E+00 0. -1.
</event>
<event>
 5    1  0.6835419E-004  0.9118800E+02  0.7818608E-02  0.1130116E+00
         25   -1    0    0    0    0  0.00000000000E+00  0.00000000000E+00  0.99999998245E-14  0.12500000000E+03  0.12500000000E+03 0.  0.
        -13    1    3    3    0    0  0.54623441592E+02  0.14886516519E+01  0.24218146929E+02  0.59770111760E+02  0.10566000000E+00 0.  1.
         23    2    1    0    0    0  0.22819804462E+02  0.44766697818E+01 -0.27600745395E+01  0.10158201419E+03  0.98845857510E+02 0.  0.
         13    1    3    3    0    0 -0.31803637130E+02  0.29880181299E+01 -0.26978221468E+02  0.41811902428E+02  0.10566000000E+00 0. -1.
         22    1    1    0    0    0 -0.22819804462E+02 -0.44766697818E+01  0.27600745395E+01  0.23417985812E+02  0.00000000000E+00 0.  1.
</event>
<event>
 5    1  0.6835419E-004  0.9118800E+02  0.7818608E-02  0.1130116E+00
         25   -1    0    0    0    0  0.00000000000E+00  0.00000000000E+00  0.99999998245E-14  0.12500000000E+03  0.12500000000E+03 0.  0.
        -13    1    3    3    0    0  0.40062296609E+02  0.91945007365E+01  0.35457463304E+02  0.54284153501E+02  0.10566000000E+00 0. -1.
         23    2    1    0    0    0  0.25288214890E+02  0.15718116487E+02 -0.20838371808E+01  0.95152129463E+02  0.90349501192E+02 0.  0.
         13    1    3    3    0    0 -0.14774081719E+02  0.65236157503E+01 -0.37541300485E+02  0.40867975962E+02  0.10566000000E+00 0.  1.
         22    1    1    0    0    0 -0.25288214890E+02 -0.15718116487E+02  0.20838371808E+01  0.29847870537E+02  0.00000000000E+00 0. -1.
</event>
<event>
 5    1  0.6835419E-004  0.9118800E+02  0.7818608E-02  0.1130116E+00
         25   -1    0    0    0    0  0.00000000000E+00  0.00000000000E+00  0.99999998245E-14  0.12500000000E+03  0.12500000000E+03 0.  0.
        -13    1    3    3    0    0  0.12811739311E+02  0.51343444675E+02  0.14884701191E+02  0.54971405920E+02  0.10566000000E+00 0. -1.
         23    2    1    0    0    0  0.95164062788E+00  0.24445729217E+02 -0.14520881289E+02  0.96550829710E+02  0.92264334536E+02 0.  0.
         13    1    3    3    0    0 -0.11860098683E+02 -0.26897715458E+02 -0.29405582480E+02  0.41579423790E+02  0.10566000000E+00 0.  1.
         22    1    1    0    0    0 -0.95164062788E+00 -0.24445729217E+02  0.14520881289E+02  0.28449170290E+02  0.00000000000E+00 0. -1.
</event>
<event>
 5    1  0.6835419E-004  0.9118800E+02  0.7818608E-02  0.1130116E+00
         25   -1    0    0    0    0  0.00000000000E+00  0.00000000000E+00  0.99999998245E-14  0.12500000000E+03  0.12500000000E+03 0.  0.
        -13    1    3    3    0    0  0.90385886691E+01 -0.44936481008E+02 -0.12241096595E+02  0.47443008130E+02  0.10566000000E+00 0.  1.
         23    2    1    0    0    0 -0.24544806010E+02 -0.11438347724E+02 -0.13174252796E+02  0.94886145423E+02  0.89980755475E+02 0.  0.
         13    1    3    3    0    0 -0.33583394679E+02  0.33498133284E+02 -0.93315620171E+00  0.47443137293E+02  0.10566000000E+00 0. -1.
         22    1    1    0    0    0  0.24544806010E+02  0.11438347724E+02  0.13174252796E+02  0.30113854577E+02  0.00000000000E+00 0. -1.
</event>
<event>
 5    1  0.6835419E-004  0.9118800E+02  0.7818608E-02  0.1130116E+00
         25   -1    0    0    0    0  0.00000000000E+00  0.00000000000E+00  0.99999998245E-14  0.12500000000E+03  0.12500000000E+03 0.  0.
        -13    1    3    3    0    0 -0.33580564290E+02  0.27306053779E+02 -0.46077377334E+01  0.43526052912E+02  0.10566000000E+00 0. -1.
         23    2    1    0    0    0 -0.40227374770E+01 -0.13414841724E+02 -0.23804502946E+02  0.97381260786E+02  0.93382627915E+02 0.  0.
         13    1    3    3    0    0  0.29557826813E+02 -0.40720895503E+02 -0.19196765213E+02  0.53855207874E+02  0.10566000000E+00 0.  1.
         22    1    1    0    0    0  0.40227374770E+01  0.13414841724E+02  0.23804502946E+02  0.27618739214E+02  0.00000000000E+00 0.  1.
</event>
<event>
 4    1  0.6835419E-004  0.9118800E+02  0.7818608E-02  0.1130116E+00
         25   -1    0    0    0    0  0.00000000000E+00  0.00000000000E+00  0.99999998245E-14  0.12500000000E+03  0.12500000000E+03 0.  0.
        -13    1    1    0    0    0  0.70766630138E+01 -0.39571115645E+01 -0.69874499596E+00  0.81386301028E+01  0.10566000000E+00 0. -1.
         13    1    1    0    0    0 -0.26936860359E+02 -0.42723006160E+02 -0.28838563268E+02  0.58159466957E+02  0.10566000000E+00 0.  1.
         22    1    1    0    0    0  0.19860197345E+02  0.46680117724E+02  0.29537308264E+02  0.58701902940E+02  0.00000000000E+00 0.  1.
</event>
<event>
 5    1  0.6835419E-004  0.9118800E+02  0.7818608E-02  0.1130116E+00
         25   -1    0    0    0    0  0.00000000000E+00  0.00000000000E+00  0.99999998245E-14  0.12500000000E+03  0.12500000000E+03 0.  0.
        -13    1    3    3    0    0  0.12852071604E+02 -0.37717889128E+02  0.94346957551E+01  0.40949231407E+02  0.10566000000E+00 0.  1.
         23    2    1    0    0    0 -0.40547904272E+01  0.15142503091E+02  0.22129248208E+02  0.97880996487E+02  0.94049184589E+02 0.  0.
         13    1    3    3    0    0 -0.16906862031E+02  0.52860392218E+02  0.12694552453E+02  0.56931765081E+02  0.10566000000E+00 0. -1.
         22    1    1    0    0    0  0.40547904272E+01 -0.15142503091E+02 -0.22129248208E+02  0.27119003513E+02  0.00000000000E+00 0. -1.
</event>
<event>
 5    1  0.6835419E-004  0.9118800E+02  0.7818608E-02  0.1130116E+00
         25   -1    0    0    0    0  0.00000000000E+00  0.00000000000E+00  0.99999998245E-14  0.12500000000E+03  0.12500000000E+03 0.  0.
        -13    1    3    3    0    0 -0.14350740270E+02 -0.30882513101E+02 -0.10249195626E+02  0.35563050160E+02  0.10566000000E+00 0.  1.
         23    2    1    0    0    0 -0.96431835378E+01  0.28078752622E+02 -0.40663847101E+01  0.95034305913E+02  0.90186343080E+02 0.  0.
         13    1    3    3    0    0  0.47075567317E+01  0.58961265722E+02  0.61828109155E+01  0.59471255753E+02  0.10566000000E+00 0. -1.
         22    1    1    0    0    0  0.96431835378E+01 -0.28078752622E+02  0.40663847101E+01  0.29965694087E+02  0.00000000000E+00 0. -1.
</event>
<event>
 5    1  0.6835419E-004  0.9118800E+02  0.7818608E-02  0.1130116E+00
         25   -1    0    0    0    0  0.00000000000E+00  0.00000000000E+00  0.99999998245E-14  0.12500000000E+03  0.12500000000E+03 0.  0.
        -13    1    3    3    0    0  0.69267597753E+01  0.40878688641E+02  0.42949231836E+02  0.59696690573E+02  0.10566000000E+00 0. -1.
         23    2    1    0    0    0  0.47106498805E+01  0.27181996851E+02  0.96454720746E+01  0.95775244969E+02  0.91207517465E+02 0.  0.
         13    1    3    3    0    0 -0.22161098948E+01 -0.13696691790E+02 -0.33303759761E+02  0.36078554396E+02  0.10566000000E+00 0.  1.
         22    1    1    0    0    0 -0.47106498805E+01 -0.27181996851E+02 -0.96454720746E+01  0.29224755031E+02  0.00000000000E+00 0. -1.
</event>
<event>
 5    1  0.6835419E-004  0.9118800E+02  0.7818608E-02  0.1130116E+00
         25   -1    0    0    0    0  0.00000000000E+00  0.00000000000E+00  0.99999998245E-14  0.12500000000E+03  0.12500000000E+03 0.  0.
        -13    1    3    3    0    0 -0.39010481484E+02  0.15434159914E+02 -0.28764603397E+02  0.50866929635E+02  0.10566000000E+00 0.  1.
         23    2    1    0    0    0 -0.10915112198E+01 -0.56309549079E+01 -0.30192190493E+02  0.94267811391E+02  0.89117634887E+02 0.  0.
         13    1    3    3    0    0  0.37918970264E+02 -0.21065114822E+02 -0.14275870959E+01  0.43400881757E+02  0.10566000000E+00 0. -1.
         22    1    1    0    0    0  0.10915112198E+01  0.56309549079E+01  0.30192190493E+02  0.30732188609E+02  0.00000000000E+00 0.  1.
</event>
<event>
 5    1  0.6835419E-004  0.9118800E+02  0.7818608E-02  0.1130116E+00
         25   -1    0    0    0    0  0.00000000000E+00  0.00000000000E+00  0.99999998245E-14  0.12500000000E+03  0.12500000000E+03 0.  0.
        -13    1    3    3    0    0  0.14655596174E+01 -0.33362112680E+02  0.25756045421E+01  0.33493631189E+02  0.10566000000E+00 0. -1.
         23    2    1    0    0    0 -0.89246363254E+01  0.26802477249E+02 -0.84015579436E+01  0.95527842019E+02  0.90867818862E+02 0.  0.
         13    1    3    3    0    0 -0.10390195943E+02  0.60164589928E+02 -0.10977162486E+02  0.62034210829E+02  0.10566000000E+00 0.  1.
         22    1    1    0    0    0  0.89246363254E+01 -0.26802477249E+02  0.84015579436E+01  0.29472157981E+02  0.00000000000E+00 0.  1.
</event>
<event>
 5    1  0.6835419E-004  0.9118800E+02  0.7818608E-02  0.1130116E+00
         25   -1    0    0    0    0  0.00000000000E+00  0.00000000000E+00  0.99999998245E-14  0.12500000000E+03  0.12500000000E+03 0.  0.
        -13    1    3    3    0    0 -0.24723207727E+02 -0.32927252328E+02 -0.23317938930E+02  0.47319957588E+02  0.10566000000E+00 0. -1.
         23    2    1    0    0    0 -0.63817653874E+01  0.12085915037E+02 -0.25599932972E+02  0.95980130257E+02  0.91487882062E+02 0.  0.
         13    1    3    3    0    0  0.18341442339E+02  0.45013167365E+02 -0.22819940421E+01  0.48660172669E+02  0.10566000000E+00 0.  1.
         22    1    1    0    0    0  0.63817653874E+01 -0.12085915037E+02  0.25599932972E+02  0.29019869743E+02  0.00000000000E+00 0. -1.
</event>
<event>
 5    1  0.6835419E-004  0.9118800E+02  0.7818608E-02  0.1130116E+00
         25   -1    0    0    0    0  0.00000000000E+00  0.00000000000E+00  0.99999998245E-14  0.12500000000E+03  0.12500000000E+03 0.  0.
        -13    1    3    3    0    0 -0.24327868086E+02 -0.52691781013E+02  0.24296246231E+01  0.58087719802E+02  0.10566000000E+00 0.  1.
         23    2    1    0    0    0 -0.21803838630E+02 -0.14127040234E+02  0.94245237197E+01  0.97363026719E+02  0.93358216991E+02 0.  0.
         13    1    3    3    0    0  0.25240294560E+01  0.38564740778E+02  0.69948990966E+01  0.39275306917E+02  0.10566000000E+00 0. -1.
         22    1    1    0    0    0  0.21803838630E+02  0.14127040234E+02 -0.94245237197E+01  0.27636973281E+02  0.00000000000E+00 0.  1.
</event>
<event>
 5    1  0.6835419E-004  0.9118800E+02  0.7818608E-02  0.1130116E+00
         25   -1    0    0    0    0  0.00000000000E+00  0.00000000000E+00  0.99999998245E-14  0.12500000000E+03  0.12500000000E+03 0.  0.
        -13    1    3    3    0    0  0.59387374221E+02  0.12542150858E+02 -0.13829117270E+01  0.60713172985E+02  0.10566000000E+00 0. -1.
         23    2    1    0    0    0  0.25144056950E+02  0.90597476552E+01  0.92176847605E+01  0.96728665758E+02  0.92504953594E+02 0.  0.
         13    1    3    3    0    0 -0.34243317270E+02 -0.34824032028E+01  0.10600596487E+02  0.36015492773E+02  0.10566000000E+00 0.  1.
         22    1    1    0    0    0 -0.25144056950E+02 -0.90597476552E+01 -0.92176847605E+01  0.28271334242E+02  0.00000000000E+00 0. -1.
</event>
<event>
 5    1  0.6835419E-004  0.9118800E+02  0.7818608E-02  0.1130116E+00
         25   -1    0    0    0    0  0.00000000000E+00  0.00000000000E+00  0.99999998245E-14  0.12500000000E+03  0.12500000000E+03 0.  0.
        -13    1    3    3    0    0 -0.73467990097E+01 -0.42510322705E+02  0.19233720404E+02  0.47233993657E+02  0.10566000000E+00 0.  1.
         23    2    1    0    0    0 -0.18110026017E+02  0.47170986116E+01  0.22442445375E+02  0.95778647943E+02  0.91212181126E+02 0.  0.
         13    1    3    3    0    0 -0.10763227007E+02  0.47227421316E+02  0.32087249704E+01  0.48544654286E+02  0.10566000000E+00 0. -1.
         22    1    1    0    0    0  0.18110026017E+02 -0.47170986116E+01 -0.22442445375E+02  0.29221352057E+02  0.00000000000E+00 0.  1.
</event>
<event>
 5    1  0.6835419E-004  0.9118800E+02  0.7818608E-02  0.1130116E+00
         25   -1    0    0    0    0  0.00000000000E+00  0.00000000000E+00  0.99999998245E-14  0.12500000000E+03  0.12500000000E+03 0.  0.
        -13    1    3    3    0    0  0.27148340971E+02 -0.23048266935E+02  0.18343515491E+02  0.40059340368E+02  0.10566000000E+00 0. -1.
         23    2    1    0    0    0 -0.26056691741E+02 -0.82069486710E+01  0.22676705350E+01  0.97587456874E+02  0.93658230917E+02 0.  0.
         13    1    3    3    0    0 -0.53205032711E+02  0.14841318263E+02 -0.16075844956E+02  0.57528116506E+02  0.10566000000E+00 0.  1.
         22    1    1    0    0    0  0.26056691741E+02  0.82069486710E+01 -0.22676705350E+01  0.27412543126E+02  0.00000000000E+00 0.  1.
</event>
<event>
 5    1  0.6835419E-004  0.9118800E+02  0.7818608E-02  0.1130116E+00
         25   -1    0    0    0    0  0.00000000000E+00  0.00000000000E+00  0.99999998245E-14  0.12500000000E+03  0.12500000000E+03 0.  0.
        -13    1    3    3    0    0 -0.30735971273E+02  0.14067793114E+02  0.11543585568E+02  0.35719298215E+02  0.10566000000E+00 0.  1.
         23    2    1    0    0    0  0.28114483659E+02  0.36763137653E+01  0.77776863703E+01  0.95598777584E+02  0.90965347226E+02 0.  0.
         13    1    3    3    0    0  0.58850454931E+02 -0.10391479348E+02 -0.37658991974E+01  0.59879479369E+02  0.10566000000E+00 0. -1.
         22    1    1    0    0    0 -0.28114483659E+02 -0.36763137653E+01 -0.77776863703E+01  0.29401222416E+02  0.00000000000E+00 0. -1.
</event>
<event>
 5    1  0.6835419E-004  0.9118800E+02  0.7818608E-02  0.1130116E+00
         25   -1    0    0    0    0  0.00000000000E+00  0.00000000000E+00  0.99999998245E-14  0.12500000000E+03  0.12500000000E+03 0.  0.
        -13    1    3    3    0    0  0.55222359827E+01  0.13031886404E+02 -0.33359630683E+02  0.36238119113E+02  0.10566000000E+00 0. -1.
         23    2    1    0    0    0  0.16184311681E+02  0.62348442245E+01  0.24231552795E+02  0.95201117841E+02  0.90417252005E+02 0.  0.
         13    1    3    3    0    0  0.10662075699E+02 -0.67970421799E+01  0.57591183478E+02  0.58962998728E+02  0.10566000000E+00 0.  1.
         22    1    1    0    0    0 -0.16184311681E+02 -0.62348442245E+01 -0.24231552795E+02  0.29798882159E+02  0.00000000000E+00 0.  1.
</event>
<event>
 5    1  0.6835419E-004  0.9118800E+02  0.7818608E-02  0.1130116E+00
         25   -1    0    0    0    0  0.00000000000E+00  0.00000000000E+00  0.99999998245E-14  0.12500000000E+03  0.12500000000E+03 0.  0.
        -13    1    3    3    0    0  0.22920779344E+02  0.17480714329E+02 -0.51017659113E+02  0.58598209910E+02  0.10566000000E+00 0.  1.
         23    2    1    0    0    0  0.79519233353E+01  0.22647241690E+02 -0.18751014935E+02  0.94541319760E+02  0.89500446591E+02 0.  0.
         13    1    3    3    0    0 -0.14968856008E+02  0.51665273606E+01  0.32266644178E+02  0.35943109850E+02  0.10566000000E+00 0. -1.
         22    1    1    0    0    0 -0.79519233353E+01 -0.22647241690E+02  0.18751014935E+02  0.30458680240E+02  0.00000000000E+00 0.  1.
</event>
<event>
 5    1  0.6835419E-004  0.9118800E+02  0.7818608E-02  0.1130116E+00
         25   -1    0    0    0    0  0.00000000000E+00  0.00000000000E+00  0.99999998245E-14  0.12500000000E+03  0.12500000000E+03 0.  0.
        -13    1    3    3    0    0  0.40082551529E+02  0.22802211492E+02  0.38558494600E+02  0.60110901307E+02  0.10566000000E+00 0. -1.
         23    2    1    0    0    0  0.18369864676E+02  0.18267177195E+02  0.79702736720E+01  0.97895259579E+02  0.94068139636E+02 0.  0.
         13    1    3    3    0    0 -0.21712686853E+02 -0.45350342971E+01 -0.30588220928E+02  0.37784358272E+02  0.10566000000E+00 0.  1.
         22    1    1    0    0    0 -0.18369864676E+02 -0.18267177195E+02 -0.79702736720E+01  0.27104740421E+02  0.00000000000E+00 0. -1.
</event>
<event>
 5    1  0.6835419E-004  0.9118800E+02  0.7818608E-02  0.1130116E+00
         25   -1    0    0    0    0  0.00000000000E+00  0.00000000000E+00  0.99999998245E-14  0.12500000000E+03  0.12500000000E+03 0.  0.
        -13    1    3    3    0    0  0.97788781637E+01 -0.19510621026E+02  0.21306191758E+02  0.30500094463E+02  0.10566000000E+00 0. -1.
         23    2    1    0    0    0 -0.30705882735E+01  0.35055825992E+02  0.14379295801E+02  0.86985481772E+02  0.78239187388E+02 0.  0.
         13    1    3    3    0    0 -0.12849466437E+02  0.54566447018E+02 -0.69268959572E+01  0.56485387310E+02  0.10566000000E+00 0.  1.
         22    1    1    0    0    0  0.30705882735E+01 -0.35055825992E+02 -0.14379295801E+02  0.38014518228E+02  0.00000000000E+00 0.  1.
</event>
<event>
 5    1  0.6835419E-004  0.9118800E+02  0.7818608E-02  0.1130116E+00
         25   -1    0    0    0    0  0.00000000000E+00  0.00000000000E+00  0.99999998245E-14  0.12500000000E+03  0.12500000000E+03 0.  0.
        -13    1    3    3    0    0  0.32516897013E+02 -0.34384994984E+02 -0.14589771816E+02  0.49523217556E+02  0.10566000000E+00 0. -1.
         23    2    1    0    0    0 -0.69612264376E+01 -0.17771254783E+02  0.14268886755E+02  0.10116982377E+03  0.98323221783E+02 0.  0.
         13    1    3    3    0    0 -0.39478123450E+02  0.16613740202E+02  0.28858658571E+02  0.51646606212E+02  0.10566000000E+00 0.  1.
         22    1    1    0    0    0  0.69612264376E+01  0.17771254783E+02 -0.14268886755E+02  0.23830176233E+02  0.00000000000E+00 0. -1.
</event>
<event>
 5    1  0.6835419E-004  0.9118800E+02  0.7818608E-02  0.1130116E+00
         25   -1    0    0    0    0  0.00000000000E+00  0.00000000000E+00  0.99999998245E-14  0.12500000000E+03  0.12500000000E+03 0.  0.
        -13    1    3    3    0    0  0.29048304882E+01 -0.45651376869E+01 -0.55597882867E+02  0.55860668324E+02  0.10566000000E+00 0.  1.
         23    2    1    0    0    0 -0.53143425257E+00 -0.21401648327E+02 -0.18656433283E+02  0.96603248842E+02  0.92335324825E+02 0.  0.
         13    1    3    3    0    0 -0.34362647408E+01 -0.16836510640E+02  0.36941449584E+02  0.40742580518E+02  0.10566000000E+00 0. -1.
         22    1    1    0    0    0  0.53143425257E+00  0.21401648327E+02  0.18656433283E+02  0.28396751158E+02  0.00000000000E+00 0.  1.
</event>
<event>
 5    1  0.6835419E-004  0.9118800E+02  0.7818608E-02  0.1130116E+00
         25   -1    0    0    0    0  0.00000000000E+00  0.00000000000E+00  0.99999998245E-14  0.12500000000E+03  0.12500000000E+03 0.  0.
        -13    1    3    3    0    0  0.38088283031E+02  0.15603141160E+02  0.59689153087E+01  0.41591037884E+02  0.10566000000E+00 0.  1.
         23    2    1    0    0    0  0.10902217486E+02 -0.28572318386E+02 -0.31479175954E+01  0.94256787590E+02  0.89102171116E+02 0.  0.
         13    1    3    3    0    0 -0.27186065545E+02 -0.44175459546E+02 -0.91168329041E+01  0.52665749706E+02  0.10566000000E+00 0. -1.
         22    1    1    0    0    0 -0.10902217486E+02  0.28572318386E+02  0.31479175954E+01  0.30743212410E+02  0.00000000000E+00 0. -1.
</event>
<event>
 5    1  0.6835419E-004  0.9118800E+02  0.7818608E-02  0.1130116E+00
         25   -1    0    0    0    0  0.00000000000E+00  0.00000000000E+00  0.99999998245E-14  0.12500000000E+03  0.12500000000E+03 0.  0.
        -13    1    3    3    0    0  0.16643046184E+02 -0.47514236912E+02 -0.31651953157E+02  0.59468067047E+02  0.10566000000E+00 0. -1.
         23    2    1    0    0    0  0.70525537000E+01 -0.14777041937E+02 -0.26330172616E+02  0.93993912339E+02  0.88732621311E+02 0.  0.
         13    1    3    3    0    0 -0.95904924835E+01  0.32737194975E+02  0.53217805410E+01  0.34525845292E+02  0.10566000000E+00 0.  1.
         22    1    1    0    0    0 -0.70525537000E+01  0.14777041937E+02  0.26330172616E+02  0.31006087661E+02  0.00000000000E+00 0. -1.
</event>
<event>
 5    1  0.6835419E-004  0.9118800E+02  0.7818608E-02  0.1130116E+00
         25   -1    0    0    0    0  0.00000000000E+00  0.00000000000E+00  0.99999998245E-14  0.12500000000E+03  0.12500000000E+03 0.  0.
        -13    1    3    3    0    0  0.13736618518E+02 -0.23232662176E+02 -0.42121678928E+02  0.50026975521E+02  0.10566000000E+00 0.  1.
         23    2    1    0    0    0  0.25402004561E+02  0.85251448014E+01 -0.10870277816E+02  0.96084556559E+02  0.91630448758E+02 0.  0.
         13    1    3    3    0    0  0.11665386043E+02  0.31757806977E+02  0.31251401112E+02  0.46057581037E+02  0.10566000000E+00 0. -1.
         22    1    1    0    0    0 -0.25402004561E+02 -0.85251448014E+01  0.10870277816E+02  0.28915443441E+02  0.00000000000E+00 0.  1.
</event>
<event>
 5    1  0.6835419E-004  0.9118800E+02  0.7818608E-02  0.1130116E+00
         25   -1    0    0    0    0  0.00000000000E+00  0.00000000000E+00  0.99999998245E-14  0.12500000000E+03  0.12500000000E+03 0.  0.
        -13    1    3    3    0    0  0.10020350890E+02  0.31343170875E+02 -0.19539354387E+02  0.38270083960E+02  0.10566000000E+00 0. -1.
         23    2    1    0    0    0 -0.17862277115E+02 -0.13007393571E+02  0.12435650320E+02  0.99644554232E+02  0.96364612581E+02 0.  0.
         13    1    3    3    0    0 -0.27882628004E+02 -0.44350564446E+02  0.31975004706E+02  0.61374470272E+02  0.10566000000E+00 0.  1.
         22    1    1    0    0    0  0.17862277115E+02  0.13007393571E+02 -0.12435650320E+02  0.25355445768E+02  0.00000000000E+00 0.  1.
</event>
<event>
 5    1  0.6835419E-004  0.9118800E+02  0.7818608E-02  0.1130116E+00
         25   -1    0    0    0    0  0.00000000000E+00  0.00000000000E+00  0.99999998245E-14  0.12500000000E+03  0.12500000000E+03 0.  0.
        -13    1    3    3    0    0  0.42363515809E+02  0.13545807562E+02 -0.37823334436E+02  0.58384691197E+02  0.10566000000E+00 0.  1.
         23    2    1    0    0    0  0.19387401483E+02  0.19995957072E+02 -0.91630605954E+01  0.95679847972E+02  0.91076681938E+02 0.  0.
         13    1    3    3    0    0 -0.22976114326E+02  0.64501495099E+01  0.28660273841E+02  0.37295156775E+02  0.10566000000E+00 0. -1.
         22    1    1    0    0    0 -0.19387401483E+02 -0.19995957072E+02  0.91630605954E+01  0.29320152028E+02  0.00000000000E+00 0.  1.
</event>
<event>
 5    1  0.6835419E-004  0.9118800E+02  0.7818608E-02  0.1130116E+00
         25   -1    0    0    0    0  0.00000000000E+00  0.00000000000E+00  0.99999998245E-14  0.12500000000E+03  0.12500000000E+03 0.  0.
        -13    1    3    3    0    0 -0.21046937712E+01 -0.46860113966E+02 -0.16031779135E+02  0.49571454720E+02  0.10566000000E+00 0. -1.
         23    2    1    0    0    0 -0.24917294204E+02 -0.15614589994E+02  0.72366173846E+01  0.94717074080E+02  0.89745576604E+02 0.  0.
         13    1    3    3    0    0 -0.22812600433E+02  0.31245523972E+02  0.23268396520E+02  0.45145619360E+02  0.10566000000E+00 0.  1.
         22    1    1    0    0    0  0.24917294204E+02  0.15614589994E+02 -0.72366173846E+01  0.30282925920E+02  0.00000000000E+00 0.  1.
</event>
<event>
 5    1  0.6835419E-004  0.9118800E+02  0.7818608E-02  0.1130116E+00
         25   -1    0    0    0    0  0.00000000000E+00  0.00000000000E+00  0.99999998245E-14  0.12500000000E+03  0.12500000000E+03 0.  0.
        -13    1    3    3    0    0  0.39969657851E+02  0.19031899143E+02 -0.16226122516E+02  0.47149601797E+02  0.10566000000E+00 0. -1.
         23    2    1    0    0    0  0.14418222397E+01 -0.87615929404E+01 -0.27606732468E+02  0.96000413110E+02  0.91515590353E+02 0.  0.
         13    1    3    3    0    0 -0.38527835611E+02 -0.27793492084E+02 -0.11380609951E+02  0.48850811313E+02  0.10566000000E+00 0.  1.
         22    1    1    0    0    0 -0.14418222397E+01  0.87615929404E+01  0.27606732468E+02  0.28999586890E+02  0.00000000000E+00 0.  1.
</event>
<event>
 5    1  0.6835419E-004  0.9118800E+02  0.7818608E-02  0.1130116E+00
         25   -1    0    0    0    0  0.00000000000E+00  0.00000000000E+00  0.99999998245E-14  0.12500000000E+03  0.12500000000E+03 0.  0.
        -13    1    3    3    0    0 -0.46564108666E+02 -0.14086527984E+02  0.14826216339E+01  0.48670892918E+02  0.10566000000E+00 0.  1.
         23    2    1    0    0    0 -0.59428532561E+01 -0.20618634992E+02 -0.20504266609E+02  0.95320536343E+02  0.90582195192E+02 0.  0.
         13    1    3    3    0    0  0.40621255410E+02 -0.65321070082E+01 -0.21986888243E+02  0.46649643425E+02  0.10566000000E+00 0. -1.
         22    1    1    0    0    0  0.59428532561E+01  0.20618634992E+02  0.20504266609E+02  0.29679463657E+02  0.00000000000E+00 0. -1.
</event>
<event>
 5    1  0.6835419E-004  0.9118800E+02  0.7818608E-02  0.1130116E+00
         25   -1    0    0    0    0  0.00000000000E+00  0.00000000000E+00  0.99999998245E-14  0.12500000000E+03  0.12500000000E+03 0.  0.
        -13    1    3    3    0    0  0.22316827988E+02  0.16478189914E+02 -0.24882880024E+02  0.37265807876E+02  0.10566000000E+00 0.  1.
         23    2    1    0    0    0  0.27965983555E+01  0.53631079009E+01  0.28859286819E+02  0.95513692594E+02  0.90848352481E+02 0.  0.
         13    1    3    3    0    0 -0.19520229633E+02 -0.11115082013E+02  0.53742166844E+02  0.58247884718E+02  0.10566000000E+00 0. -1.
         22    1    1    0    0    0 -0.27965983555E+01 -0.53631079009E+01 -0.28859286819E+02  0.29486307406E+02  0.00000000000E+00 0. -1.
</event>
<event>
 5    1  0.6835419E-004  0.9118800E+02  0.7818608E-02  0.1130116E+00
         25   -1    0    0    0    0  0.00000000000E+00  0.00000000000E+00  0.99999998245E-14  0.12500000000E+03  0.12500000000E+03 0.  0.
        -13    1    3    3    0    0 -0.26376731356E+02 -0.42586426717E+01  0.32455629749E+02  0.42038637714E+02  0.10566000000E+00 0.  1.
         23    2    1    0    0    0 -0.20139210415E+02  0.34661092926E+01 -0.20581116899E+02  0.95996826336E+02  0.91510691092E+02 0.  0.
         13    1    3    3    0    0  0.62375209408E+01  0.77247519643E+01 -0.53036746648E+02  0.53958188622E+02  0.10566000000E+00 0. -1.
         22    1    1    0    0    0  0.20139210415E+02 -0.34661092926E+01  0.20581116899E+02  0.29003173664E+02  0.00000000000E+00 0. -1.
</event>
<event>
 5    1  0.6835419E-004  0.9118800E+02  0.7818608E-02  0.1130116E+00
         25   -1    0    0    0    0  0.00000000000E+00  0.00000000000E+00  0.99999998245E-14  0.12500000000E+03  0.12500000000E+03 0.  0.
        -13    1    3    3    0    0  0.49739615741E+02  0.15777858056E+02  0.26399676967E+02  0.58480118732E+02  0.10566000000E+00 0.  1.
         23    2    1    0    0    0  0.27366873341E+02 -0.57986118072E+01  0.41170209821E+01  0.96724223846E+02  0.92498951138E+02 0.  0.
         13    1    3    3    0    0 -0.22372742400E+02 -0.21576469863E+02 -0.22282655985E+02  0.38244105115E+02  0.10566000000E+00 0. -1.
         22    1    1    0    0    0 -0.27366873341E+02  0.57986118072E+01 -0.41170209821E+01  0.28275776154E+02  0.00000000000E+00 0.  1.
</event>
<event>
 5    1  0.6835419E-004  0.9118800E+02  0.7818608E-02  0.1130116E+00
         25   -1    0    0    0    0  0.00000000000E+00  0.00000000000E+00  0.99999998245E-14  0.12500000000E+03  0.12500000000E+03 0.  0.
        -13    1    3    3    0    0  0.42153752806E+02 -0.13273546580E+02 -0.33967669466E+02  0.55739928663E+02  0.10566000000E+00 0.  1.
         23    2    1    0    0    0  0.22599242019E+02 -0.14668308291E+02  0.33068705239E+01  0.97855564095E+02  0.94015376528E+02 0.  0.
         13    1    3    3    0    0 -0.19554510787E+02 -0.13947617107E+01  0.37274539990E+02  0.42115635432E+02  0.10566000000E+00 0. -1.
         22    1    1    0    0    0 -0.22599242019E+02  0.14668308291E+02 -0.33068705239E+01  0.27144435905E+02  0.00000000000E+00 0.  1.
</event>
<event>
 5    1  0.6835419E-004  0.9118800E+02  0.7818608E-02  0.1130116E+00
         25   -1    0    0    0    0  0.00000000000E+00  0.00000000000E+00  0.99999998245E-14  0.12500000000E+03  0.12500000000E+03 0.  0.
        -13    1    3    3    0    0 -0.49679543759E+02  0.26861377178E+02 -0.16105574051E+02  0.58728113639E+02  0.10566000000E+00 0. -1.
         23    2    1    0    0    0 -0.17244894934E+02  0.24074710557E+02  0.72816707313E+00  0.95377233131E+02  0.90660400852E+02 0.  0.
         13    1    3    3    0    0  0.32434648826E+02 -0.27866666205E+01  0.16833741124E+02  0.36649119492E+02  0.10566000000E+00 0.  1.
         22    1    1    0    0    0  0.17244894934E+02 -0.24074710557E+02 -0.72816707313E+00  0.29622766869E+02  0.00000000000E+00 0. -1.
</event>
<event>
 5    1  0.6835419E-004  0.9118800E+02  0.7818608E-02  0.1130116E+00
         25   -1    0    0    0    0  0.00000000000E+00  0.00000000000E+00  0.99999998245E-14  0.12500000000E+03  0.12500000000E+03 0.  0.
        -13    1    3    3    0    0  0.39968184958E+02  0.19921468155E+01 -0.10367151249E+02  0.41339006360E+02  0.10566000000E+00 0.  1.
         23    2    1    0    0    0 -0.13394031960E+02 -0.74777403943E+01 -0.23343844673E+02  0.97067012733E+02  0.92961030455E+02 0.  0.
         13    1    3    3    0    0 -0.53362216918E+02 -0.94698872098E+01 -0.12976693423E+02  0.55728006374E+02  0.10566000000E+00 0. -1.
         22    1    1    0    0    0  0.13394031960E+02  0.74777403943E+01  0.23343844673E+02  0.27932987267E+02  0.00000000000E+00 0. -1.
</event>
<event>
 5    1  0.6835419E-004  0.9118800E+02  0.7818608E-02  0.1130116E+00
         25   -1    0    0    0    0  0.00000000000E+00  0.00000000000E+00  0.99999998245E-14  0.12500000000E+03  0.12500000000E+03 0.  0.
        -13    1    3    3    0    0  0.56349258702E+01  0.33581763329E+02  0.25073046715E+02  0.42286594252E+02  0.10566000000E+00 0. -1.
         23    2    1    0    0    0 -0.13403482183E+02 -0.19452374526E+01 -0.18777542061E+02  0.10184760554E+03  0.99181154385E+02 0.  0.
         13    1    3    3    0    0 -0.19038408053E+02 -0.35527000781E+02 -0.43850588775E+02  0.59561011288E+02  0.10566000000E+00 0.  1.
         22    1    1    0    0    0  0.13403482183E+02  0.19452374526E+01  0.18777542061E+02  0.23152394460E+02  0.00000000000E+00 0.  1.
</event>
<event>
 5    1  0.6835419E-004  0.9118800E+02  0.7818608E-02  0.1130116E+00
         25   -1    0    0    0    0  0.00000000000E+00  0.00000000000E+00  0.99999998245E-14  0.12500000000E+03  0.12500000000E+03 0.  0.
        -13    1    3    3    0    0  0.33311715139E+00 -0.10858401901E+02  0.45581237782E+02  0.46858043713E+02  0.10566000000E+00 0. -1.
         23    2    1    0    0    0  0.27550184351E+02 -0.78523384356E+01  0.48396019492E+01  0.95946710622E+02  0.91442209376E+02 0.  0.
         13    1    3    3    0    0  0.27217067199E+02  0.30060634654E+01 -0.40741635833E+02  0.49088666908E+02  0.10566000000E+00 0.  1.
         22    1    1    0    0    0 -0.27550184351E+02  0.78523384356E+01 -0.48396019492E+01  0.29053289378E+02  0.00000000000E+00 0. -1.
</event>
<event>
 5    1  0.6835419E-004  0.9118800E+02  0.7818608E-02  0.1130116E+00
         25   -1    0    0    0    0  0.00000000000E+00  0.00000000000E+00  0.99999998245E-14  0.12500000000E+03  0.12500000000E+03 0.  0.
        -13    1    3    3    0    0 -0.13615745042E+02 -0.46208833018E+01 -0.54828252286E+02  0.56682356058E+02  0.10566000000E+00 0. -1.
         23    2    1    0    0    0 -0.23320970669E+02 -0.40107517633E+01 -0.16684940977E+02  0.96045880120E+02  0.91577672114E+02 0.  0.
         13    1    3    3    0    0 -0.97052256266E+01  0.61013153849E+00  0.38143311308E+02  0.39363524062E+02  0.10566000000E+00 0.  1.
         22    1    1    0    0    0  0.23320970669E+02  0.40107517633E+01  0.16684940977E+02  0.28954119880E+02  0.00000000000E+00 0. -1.
</event>
<event>
 5    1  0.6835419E-004  0.9118800E+02  0.7818608E-02  0.1130116E+00
         25   -1    0    0    0    0  0.00000000000E+00  0.00000000000E+00  0.99999998245E-14  0.12500000000E+03  0.12500000000E+03 0.  0.
        -13    1    3    3    0    0 -0.13977274747E+02 -0.22192126776E+02 -0.11352323206E+02  0.28578682727E+02  0.10566000000E+00 0.  1.
         23    2    1    0    0    0 -0.91156812652E+01  0.23718741578E+02 -0.36016915384E+02  0.80921745262E+02  0.67863365047E+02 0.  0.
         13    1    3    3    0    0  0.48615934814E+01  0.45910868354E+02 -0.24664592178E+02  0.52343062535E+02  0.10566000000E+00 0. -1.
         22    1    1    0    0    0  0.91156812652E+01 -0.23718741578E+02  0.36016915384E+02  0.44078254738E+02  0.00000000000E+00 0. -1.
</event>
<event>
 5    1  0.6835419E-004  0.9118800E+02  0.7818608E-02  0.1130116E+00
         25   -1    0    0    0    0  0.00000000000E+00  0.00000000000E+00  0.99999998245E-14  0.12500000000E+03  0.12500000000E+03 0.  0.
        -13    1    3    3    0    0  0.12585442026E+02  0.45080629431E+02 -0.56851512652E+00  0.46808021474E+02  0.10566000000E+00 0. -1.
         23    2    1    0    0    0  0.66453277276E-01  0.69033134372E+01  0.28035039073E+02  0.96127459961E+02  0.91688957843E+02 0.  0.
         13    1    3    3    0    0 -0.12518988748E+02 -0.38177315993E+02  0.28603554200E+02  0.49319438487E+02  0.10566000000E+00 0.  1.
         22    1    1    0    0    0 -0.66453277276E-01 -0.69033134372E+01 -0.28035039073E+02  0.28872540039E+02  0.00000000000E+00 0.  1.
</event>
<event>
 5    1  0.6835419E-004  0.9118800E+02  0.7818608E-02  0.1130116E+00
         25   -1    0    0    0    0  0.00000000000E+00  0.00000000000E+00  0.99999998245E-14  0.12500000000E+03  0.12500000000E+03 0.  0.
        -13    1    3    3    0    0 -0.45267992018E+02  0.34413386428E+02  0.22381869075E+02  0.61109995043E+02  0.10566000000E+00 0. -1.
         23    2    1    0    0    0 -0.15983449275E+02  0.23229172097E+02  0.74320479748E+01  0.95840088749E+02  0.91296342683E+02 0.  0.
         13    1    3    3    0    0  0.29284542744E+02 -0.11184214330E+02 -0.14949821100E+02  0.34730093707E+02  0.10566000000E+00 0.  1.
         22    1    1    0    0    0  0.15983449275E+02 -0.23229172097E+02 -0.74320479748E+01  0.29159911251E+02  0.00000000000E+00 0. -1.
</event>
<event>
 5    1  0.6835419E-004  0.9118800E+02  0.7818608E-02  0.1130116E+00
         25   -1    0    0    0    0  0.00000000000E+00  0.00000000000E+00  0.99999998245E-14  0.12500000000E+03  0.12500000000E+03 0.  0.
        -13    1    3    3    0    0 -0.10906507975E+02  0.48404310422E+01 -0.43624646770E+02  0.45227233596E+02  0.10566000000E+00 0. -1.
         23    2    1    0    0    0 -0.85098999401E+00 -0.29539706054E+02 -0.11677537492E+02  0.93224485849E+02  0.87642007406E+02 0.  0.
         13    1    3    3    0    0  0.10055517981E+02 -0.34380137096E+02  0.31947109278E+02  0.47997252253E+02  0.10566000000E+00 0.  1.
         22    1    1    0    0    0  0.85098999401E+00  0.29539706054E+02  0.11677537492E+02  0.31775514151E+02  0.00000000000E+00 0.  1.
</event>
<event>
 5    1  0.6835419E-004  0.9118800E+02  0.7818608E-02  0.1130116E+00
         25   -1    0    0    0    0  0.00000000000E+00  0.00000000000E+00  0.99999998245E-14  0.12500000000E+03  0.12500000000E+03 0.  0.
        -13    1    3    3    0    0 -0.15493294256E+01  0.38140395782E+02  0.18887682124E+02  0.42589269918E+02  0.10566000000E+00 0. -1.
         23    2    1    0    0    0  0.29935073621E+02  0.41654815840E+01 -0.44400004448E+01  0.94452111800E+02  0.89375768248E+02 0.  0.
         13    1    3    3    0    0  0.31484403047E+02 -0.33974914198E+02 -0.23327682569E+02  0.51862841882E+02  0.10566000000E+00 0.  1.
         22    1    1    0    0    0 -0.29935073621E+02 -0.41654815840E+01  0.44400004448E+01  0.30547888200E+02  0.00000000000E+00 0.  1.
</event>
<event>
 5    1  0.6835419E-004  0.9118800E+02  0.7818608E-02  0.1130116E+00
         25   -1    0    0    0    0  0.00000000000E+00  0.00000000000E+00  0.99999998245E-14  0.12500000000E+03  0.12500000000E+03 0.  0.
        -13    1    3    3    0    0  0.49110935131E+00 -0.45974224200E+02  0.24611126456E+02  0.52149680619E+02  0.10566000000E+00 0.  1.
         23    2    1    0    0    0 -0.22614089416E+02 -0.78007459335E+01  0.95108660198E+01  0.99256937834E+02  0.95860494775E+02 0.  0.
         13    1    3    3    0    0 -0.23105198768E+02  0.38173478266E+02 -0.15100260436E+02  0.47107257215E+02  0.10566000000E+00 0. -1.
         22    1    1    0    0    0  0.22614089416E+02  0.78007459335E+01 -0.95108660198E+01  0.25743062166E+02  0.00000000000E+00 0. -1.
</event>
<event>
 5    1  0.6835419E-004  0.9118800E+02  0.7818608E-02  0.1130116E+00
         25   -1    0    0    0    0  0.00000000000E+00  0.00000000000E+00  0.99999998245E-14  0.12500000000E+03  0.12500000000E+03 0.  0.
        -13    1    3    3    0    0 -0.42599239882E+02 -0.96804363841E+01 -0.84232650641E+01  0.44490096038E+02  0.10566000000E+00 0.  1.
         23    2    1    0    0    0 -0.11139611568E+02  0.24131855404E+02  0.13012723127E+02  0.95406616376E+02  0.90700904594E+02 0.  0.
         13    1    3    3    0    0  0.31459628314E+02  0.33812291788E+02  0.21435988191E+02  0.50916520338E+02  0.10566000000E+00 0. -1.
         22    1    1    0    0    0  0.11139611568E+02 -0.24131855404E+02 -0.13012723127E+02  0.29593383624E+02  0.00000000000E+00 0.  1.
</event>
<event>
 5    1  0.6835419E-004  0.9118800E+02  0.7818608E-02  0.1130116E+00
         25   -1    0    0    0    0  0.00000000000E+00  0.00000000000E+00  0.99999998245E-14  0.12500000000E+03  0.12500000000E+03 0.  0.
        -13    1    3    3    0    0  0.22999810941E+02 -0.15834932918E+02  0.29187245348E+01  0.28076084499E+02  0.10566000000E+00 0.  1.
         23    2    1    0    0    0 -0.11096930479E+02  0.26013297883E+02  0.25812067587E+02  0.86710362160E+02  0.77798396770E+02 0.  0.
         13    1    3    3    0    0 -0.34096741420E+02  0.41848230801E+02  0.22893343053E+02  0.58634277661E+02  0.10566000000E+00 0. -1.
         22    1    1    0    0    0  0.11096930479E+02 -0.26013297883E+02 -0.25812067587E+02  0.38289637840E+02  0.00000000000E+00 0. -1.
</event>
<event>
 5    1  0.6835419E-004  0.9118800E+02  0.7818608E-02  0.1130116E+00
         25   -1    0    0    0    0  0.00000000000E+00  0.00000000000E+00  0.99999998245E-14  0.12500000000E+03  0.12500000000E+03 0.  0.
        -13    1    3    3    0    0 -0.15289962270E+02 -0.32243170701E+02  0.21422512235E+01  0.35749201493E+02  0.10566000000E+00 0. -1.
         23    2    1    0    0    0  0.13767446576E+02  0.17772852156E+02  0.18525877041E+02  0.95868831484E+02  0.91335687828E+02 0.  0.
         13    1    3    3    0    0  0.29057408846E+02  0.50016022857E+02  0.16383625817E+02  0.60119629991E+02  0.10566000000E+00 0.  1.
         22    1    1    0    0    0 -0.13767446576E+02 -0.17772852156E+02 -0.18525877041E+02  0.29131168516E+02  0.00000000000E+00 0.  1.
</event>
<event>
 5    1  0.6835419E-004  0.9118800E+02  0.7818608E-02  0.1130116E+00
         25   -1    0    0    0    0  0.00000000000E+00  0.00000000000E+00  0.99999998245E-14  0.12500000000E+03  0.12500000000E+03 0.  0.
        -13    1    3    3    0    0  0.94642425302E+01 -0.43998296611E+02 -0.26539247785E+01  0.45082995377E+02  0.10566000000E+00 0.  1.
         23    2    1    0    0    0 -0.19854715950E+02 -0.57690461665E+01 -0.19947373069E+02  0.96270410175E+02  0.91883635887E+02 0.  0.
         13    1    3    3    0    0 -0.29318958480E+02  0.38229250445E+02 -0.17293448291E+02  0.51187414799E+02  0.10566000000E+00 0. -1.
         22    1    1    0    0    0  0.19854715950E+02  0.57690461665E+01  0.19947373069E+02  0.28729589825E+02  0.00000000000E+00 0. -1.
</event>
<event>
 5    1  0.6835419E-004  0.9118800E+02  0.7818608E-02  0.1130116E+00
         25   -1    0    0    0    0  0.00000000000E+00  0.00000000000E+00  0.99999998245E-14  0.12500000000E+03  0.12500000000E+03 0.  0.
        -13    1    3    3    0    0  0.46651788606E+02 -0.34276763260E+02  0.13309171724E+02  0.59400598446E+02  0.10566000000E+00 0. -1.
         23    2    1    0    0    0  0.25621452688E+02 -0.13960668048E+02 -0.69894933558E+01  0.94996465082E+02  0.90133879704E+02 0.  0.
         13    1    3    3    0    0 -0.21030335918E+02  0.20316095212E+02 -0.20298665080E+02  0.35595866636E+02  0.10566000000E+00 0.  1.
         22    1    1    0    0    0 -0.25621452688E+02  0.13960668048E+02  0.69894933558E+01  0.30003534918E+02  0.00000000000E+00 0. -1.
</event>
<event>
 5    1  0.6835419E-004  0.9118800E+02  0.7818608E-02  0.1130116E+00
         25   -1    0    0    0    0  0.00000000000E+00  0.00000000000E+00  0.99999998245E-14  0.12500000000E+03  0.12500000000E+03 0.  0.
        -13    1    3    3    0    0  0.59224707727E+02 -0.14589876705E+02 -0.85364198228E+01  0.61589870393E+02  0.10566000000E+00 0. -1.
         23    2    1    0    0    0  0.24772225132E+02 -0.13694773660E+02 -0.24378792715E+01  0.96589557925E+02  0.92316788729E+02 0.  0.
         13    1    3    3    0    0 -0.34452482595E+02  0.89510304580E+00  0.60985405513E+01  0.34999687532E+02  0.10566000000E+00 0.  1.
         22    1    1    0    0    0 -0.24772225132E+02  0.13694773660E+02  0.24378792715E+01  0.28410442075E+02  0.00000000000E+00 0. -1.
</event>
<event>
 5    1  0.6835419E-004  0.9118800E+02  0.7818608E-02  0.1130116E+00
         25   -1    0    0    0    0  0.00000000000E+00  0.00000000000E+00  0.99999998245E-14  0.12500000000E+03  0.12500000000E+03 0.  0.
        -13    1    3    3    0    0  0.22129884520E+02 -0.21775878091E+02  0.30856720004E+02  0.43772925296E+02  0.10566000000E+00 0.  1.
         23    2    1    0    0    0  0.25621762985E+02  0.85821659354E+01 -0.11192115006E+02  0.95752918968E+02  0.91176914523E+02 0.  0.
         13    1    3    3    0    0  0.34918784647E+01  0.30358044027E+02 -0.42048835010E+02  0.51979993672E+02  0.10566000000E+00 0. -1.
         22    1    1    0    0    0 -0.25621762985E+02 -0.85821659354E+01  0.11192115006E+02  0.29247081032E+02  0.00000000000E+00 0.  1.
</event>
<event>
 5    1  0.6835419E-004  0.9118800E+02  0.7818608E-02  0.1130116E+00
         25   -1    0    0    0    0  0.00000000000E+00  0.00000000000E+00  0.99999998245E-14  0.12500000000E+03  0.12500000000E+03 0.  0.
        -13    1    3    3    0    0 -0.47147515383E+02  0.91871739927E+01  0.19475734809E+02  0.51832497365E+02  0.10566000000E+00 0.  1.
         23    2    1    0    0    0 -0.29864358748E+02  0.59465975601E+01 -0.15389618484E+02  0.90881349630E+02  0.84233825792E+02 0.  0.
         13    1    3    3    0    0  0.17283156634E+02 -0.32405764326E+01 -0.34865353294E+02  0.39048852265E+02  0.10566000000E+00 0. -1.
         22    1    1    0    0    0  0.29864358748E+02 -0.59465975601E+01  0.15389618484E+02  0.34118650370E+02  0.00000000000E+00 0.  1.
</event>
<event>
 5    1  0.6835419E-004  0.9118800E+02  0.7818608E-02  0.1130116E+00
         25   -1    0    0    0    0  0.00000000000E+00  0.00000000000E+00  0.99999998245E-14  0.12500000000E+03  0.12500000000E+03 0.  0.
        -13    1    3    3    0    0  0.16111927450E+02 -0.18375052086E+02 -0.24969802892E+02  0.34939075057E+02  0.10566000000E+00 0.  1.
         23    2    1    0    0    0 -0.25105944072E+02  0.18476649965E+02 -0.10725835295E+02  0.92034281982E+02  0.85927705052E+02 0.  0.
         13    1    3    3    0    0 -0.41217871522E+02  0.36851702052E+02  0.14243967597E+02  0.57095206925E+02  0.10566000000E+00 0. -1.
         22    1    1    0    0    0  0.25105944072E+02 -0.18476649965E+02  0.10725835295E+02  0.32965718018E+02  0.00000000000E+00 0. -1.
</event>
<event>
 5    1  0.6835419E-004  0.9118800E+02  0.7818608E-02  0.1130116E+00
         25   -1    0    0    0    0  0.00000000000E+00  0.00000000000E+00  0.99999998245E-14  0.12500000000E+03  0.12500000000E+03 0.  0.
        -13    1    3    3    0    0 -0.36875985537E+02 -0.40631885578E+02 -0.15702710044E+02  0.57073415018E+02  0.10566000000E+00 0. -1.
         23    2    1    0    0    0 -0.28221374698E+02 -0.43441468693E+01 -0.40260471141E+01  0.96163796068E+02  0.91738481658E+02 0.  0.
         13    1    3    3    0    0  0.86546108394E+01  0.36287738709E+02  0.11676662930E+02  0.39090381050E+02  0.10566000000E+00 0.  1.
         22    1    1    0    0    0  0.28221374698E+02  0.43441468693E+01  0.40260471141E+01  0.28836203932E+02  0.00000000000E+00 0. -1.
</event>
<event>
 5    1  0.6835419E-004  0.9118800E+02  0.7818608E-02  0.1130116E+00
         25   -1    0    0    0    0  0.00000000000E+00  0.00000000000E+00  0.99999998245E-14  0.12500000000E+03  0.12500000000E+03 0.  0.
        -13    1    3    3    0    0  0.37482805184E+02  0.14502179225E+02  0.49887020988E+01  0.40499039487E+02  0.10566000000E+00 0.  1.
         23    2    1    0    0    0 -0.30555953535E+01 -0.14808540994E+02 -0.22737617010E+02  0.97693796005E+02  0.93800047981E+02 0.  0.
         13    1    3    3    0    0 -0.40538400537E+02 -0.29310720218E+02 -0.27726319109E+02  0.57194756518E+02  0.10566000000E+00 0. -1.
         22    1    1    0    0    0  0.30555953535E+01  0.14808540994E+02  0.22737617010E+02  0.27306203995E+02  0.00000000000E+00 0. -1.
</event>
<event>
 5    1  0.6835419E-004  0.9118800E+02  0.7818608E-02  0.1130116E+00
         25   -1    0    0    0    0  0.00000000000E+00  0.00000000000E+00  0.99999998245E-14  0.12500000000E+03  0.12500000000E+03 0.  0.
        -13    1    3    3    0    0  0.24989940770E+01 -0.48286987867E+02 -0.17105142172E+02  0.51288158686E+02  0.10566000000E+00 0. -1.
         23    2    1    0    0    0 -0.22402197947E+01 -0.22475873577E+02  0.18697058855E+02  0.95678276183E+02  0.91074524680E+02 0.  0.
         13    1    3    3    0    0 -0.47392138717E+01  0.25811114289E+02  0.35802201027E+02  0.44390117497E+02  0.10566000000E+00 0.  1.
         22    1    1    0    0    0  0.22402197947E+01  0.22475873577E+02 -0.18697058855E+02  0.29321723817E+02  0.00000000000E+00 0. -1.
</event>
<event>
 5    1  0.6835419E-004  0.9118800E+02  0.7818608E-02  0.1130116E+00
         25   -1    0    0    0    0  0.00000000000E+00  0.00000000000E+00  0.99999998245E-14  0.12500000000E+03  0.12500000000E+03 0.  0.
        -13    1    3    3    0    0  0.23329920250E+02 -0.54589931858E+02 -0.72581630066E+01  0.59808343342E+02  0.10566000000E+00 0.  1.
         23    2    1    0    0    0 -0.59987500302E+00 -0.24946566991E+02 -0.10251159027E+02  0.98022651797E+02  0.94237269428E+02 0.  0.
         13    1    3    3    0    0 -0.23929795253E+02  0.29643364867E+02 -0.29929960207E+01  0.38214308455E+02  0.10566000000E+00 0. -1.
         22    1    1    0    0    0  0.59987500302E+00  0.24946566991E+02  0.10251159027E+02  0.26977348203E+02  0.00000000000E+00 0.  1.
</event>
<event>
 5    1  0.6835419E-004  0.9118800E+02  0.7818608E-02  0.1130116E+00
         25   -1    0    0    0    0  0.00000000000E+00  0.00000000000E+00  0.99999998245E-14  0.12500000000E+03  0.12500000000E+03 0.  0.
        -13    1    3    3    0    0  0.25287508801E+02 -0.45661051472E+02  0.52163104557E+01  0.52455798361E+02  0.10566000000E+00 0.  1.
         23    2    1    0    0    0 -0.70558048119E+01 -0.21497552123E+02  0.19347060639E+02  0.95230252198E+02  0.90457520691E+02 0.  0.
         13    1    3    3    0    0 -0.32343313613E+02  0.24163499350E+02  0.14130750183E+02  0.42774453837E+02  0.10566000000E+00 0. -1.
         22    1    1    0    0    0  0.70558048119E+01  0.21497552123E+02 -0.19347060639E+02  0.29769747802E+02  0.00000000000E+00 0.  1.
</event>
<event>
 5    1  0.6835419E-004  0.9118800E+02  0.7818608E-02  0.1130116E+00
         25   -1    0    0    0    0  0.00000000000E+00  0.00000000000E+00  0.99999998245E-14  0.12500000000E+03  0.12500000000E+03 0.  0.
        -13    1    3    3    0    0 -0.21938666140E+02 -0.12824654268E+02 -0.24090946501E+02  0.35016591731E+02  0.10566000000E+00 0.  1.
         23    2    1    0    0    0 -0.40015021669E+01 -0.94438133866E+01  0.30628281044E+02  0.92700011910E+02  0.86890753119E+02 0.  0.
         13    1    3    3    0    0  0.17937163973E+02  0.33808408813E+01  0.54719227545E+02  0.57683420180E+02  0.10566000000E+00 0. -1.
         22    1    1    0    0    0  0.40015021669E+01  0.94438133866E+01 -0.30628281044E+02  0.32299988090E+02  0.00000000000E+00 0. -1.
</event>
<event>
 5    1  0.6835419E-004  0.9118800E+02  0.7818608E-02  0.1130116E+00
         25   -1    0    0    0    0  0.00000000000E+00  0.00000000000E+00  0.99999998245E-14  0.12500000000E+03  0.12500000000E+03 0.  0.
        -13    1    3    3    0    0 -0.80765555002E+00 -0.19592228981E+02  0.29593487170E+02  0.35500611133E+02  0.10566000000E+00 0. -1.
         23    2    1    0    0    0 -0.27787119674E+01  0.28765072231E+02 -0.58831780270E+01  0.95508265491E+02  0.90840884918E+02 0.  0.
         13    1    3    3    0    0 -0.19710564174E+01  0.48357301212E+02 -0.35476665197E+02  0.60007654357E+02  0.10566000000E+00 0.  1.
         22    1    1    0    0    0  0.27787119674E+01 -0.28765072231E+02  0.58831780270E+01  0.29491734509E+02  0.00000000000E+00 0.  1.
</event>
<event>
 5    1  0.6835419E-004  0.9118800E+02  0.7818608E-02  0.1130116E+00
         25   -1    0    0    0    0  0.00000000000E+00  0.00000000000E+00  0.99999998245E-14  0.12500000000E+03  0.12500000000E+03 0.  0.
        -13    1    3    3    0    0  0.17456962203E+02  0.23601764788E+02  0.17264926694E+02  0.34056977086E+02  0.10566000000E+00 0.  1.
         23    2    1    0    0    0 -0.49675998057E+01 -0.89308360755E+01 -0.28620103874E+02  0.94610080182E+02  0.89596428753E+02 0.  0.
         13    1    3    3    0    0 -0.22424562009E+02 -0.32532600863E+02 -0.45885030568E+02  0.60553103095E+02  0.10566000000E+00 0. -1.
         22    1    1    0    0    0  0.49675998057E+01  0.89308360755E+01  0.28620103874E+02  0.30389919818E+02  0.00000000000E+00 0. -1.
</event>
<event>
 5    1  0.6835419E-004  0.9118800E+02  0.7818608E-02  0.1130116E+00
         25   -1    0    0    0    0  0.00000000000E+00  0.00000000000E+00  0.99999998245E-14  0.12500000000E+03  0.12500000000E+03 0.  0.
        -13    1    3    3    0    0 -0.23567997217E+02  0.15628692307E+02 -0.34693856429E+02  0.44759148271E+02  0.10566000000E+00 0.  1.
         23    2    1    0    0    0  0.33505769728E+01 -0.23649343299E+02 -0.17517368515E+02  0.95379466510E+02  0.90663480120E+02 0.  0.
         13    1    3    3    0    0  0.26918574190E+02 -0.39278035606E+02  0.17176487914E+02  0.50620318239E+02  0.10566000000E+00 0. -1.
         22    1    1    0    0    0 -0.33505769728E+01  0.23649343299E+02  0.17517368515E+02  0.29620533490E+02  0.00000000000E+00 0.  1.
</event>
<event>
 5    1  0.6835419E-004  0.9118800E+02  0.7818608E-02  0.1130116E+00
         25   -1    0    0    0    0  0.00000000000E+00  0.00000000000E+00  0.99999998245E-14  0.12500000000E+03  0.12500000000E+03 0.  0.
        -13    1    3    3    0    0  0.58815547678E+02  0.91140420178E+00  0.18771444465E+02  0.61745263767E+02  0.10566000000E+00 0.  1.
         23    2    1    0    0    0  0.27154525434E+02 -0.63266501894E+01  0.74490492636E+01  0.96140286053E+02  0.91706442049E+02 0.  0.
         13    1    3    3    0    0 -0.31661022244E+02 -0.72380543912E+01 -0.11322395201E+02  0.34395022286E+02  0.10566000000E+00 0. -1.
         22    1    1    0    0    0 -0.27154525434E+02  0.63266501894E+01 -0.74490492636E+01  0.28859713947E+02  0.00000000000E+00 0.  1.
</event>
<event>
 5    1  0.6835419E-004  0.9118800E+02  0.7818608E-02  0.1130116E+00
         25   -1    0    0    0    0  0.00000000000E+00  0.00000000000E+00  0.99999998245E-14  0.12500000000E+03  0.12500000000E+03 0.  0.
        -13    1    3    3    0    0  0.21559733322E+02 -0.45826546734E+02  0.27346578996E+00  0.50645635884E+02  0.10566000000E+00 0.  1.
         23    2    1    0    0    0 -0.16982077338E+02 -0.23324920767E+02 -0.54400859182E+01  0.95639526327E+02  0.91021324874E+02 0.  0.
         13    1    3    3    0    0 -0.38541810660E+02  0.22501625967E+02 -0.57135517082E+01  0.44993890444E+02  0.10566000000E+00 0. -1.
         22    1    1    0    0    0  0.16982077338E+02  0.23324920767E+02  0.54400859182E+01  0.29360473673E+02  0.00000000000E+00 0.  1.
</event>
<event>
 5    1  0.6835419E-004  0.9118800E+02  0.7818608E-02  0.1130116E+00
         25   -1    0    0    0    0  0.00000000000E+00  0.00000000000E+00  0.99999998245E-14  0.12500000000E+03  0.12500000000E+03 0.  0.
        -13    1    3    3    0    0  0.14153389443E+02  0.74942392747E+01  0.45259783145E+02  0.48009803055E+02  0.10566000000E+00 0. -1.
         23    2    1    0    0    0 -0.23211811773E+02  0.80740795621E+01  0.14097594051E+02  0.96667666447E+02  0.92422489751E+02 0.  0.
         13    1    3    3    0    0 -0.37365201215E+02  0.57984028734E+00 -0.31162189095E+02  0.48657863392E+02  0.10566000000E+00 0.  1.
         22    1    1    0    0    0  0.23211811773E+02 -0.80740795621E+01 -0.14097594051E+02  0.28332333553E+02  0.00000000000E+00 0.  1.
</event>
<event>
 5    1  0.6835419E-004  0.9118800E+02  0.7818608E-02  0.1130116E+00
         25   -1    0    0    0    0  0.00000000000E+00  0.00000000000E+00  0.99999998245E-14  0.12500000000E+03  0.12500000000E+03 0.  0.
        -13    1    3    3    0    0 -0.24110880028E+02 -0.26201078317E+02 -0.35139207879E+02  0.50026054562E+02  0.10566000000E+00 0. -1.
         23    2    1    0    0    0  0.88319105805E+01  0.88300878026E+01 -0.21710748835E+02  0.99953449138E+02  0.96764468089E+02 0.  0.
         13    1    3    3    0    0  0.32942790609E+02  0.35031166119E+02  0.13428459043E+02  0.49927394576E+02  0.10566000000E+00 0.  1.
         22    1    1    0    0    0 -0.88319105805E+01 -0.88300878026E+01  0.21710748835E+02  0.25046550862E+02  0.00000000000E+00 0. -1.
</event>
<event>
 5    1  0.6835419E-004  0.9118800E+02  0.7818608E-02  0.1130116E+00
         25   -1    0    0    0    0  0.00000000000E+00  0.00000000000E+00  0.99999998245E-14  0.12500000000E+03  0.12500000000E+03 0.  0.
        -13    1    3    3    0    0 -0.12356952163E+02  0.32694488442E+02  0.89802833209E+01  0.36087123657E+02  0.10566000000E+00 0.  1.
         23    2    1    0    0    0 -0.25046558226E+00 -0.26830888540E+02  0.85697791247E+01  0.96832635425E+02  0.92645339096E+02 0.  0.
         13    1    3    3    0    0  0.12106486581E+02 -0.59525376982E+02 -0.41050419620E+00  0.60745511768E+02  0.10566000000E+00 0. -1.
         22    1    1    0    0    0  0.25046558226E+00  0.26830888540E+02 -0.85697791247E+01  0.28167364575E+02  0.00000000000E+00 0. -1.
</event>
<event>
 5    1  0.6835419E-004  0.9118800E+02  0.7818608E-02  0.1130116E+00
         25   -1    0    0    0    0  0.00000000000E+00  0.00000000000E+00  0.99999998245E-14  0.12500000000E+03  0.12500000000E+03 0.  0.
        -13    1    3    3    0    0 -0.12287737025E+02 -0.27722183917E+02 -0.15275189619E+02  0.33953652885E+02  0.10566000000E+00 0. -1.
         23    2    1    0    0    0  0.16161891173E+01  0.22481101212E+02  0.18332256373E+02  0.95946883081E+02  0.91442445124E+02 0.  0.
         13    1    3    3    0    0  0.13903926143E+02  0.50203285129E+02  0.33607445992E+02  0.61993230196E+02  0.10566000000E+00 0.  1.
         22    1    1    0    0    0 -0.16161891173E+01 -0.22481101212E+02 -0.18332256373E+02  0.29053116919E+02  0.00000000000E+00 0.  1.
</event>
<event>
 5    1  0.6835419E-004  0.9118800E+02  0.7818608E-02  0.1130116E+00
         25   -1    0    0    0    0  0.00000000000E+00  0.00000000000E+00  0.99999998245E-14  0.12500000000E+03  0.12500000000E+03 0.  0.
        -13    1    3    3    0    0  0.14395026990E+02 -0.25322592557E+02  0.54319284625E+02  0.61636404357E+02  0.10566000000E+00 0. -1.
         23    2    1    0    0    0  0.13552354491E+02 -0.92828842143E+01  0.24576408772E+02  0.95439246970E+02  0.90745863501E+02 0.  0.
         13    1    3    3    0    0 -0.84267249936E+00  0.16039708343E+02 -0.29742875853E+02  0.33802842613E+02  0.10566000000E+00 0.  1.
         22    1    1    0    0    0 -0.13552354491E+02  0.92828842143E+01 -0.24576408772E+02  0.29560753030E+02  0.00000000000E+00 0. -1.
</event>
<event>
 5    1  0.6835419E-004  0.9118800E+02  0.7818608E-02  0.1130116E+00
         25   -1    0    0    0    0  0.00000000000E+00  0.00000000000E+00  0.99999998245E-14  0.12500000000E+03  0.12500000000E+03 0.  0.
        -13    1    3    3    0    0  0.15136540536E+02  0.15354460116E+02  0.33549927150E+02  0.39880861082E+02  0.10566000000E+00 0.  1.
         23    2    1    0    0    0 -0.28174538415E+02 -0.63260713551E+01  0.63364947258E+01  0.95436932515E+02  0.90742675346E+02 0.  0.
         13    1    3    3    0    0 -0.43311078951E+02 -0.21680531471E+02 -0.27213432425E+02  0.55556071433E+02  0.10566000000E+00 0. -1.
         22    1    1    0    0    0  0.28174538415E+02  0.63260713551E+01 -0.63364947258E+01  0.29563067485E+02  0.00000000000E+00 0. -1.
</event>
<event>
 5    1  0.6835419E-004  0.9118800E+02  0.7818608E-02  0.1130116E+00
         25   -1    0    0    0    0  0.00000000000E+00  0.00000000000E+00  0.99999998245E-14  0.12500000000E+03  0.12500000000E+03 0.  0.
        -13    1    3    3    0    0  0.12529413870E+02 -0.33536314886E+02 -0.38737342435E+01  0.36009548860E+02  0.10566000000E+00 0.  1.
         23    2    1    0    0    0 -0.21214216011E+02  0.94793035259E+01  0.18715682128E+02  0.95164167285E+02  0.90366154179E+02 0.  0.
         13    1    3    3    0    0 -0.33743629881E+02  0.43015618412E+02  0.22589416372E+02  0.59154618425E+02  0.10566000000E+00 0. -1.
         22    1    1    0    0    0  0.21214216011E+02 -0.94793035259E+01 -0.18715682128E+02  0.29835832715E+02  0.00000000000E+00 0. -1.
</event>
<event>
 5    1  0.6835419E-004  0.9118800E+02  0.7818608E-02  0.1130116E+00
         25   -1    0    0    0    0  0.00000000000E+00  0.00000000000E+00  0.99999998245E-14  0.12500000000E+03  0.12500000000E+03 0.  0.
        -13    1    3    3    0    0  0.20235607287E+02  0.53399449261E+02  0.18365048626E+02  0.59985557918E+02  0.10566000000E+00 0.  1.
         23    2    1    0    0    0 -0.26405353583E+01  0.28232815106E+02  0.84832529731E+01  0.95402198447E+02  0.90694815793E+02 0.  0.
         13    1    3    3    0    0 -0.22876142646E+02 -0.25166634155E+02 -0.98817956529E+01  0.35416640529E+02  0.10566000000E+00 0. -1.
         22    1    1    0    0    0  0.26405353583E+01 -0.28232815106E+02 -0.84832529731E+01  0.29597801553E+02  0.00000000000E+00 0.  1.
</event>
<event>
 5    1  0.6835419E-004  0.9118800E+02  0.7818608E-02  0.1130116E+00
         25   -1    0    0    0    0  0.00000000000E+00  0.00000000000E+00  0.99999998245E-14  0.12500000000E+03  0.12500000000E+03 0.  0.
        -13    1    3    3    0    0 -0.19459289225E+02 -0.43782039423E+02  0.38632228353E+00  0.47913373103E+02  0.10566000000E+00 0. -1.
         23    2    1    0    0    0 -0.13466525002E+02 -0.91301958466E+01 -0.27670504946E+02  0.92900706926E+02  0.87178992490E+02 0.  0.
         13    1    3    3    0    0  0.59927642235E+01  0.34651843576E+02 -0.28056827230E+02  0.44987333823E+02  0.10566000000E+00 0.  1.
         22    1    1    0    0    0  0.13466525002E+02  0.91301958466E+01  0.27670504946E+02  0.32099293074E+02  0.00000000000E+00 0. -1.
</event>
<event>
 5    1  0.6835419E-004  0.9118800E+02  0.7818608E-02  0.1130116E+00
         25   -1    0    0    0    0  0.00000000000E+00  0.00000000000E+00  0.99999998245E-14  0.12500000000E+03  0.12500000000E+03 0.  0.
        -13    1    3    3    0    0 -0.35572328733E+02  0.23327799458E+02  0.12898653485E+02  0.44451807891E+02  0.10566000000E+00 0. -1.
         23    2    1    0    0    0  0.15113503066E+02  0.24258957347E+02  0.76171655850E+01  0.95420679554E+02  0.90720283777E+02 0.  0.
         13    1    3    3    0    0  0.50685831798E+02  0.93115788945E+00 -0.52814879005E+01  0.50968871663E+02  0.10566000000E+00 0.  1.
         22    1    1    0    0    0 -0.15113503066E+02 -0.24258957347E+02 -0.76171655850E+01  0.29579320446E+02  0.00000000000E+00 0.  1.
</event>
<event>
 4    1  0.6835419E-004  0.9118800E+02  0.7818608E-02  0.1130116E+00
         25   -1    0    0    0    0  0.00000000000E+00  0.00000000000E+00  0.99999998245E-14  0.12500000000E+03  0.12500000000E+03 0.  0.
        -13    1    1    0    0    0  0.26661077492E+02 -0.11964128395E+02  0.20650640299E+02  0.35782866432E+02  0.10566000000E+00 0. -1.
         13    1    1    0    0    0 -0.13932618251E+01  0.26033181504E+01  0.30904176572E+02  0.31045092004E+02  0.10566000000E+00 0.  1.
         22    1    1    0    0    0 -0.25267815667E+02  0.93608102450E+01 -0.51554816871E+02  0.58172041564E+02  0.00000000000E+00 0.  1.
</event>
<event>
 5    1  0.6835419E-004  0.9118800E+02  0.7818608E-02  0.1130116E+00
         25   -1    0    0    0    0  0.00000000000E+00  0.00000000000E+00  0.99999998245E-14  0.12500000000E+03  0.12500000000E+03 0.  0.
        -13    1    3    3    0    0  0.16957844682E+02 -0.13684368277E+02  0.32475465068E+02  0.39108789636E+02  0.10566000000E+00 0. -1.
         23    2    1    0    0    0 -0.21160253566E+02  0.19172758795E+02  0.66144511995E+01  0.95689558593E+02  0.91090008499E+02 0.  0.
         13    1    3    3    0    0 -0.38118098248E+02  0.32857127072E+02 -0.25861013868E+02  0.56580768957E+02  0.10566000000E+00 0.  1.
         22    1    1    0    0    0  0.21160253566E+02 -0.19172758795E+02 -0.66144511995E+01  0.29310441407E+02  0.00000000000E+00 0.  1.
</event>
<event>
 5    1  0.6835419E-004  0.9118800E+02  0.7818608E-02  0.1130116E+00
         25   -1    0    0    0    0  0.00000000000E+00  0.00000000000E+00  0.99999998245E-14  0.12500000000E+03  0.12500000000E+03 0.  0.
        -13    1    3    3    0    0  0.39753337437E+02  0.71252558861E+01 -0.32192607049E+02  0.51647577112E+02  0.10566000000E+00 0. -1.
         23    2    1    0    0    0  0.16638154036E+02 -0.22357617800E+02 -0.89815116727E+01  0.95719310197E+02  0.91130826558E+02 0.  0.
         13    1    3    3    0    0 -0.23115183401E+02 -0.29482873687E+02  0.23211095377E+02  0.44071733085E+02  0.10566000000E+00 0.  1.
         22    1    1    0    0    0 -0.16638154036E+02  0.22357617800E+02  0.89815116727E+01  0.29280689803E+02  0.00000000000E+00 0. -1.
</event>
<event>
 5    1  0.6835419E-004  0.9118800E+02  0.7818608E-02  0.1130116E+00
         25   -1    0    0    0    0  0.00000000000E+00  0.00000000000E+00  0.99999998245E-14  0.12500000000E+03  0.12500000000E+03 0.  0.
        -13    1    3    3    0    0  0.25362749960E+02  0.95379611127E+01 -0.21804399522E+02  0.34780523146E+02  0.10566000000E+00 0. -1.
         23    2    1    0    0    0 -0.26379682030E+02  0.42101127715E+01  0.10817040464E+02  0.96179503162E+02  0.91759881160E+02 0.  0.
         13    1    3    3    0    0 -0.51742431991E+02 -0.53278483412E+01  0.32621439986E+02  0.61398980016E+02  0.10566000000E+00 0.  1.
         22    1    1    0    0    0  0.26379682030E+02 -0.42101127715E+01 -0.10817040464E+02  0.28820496838E+02  0.00000000000E+00 0.  1.
</event>
<event>
 5    1  0.6835419E-004  0.9118800E+02  0.7818608E-02  0.1130116E+00
         25   -1    0    0    0    0  0.00000000000E+00  0.00000000000E+00  0.99999998245E-14  0.12500000000E+03  0.12500000000E+03 0.  0.
        -13    1    3    3    0    0  0.32980258710E+02  0.29153419267E+02 -0.18701743587E+02  0.47826621214E+02  0.10566000000E+00 0. -1.
         23    2    1    0    0    0  0.26487103494E+02 -0.55031228172E+01  0.12766216388E+02  0.95086336013E+02  0.90258428988E+02 0.  0.
         13    1    3    3    0    0 -0.64931552163E+01 -0.34656542084E+02  0.31467959975E+02  0.47259714799E+02  0.10566000000E+00 0.  1.
         22    1    1    0    0    0 -0.26487103494E+02  0.55031228172E+01 -0.12766216388E+02  0.29913663987E+02  0.00000000000E+00 0.  1.
</event>
<event>
 5    1  0.6835419E-004  0.9118800E+02  0.7818608E-02  0.1130116E+00
         25   -1    0    0    0    0  0.00000000000E+00  0.00000000000E+00  0.99999998245E-14  0.12500000000E+03  0.12500000000E+03 0.  0.
        -13    1    3    3    0    0  0.45925533234E+02  0.71136587413E+01  0.16711422963E+02  0.49386653713E+02  0.10566000000E+00 0. -1.
         23    2    1    0    0    0  0.16774311325E+02  0.11188520592E+02 -0.20106817554E+02  0.96524666364E+02  0.92228881545E+02 0.  0.
         13    1    3    3    0    0 -0.29151221909E+02  0.40748618509E+01 -0.36818240517E+02  0.47138012651E+02  0.10566000000E+00 0.  1.
         22    1    1    0    0    0 -0.16774311325E+02 -0.11188520592E+02  0.20106817554E+02  0.28475333636E+02  0.00000000000E+00 0. -1.
</event>
<event>
 5    1  0.6835419E-004  0.9118800E+02  0.7818608E-02  0.1130116E+00
         25   -1    0    0    0    0  0.00000000000E+00  0.00000000000E+00  0.99999998245E-14  0.12500000000E+03  0.12500000000E+03 0.  0.
        -13    1    3    3    0    0  0.48536874094E+02 -0.26853303729E+01 -0.24388005393E+02  0.54385890791E+02  0.10566000000E+00 0. -1.
         23    2    1    0    0    0  0.78938257688E+01 -0.85111105224E+01 -0.27084262647E+02  0.95532920560E+02  0.90874804759E+02 0.  0.
         13    1    3    3    0    0 -0.40643048326E+02 -0.58257801495E+01 -0.26962572544E+01  0.41147029768E+02  0.10566000000E+00 0.  1.
         22    1    1    0    0    0 -0.78938257688E+01  0.85111105224E+01  0.27084262647E+02  0.29467079440E+02  0.00000000000E+00 0. -1.
</event>
<event>
 5    1  0.6835419E-004  0.9118800E+02  0.7818608E-02  0.1130116E+00
         25   -1    0    0    0    0  0.00000000000E+00  0.00000000000E+00  0.99999998245E-14  0.12500000000E+03  0.12500000000E+03 0.  0.
        -13    1    3    3    0    0 -0.15957071973E+02  0.44349239138E+00  0.28740142355E+02  0.32876006115E+02  0.10566000000E+00 0.  1.
         23    2    1    0    0    0  0.51746200378E+01  0.14260723196E+02 -0.26978743709E+02  0.94048464808E+02  0.88809437573E+02 0.  0.
         13    1    3    3    0    0  0.21131692011E+02  0.13817230805E+02 -0.55718886064E+02  0.61172458693E+02  0.10566000000E+00 0. -1.
         22    1    1    0    0    0 -0.51746200378E+01 -0.14260723196E+02  0.26978743709E+02  0.30951535192E+02  0.00000000000E+00 0. -1.
</event>
<event>
 5    1  0.6835419E-004  0.9118800E+02  0.7818608E-02  0.1130116E+00
         25   -1    0    0    0    0  0.00000000000E+00  0.00000000000E+00  0.99999998245E-14  0.12500000000E+03  0.12500000000E+03 0.  0.
        -13    1    3    3    0    0  0.41949210345E+02 -0.15789373413E+02  0.29424000255E+02  0.53617380730E+02  0.10566000000E+00 0.  1.
         23    2    1    0    0    0  0.27368498208E+02  0.10647702823E+02  0.20512791314E+00  0.95632495050E+02  0.91011668276E+02 0.  0.
         13    1    3    3    0    0 -0.14580712137E+02  0.26437076236E+02 -0.29218872342E+02  0.42015114320E+02  0.10566000000E+00 0. -1.
         22    1    1    0    0    0 -0.27368498208E+02 -0.10647702823E+02 -0.20512791314E+00  0.29367504950E+02  0.00000000000E+00 0.  1.
</event>
<event>
 5    1  0.6835419E-004  0.9118800E+02  0.7818608E-02  0.1130116E+00
         25   -1    0    0    0    0  0.00000000000E+00  0.00000000000E+00  0.99999998245E-14  0.12500000000E+03  0.12500000000E+03 0.  0.
        -13    1    3    3    0    0  0.29967312654E+02 -0.22484107483E+01 -0.23463250446E+02  0.38126506058E+02  0.10566000000E+00 0.  1.
         23    2    1    0    0    0 -0.22986388529E+01  0.22624683067E+02  0.17806006070E+02  0.96117239111E+02  0.91675022649E+02 0.  0.
         13    1    3    3    0    0 -0.32265951507E+02  0.24873093815E+02  0.41269256516E+02  0.57990733053E+02  0.10566000000E+00 0. -1.
         22    1    1    0    0    0  0.22986388529E+01 -0.22624683067E+02 -0.17806006070E+02  0.28882760889E+02  0.00000000000E+00 0. -1.
</event>
<event>
 5    1  0.6835419E-004  0.9118800E+02  0.7818608E-02  0.1130116E+00
         25   -1    0    0    0    0  0.00000000000E+00  0.00000000000E+00  0.99999998245E-14  0.12500000000E+03  0.12500000000E+03 0.  0.
        -13    1    3    3    0    0  0.27555822195E+02  0.17411210506E+02  0.18478361340E+02  0.37469115148E+02  0.10566000000E+00 0.  1.
         23    2    1    0    0    0 -0.22369092396E+02  0.26386982260E+02  0.42840902097E+01  0.90143113215E+02  0.83131091078E+02 0.  0.
         13    1    3    3    0    0 -0.49924914590E+02  0.89757717540E+01 -0.14194271131E+02  0.52673998067E+02  0.10566000000E+00 0. -1.
         22    1    1    0    0    0  0.22369092396E+02 -0.26386982260E+02 -0.42840902097E+01  0.34856886785E+02  0.00000000000E+00 0. -1.
</event>
<event>
 5    1  0.6835419E-004  0.9118800E+02  0.7818608E-02  0.1130116E+00
         25   -1    0    0    0    0  0.00000000000E+00  0.00000000000E+00  0.99999998245E-14  0.12500000000E+03  0.12500000000E+03 0.  0.
        -13    1    3    3    0    0  0.11080378144E+02 -0.39981217363E+02 -0.20710745112E+02  0.46370450168E+02  0.10566000000E+00 0.  1.
         23    2    1    0    0    0  0.22466940388E+02 -0.15679885253E+02  0.17075328271E+02  0.92717047107E+02  0.86915256295E+02 0.  0.
         13    1    3    3    0    0  0.11386562243E+02  0.24301332110E+02  0.37786073384E+02  0.46346596939E+02  0.10566000000E+00 0. -1.
         22    1    1    0    0    0 -0.22466940388E+02  0.15679885253E+02 -0.17075328271E+02  0.32282952893E+02  0.00000000000E+00 0. -1.
</event>
<event>
 5    1  0.6835419E-004  0.9118800E+02  0.7818608E-02  0.1130116E+00
         25   -1    0    0    0    0  0.00000000000E+00  0.00000000000E+00  0.99999998245E-14  0.12500000000E+03  0.12500000000E+03 0.  0.
        -13    1    3    3    0    0  0.28066296753E+02 -0.17457894952E+02 -0.44669349550E+02  0.55568489838E+02  0.10566000000E+00 0. -1.
         23    2    1    0    0    0  0.16471657566E+02 -0.23481160631E+02 -0.69489775046E+01  0.95487821228E+02  0.90812748592E+02 0.  0.
         13    1    3    3    0    0 -0.11594639187E+02 -0.60232656790E+01  0.37720372046E+02  0.39919331390E+02  0.10566000000E+00 0.  1.
         22    1    1    0    0    0 -0.16471657566E+02  0.23481160631E+02  0.69489775046E+01  0.29512178772E+02  0.00000000000E+00 0.  1.
</event>
<event>
 5    1  0.6835419E-004  0.9118800E+02  0.7818608E-02  0.1130116E+00
         25   -1    0    0    0    0  0.00000000000E+00  0.00000000000E+00  0.99999998245E-14  0.12500000000E+03  0.12500000000E+03 0.  0.
        -13    1    3    3    0    0 -0.15374041821E+02 -0.32380215315E+02 -0.11376251937E+02  0.37606778351E+02  0.10566000000E+00 0. -1.
         23    2    1    0    0    0  0.25795946709E+02  0.98801244944E+01 -0.26120740543E+01  0.97253456837E+02  0.93211395276E+02 0.  0.
         13    1    3    3    0    0  0.41169988530E+02  0.42260339810E+02  0.87641778822E+01  0.59646678486E+02  0.10566000000E+00 0.  1.
         22    1    1    0    0    0 -0.25795946709E+02 -0.98801244944E+01  0.26120740543E+01  0.27746543163E+02  0.00000000000E+00 0.  1.
</event>
<event>
 5    1  0.6835419E-004  0.9118800E+02  0.7818608E-02  0.1130116E+00
         25   -1    0    0    0    0  0.00000000000E+00  0.00000000000E+00  0.99999998245E-14  0.12500000000E+03  0.12500000000E+03 0.  0.
        -13    1    3    3    0    0  0.59660954144E+02  0.49629485809E+00 -0.66604114346E+01  0.60033723877E+02  0.10566000000E+00 0. -1.
         23    2    1    0    0    0  0.24822677744E+02  0.54864453523E+01 -0.13990183262E+02  0.95982907784E+02  0.91491676922E+02 0.  0.
         13    1    3    3    0    0 -0.34838276400E+02  0.49901504942E+01 -0.73297718269E+01  0.35949183907E+02  0.10566000000E+00 0.  1.
         22    1    1    0    0    0 -0.24822677744E+02 -0.54864453523E+01  0.13990183262E+02  0.29017092216E+02  0.00000000000E+00 0. -1.
</event>
<event>
 5    1  0.6835419E-004  0.9118800E+02  0.7818608E-02  0.1130116E+00
         25   -1    0    0    0    0  0.00000000000E+00  0.00000000000E+00  0.99999998245E-14  0.12500000000E+03  0.12500000000E+03 0.  0.
        -13    1    3    3    0    0 -0.51001993786E+02  0.16217251954E+02  0.13776509904E+01  0.53536078651E+02  0.10566000000E+00 0.  1.
         23    2    1    0    0    0 -0.12079965680E+02  0.42127927474E+01  0.22272829801E+02  0.99314359247E+02  0.95935341828E+02 0.  0.
         13    1    3    3    0    0  0.38922028106E+02 -0.12004459207E+02  0.20895178810E+02  0.45778280595E+02  0.10566000000E+00 0. -1.
         22    1    1    0    0    0  0.12079965680E+02 -0.42127927474E+01 -0.22272829801E+02  0.25685640753E+02  0.00000000000E+00 0.  1.
</event>
<event>
 5    1  0.6835419E-004  0.9118800E+02  0.7818608E-02  0.1130116E+00
         25   -1    0    0    0    0  0.00000000000E+00  0.00000000000E+00  0.99999998245E-14  0.12500000000E+03  0.12500000000E+03 0.  0.
        -13    1    3    3    0    0 -0.26166976712E+02  0.27062767813E+02  0.23707775133E+02  0.44487906646E+02  0.10566000000E+00 0.  1.
         23    2    1    0    0    0  0.14314886525E+02  0.18224935174E+02 -0.11743732823E+02  0.99019632432E+02  0.95550552631E+02 0.  0.
         13    1    3    3    0    0  0.40481863237E+02 -0.88378326388E+01 -0.35451507956E+02  0.54531725786E+02  0.10566000000E+00 0. -1.
         22    1    1    0    0    0 -0.14314886525E+02 -0.18224935174E+02  0.11743732823E+02  0.25980367568E+02  0.00000000000E+00 0. -1.
</event>
<event>
 5    1  0.6835419E-004  0.9118800E+02  0.7818608E-02  0.1130116E+00
         25   -1    0    0    0    0  0.00000000000E+00  0.00000000000E+00  0.99999998245E-14  0.12500000000E+03  0.12500000000E+03 0.  0.
        -13    1    3    3    0    0 -0.49547495029E+02  0.22737187250E+02 -0.25442702518E+01  0.54574888208E+02  0.10566000000E+00 0. -1.
         23    2    1    0    0    0 -0.10210668985E+02  0.28605873330E+02  0.17358866359E+01  0.94576866491E+02  0.89550078853E+02 0.  0.
         13    1    3    3    0    0  0.39336826044E+02  0.58686860804E+01  0.42801568878E+01  0.40001978283E+02  0.10566000000E+00 0.  1.
         22    1    1    0    0    0  0.10210668985E+02 -0.28605873330E+02 -0.17358866359E+01  0.30423133509E+02  0.00000000000E+00 0. -1.
</event>
<event>
 5    1  0.6835419E-004  0.9118800E+02  0.7818608E-02  0.1130116E+00
         25   -1    0    0    0    0  0.00000000000E+00  0.00000000000E+00  0.99999998245E-14  0.12500000000E+03  0.12500000000E+03 0.  0.
        -13    1    3    3    0    0  0.15648892465E+02 -0.27248284121E+02  0.35019073564E+02  0.47050010629E+02  0.10566000000E+00 0.  1.
         23    2    1    0    0    0  0.23740073347E+02 -0.12030269049E+02 -0.11008544324E+02  0.96198845439E+02  0.91786226417E+02 0.  0.
         13    1    3    3    0    0  0.80911808821E+01  0.15218015072E+02 -0.46027617887E+02  0.49148834810E+02  0.10566000000E+00 0. -1.
         22    1    1    0    0    0 -0.23740073347E+02  0.12030269049E+02  0.11008544324E+02  0.28801154561E+02  0.00000000000E+00 0. -1.
</event>
<event>
 5    1  0.6835419E-004  0.9118800E+02  0.7818608E-02  0.1130116E+00
         25   -1    0    0    0    0  0.00000000000E+00  0.00000000000E+00  0.99999998245E-14  0.12500000000E+03  0.12500000000E+03 0.  0.
        -13    1    3    3    0    0  0.13465588065E+02 -0.33469358960E+02  0.65353418253E+01  0.36663904701E+02  0.10566000000E+00 0.  1.
         23    2    1    0    0    0  0.20021045951E+02  0.20872943707E+02 -0.10871750046E+02  0.94101504745E+02  0.88884060360E+02 0.  0.
         13    1    3    3    0    0  0.65554578867E+01  0.54342302667E+02 -0.17407091871E+02  0.57437600043E+02  0.10566000000E+00 0. -1.
         22    1    1    0    0    0 -0.20021045951E+02 -0.20872943707E+02  0.10871750046E+02  0.30898495255E+02  0.00000000000E+00 0. -1.
</event>
<event>
 5    1  0.6835419E-004  0.9118800E+02  0.7818608E-02  0.1130116E+00
         25   -1    0    0    0    0  0.00000000000E+00  0.00000000000E+00  0.99999998245E-14  0.12500000000E+03  0.12500000000E+03 0.  0.
        -13    1    3    3    0    0  0.37735953320E+02 -0.44905692003E+02 -0.18726542977E+02  0.61572866777E+02  0.10566000000E+00 0.  1.
         23    2    1    0    0    0  0.20056666836E+02 -0.12715969824E+02 -0.53625348660E+01  0.10065410603E+03  0.97665380289E+02 0.  0.
         13    1    3    3    0    0 -0.17679286484E+02  0.32189722179E+02  0.13364008111E+02  0.39081239251E+02  0.10566000000E+00 0. -1.
         22    1    1    0    0    0 -0.20056666836E+02  0.12715969824E+02  0.53625348660E+01  0.24345893972E+02  0.00000000000E+00 0.  1.
</event>
<event>
 5    1  0.6835419E-004  0.9118800E+02  0.7818608E-02  0.1130116E+00
         25   -1    0    0    0    0  0.00000000000E+00  0.00000000000E+00  0.99999998245E-14  0.12500000000E+03  0.12500000000E+03 0.  0.
        -13    1    3    3    0    0  0.70769605535E+01 -0.53477518481E+02 -0.70550021626E+01  0.54403240465E+02  0.10566000000E+00 0. -1.
         23    2    1    0    0    0  0.35360010642E+01 -0.22590085509E+02  0.19236201586E+02  0.95119459203E+02  0.90304290047E+02 0.  0.
         13    1    3    3    0    0 -0.35409594893E+01  0.30887432972E+02  0.26291203749E+02  0.40716218738E+02  0.10566000000E+00 0.  1.
         22    1    1    0    0    0 -0.35360010642E+01  0.22590085509E+02 -0.19236201586E+02  0.29880540797E+02  0.00000000000E+00 0. -1.
</event>
<event>
 5    1  0.6835419E-004  0.9118800E+02  0.7818608E-02  0.1130116E+00
         25   -1    0    0    0    0  0.00000000000E+00  0.00000000000E+00  0.99999998245E-14  0.12500000000E+03  0.12500000000E+03 0.  0.
        -13    1    3    3    0    0 -0.13253366327E+02  0.52721302601E+01 -0.31381294921E+02  0.34470913992E+02  0.10566000000E+00 0.  1.
         23    2    1    0    0    0 -0.10655655961E+02  0.89207344454E+01  0.27852077263E+02  0.93873472489E+02  0.88562791975E+02 0.  0.
         13    1    3    3    0    0  0.25977103660E+01  0.36486041853E+01  0.59233372184E+02  0.59402558497E+02  0.10566000000E+00 0. -1.
         22    1    1    0    0    0  0.10655655961E+02 -0.89207344454E+01 -0.27852077263E+02  0.31126527511E+02  0.00000000000E+00 0. -1.
</event>
<event>
 5    1  0.6835419E-004  0.9118800E+02  0.7818608E-02  0.1130116E+00
         25   -1    0    0    0    0  0.00000000000E+00  0.00000000000E+00  0.99999998245E-14  0.12500000000E+03  0.12500000000E+03 0.  0.
        -13    1    3    3    0    0  0.26230930875E+02 -0.31849695249E+02 -0.10388314100E+02  0.42548713916E+02  0.10566000000E+00 0. -1.
         23    2    1    0    0    0  0.18436781874E+02  0.42990795556E+01  0.24938090278E+02  0.93690171549E+02  0.88303696906E+02 0.  0.
         13    1    3    3    0    0 -0.77941490004E+01  0.36148774805E+02  0.35326404379E+02  0.51141457633E+02  0.10566000000E+00 0.  1.
         22    1    1    0    0    0 -0.18436781874E+02 -0.42990795556E+01 -0.24938090278E+02  0.31309828451E+02  0.00000000000E+00 0.  1.
</event>
<event>
 5    1  0.6835419E-004  0.9118800E+02  0.7818608E-02  0.1130116E+00
         25   -1    0    0    0    0  0.00000000000E+00  0.00000000000E+00  0.99999998245E-14  0.12500000000E+03  0.12500000000E+03 0.  0.
        -13    1    3    3    0    0  0.32516357807E+02  0.20418805298E+02 -0.44831585978E+02  0.59026463558E+02  0.10566000000E+00 0.  1.
         23    2    1    0    0    0  0.26694044072E+02  0.72674334807E+01 -0.12050994841E+02  0.94823617596E+02  0.89893850730E+02 0.  0.
         13    1    3    3    0    0 -0.58223137348E+01 -0.13151371817E+02  0.32780591137E+02  0.35797154038E+02  0.10566000000E+00 0. -1.
         22    1    1    0    0    0 -0.26694044072E+02 -0.72674334807E+01  0.12050994841E+02  0.30176382404E+02  0.00000000000E+00 0.  1.
</event>
<event>
 5    1  0.6835419E-004  0.9118800E+02  0.7818608E-02  0.1130116E+00
         25   -1    0    0    0    0  0.00000000000E+00  0.00000000000E+00  0.99999998245E-14  0.12500000000E+03  0.12500000000E+03 0.  0.
        -13    1    3    3    0    0 -0.32550392421E+02 -0.40052194328E+01  0.79096121726E+01  0.33736374408E+02  0.10566000000E+00 0. -1.
         23    2    1    0    0    0  0.14941783202E+02 -0.30544940635E+02 -0.72883283758E+01  0.90224002327E+02  0.83252631080E+02 0.  0.
         13    1    3    3    0    0  0.47492175623E+02 -0.26539721202E+02 -0.15197940548E+02  0.56487627919E+02  0.10566000000E+00 0.  1.
         22    1    1    0    0    0 -0.14941783202E+02  0.30544940635E+02  0.72883283758E+01  0.34775997673E+02  0.00000000000E+00 0.  1.
</event>
<event>
 5    1  0.6835419E-004  0.9118800E+02  0.7818608E-02  0.1130116E+00
         25   -1    0    0    0    0  0.00000000000E+00  0.00000000000E+00  0.99999998245E-14  0.12500000000E+03  0.12500000000E+03 0.  0.
        -13    1    3    3    0    0 -0.37233884139E+02  0.37348058999E+02  0.21969097749E+02  0.57130482748E+02  0.10566000000E+00 0.  1.
         23    2    1    0    0    0 -0.16670774506E+02  0.50881050053E+01  0.23881031326E+02  0.95434696140E+02  0.90739594637E+02 0.  0.
         13    1    3    3    0    0  0.20563109634E+02 -0.32259953994E+02  0.19119335769E+01  0.38304213391E+02  0.10566000000E+00 0. -1.
         22    1    1    0    0    0  0.16670774506E+02 -0.50881050053E+01 -0.23881031326E+02  0.29565303860E+02  0.00000000000E+00 0.  1.
</event>
<event>
 5    1  0.6835419E-004  0.9118800E+02  0.7818608E-02  0.1130116E+00
         25   -1    0    0    0    0  0.00000000000E+00  0.00000000000E+00  0.99999998245E-14  0.12500000000E+03  0.12500000000E+03 0.  0.
        -13    1    3    3    0    0 -0.18384058666E+02  0.10775689418E+02  0.21023695052E+02  0.29934862838E+02  0.10566000000E+00 0.  1.
         23    2    1    0    0    0  0.10885619742E-02 -0.21366170615E+01 -0.34812748641E+02  0.90121746007E+02  0.83098956081E+02 0.  0.
         13    1    3    3    0    0  0.18385147228E+02 -0.12912306480E+02 -0.55836443693E+02  0.60186883169E+02  0.10566000000E+00 0. -1.
         22    1    1    0    0    0 -0.10885619742E-02  0.21366170615E+01  0.34812748641E+02  0.34878253993E+02  0.00000000000E+00 0. -1.
</event>
<event>
 5    1  0.6835419E-004  0.9118800E+02  0.7818608E-02  0.1130116E+00
         25   -1    0    0    0    0  0.00000000000E+00  0.00000000000E+00  0.99999998245E-14  0.12500000000E+03  0.12500000000E+03 0.  0.
        -13    1    3    3    0    0  0.26394620679E+02  0.45613322373E+02  0.72764433403E+01  0.53199708368E+02  0.10566000000E+00 0.  1.
         23    2    1    0    0    0 -0.10751345983E+02  0.27054378304E+02 -0.22434150704E+01  0.95801305901E+02  0.91243227011E+02 0.  0.
         13    1    3    3    0    0 -0.37145966662E+02 -0.18558944069E+02 -0.95198584107E+01  0.42601597534E+02  0.10566000000E+00 0. -1.
         22    1    1    0    0    0  0.10751345983E+02 -0.27054378304E+02  0.22434150704E+01  0.29198694099E+02  0.00000000000E+00 0.  1.
</event>
<event>
 5    1  0.6835419E-004  0.9118800E+02  0.7818608E-02  0.1130116E+00
         25   -1    0    0    0    0  0.00000000000E+00  0.00000000000E+00  0.99999998245E-14  0.12500000000E+03  0.12500000000E+03 0.  0.
        -13    1    3    3    0    0  0.36623981652E+02  0.19634279079E+02 -0.31833975914E+02  0.52347245711E+02  0.10566000000E+00 0. -1.
         23    2    1    0    0    0 -0.50524353890E+01  0.14072437760E+02 -0.26287804759E+02  0.94757492053E+02  0.89801854175E+02 0.  0.
         13    1    3    3    0    0 -0.41676417041E+02 -0.55618413184E+01  0.55461711549E+01  0.42410246342E+02  0.10566000000E+00 0.  1.
         22    1    1    0    0    0  0.50524353890E+01 -0.14072437760E+02  0.26287804759E+02  0.30242507947E+02  0.00000000000E+00 0. -1.
</event>
<event>
 5    1  0.6835419E-004  0.9118800E+02  0.7818608E-02  0.1130116E+00
         25   -1    0    0    0    0  0.00000000000E+00  0.00000000000E+00  0.99999998245E-14  0.12500000000E+03  0.12500000000E+03 0.  0.
        -13    1    3    3    0    0  0.43909088253E+02  0.13855254433E+02 -0.23054801967E+02  0.51492826339E+02  0.10566000000E+00 0. -1.
         23    2    1    0    0    0  0.71366286914E+01 -0.11532535389E+02 -0.25364200108E+02  0.96237637637E+02  0.91839040768E+02 0.  0.
         13    1    3    3    0    0 -0.36772459562E+02 -0.25387789822E+02 -0.23093981417E+01  0.44744811298E+02  0.10566000000E+00 0.  1.
         22    1    1    0    0    0 -0.71366286914E+01  0.11532535389E+02  0.25364200108E+02  0.28762362363E+02  0.00000000000E+00 0. -1.
</event>
<event>
 5    1  0.6835419E-004  0.9118800E+02  0.7818608E-02  0.1130116E+00
         25   -1    0    0    0    0  0.00000000000E+00  0.00000000000E+00  0.99999998245E-14  0.12500000000E+03  0.12500000000E+03 0.  0.
        -13    1    3    3    0    0  0.28363476700E+02  0.26140952061E+02 -0.29491013387E+02  0.48554785756E+02  0.10566000000E+00 0.  1.
         23    2    1    0    0    0  0.24952487469E+02 -0.14537179920E+02 -0.65213829585E+01  0.95394516275E+02  0.90684227232E+02 0.  0.
         13    1    3    3    0    0 -0.34109892314E+01 -0.40678131981E+02  0.22969630428E+02  0.46839730519E+02  0.10566000000E+00 0. -1.
         22    1    1    0    0    0 -0.24952487469E+02  0.14537179920E+02  0.65213829585E+01  0.29605483725E+02  0.00000000000E+00 0. -1.
</event>
<event>
 5    1  0.6835419E-004  0.9118800E+02  0.7818608E-02  0.1130116E+00
         25   -1    0    0    0    0  0.00000000000E+00  0.00000000000E+00  0.99999998245E-14  0.12500000000E+03  0.12500000000E+03 0.  0.
        -13    1    3    3    0    0 -0.37434759367E+02 -0.10893627530E+02 -0.16684592711E+02  0.42407772019E+02  0.10566000000E+00 0.  1.
         23    2    1    0    0    0  0.84105403180E+01  0.17657641644E+02 -0.20644642343E+02  0.96561808174E+02  0.92279206994E+02 0.  0.
         13    1    3    3    0    0  0.45845299685E+02  0.28551269175E+02 -0.39600496320E+01  0.54154036155E+02  0.10566000000E+00 0. -1.
         22    1    1    0    0    0 -0.84105403180E+01 -0.17657641644E+02  0.20644642343E+02  0.28438191826E+02  0.00000000000E+00 0. -1.
</event>
<event>
 5    1  0.6835419E-004  0.9118800E+02  0.7818608E-02  0.1130116E+00
         25   -1    0    0    0    0  0.00000000000E+00  0.00000000000E+00  0.99999998245E-14  0.12500000000E+03  0.12500000000E+03 0.  0.
        -13    1    3    3    0    0  0.28195620021E+01  0.68395736440E+01  0.14455190953E+02  0.16238639322E+02  0.10566000000E+00 0.  1.
         23    2    1    0    0    0 -0.33087955748E+01 -0.12060449013E+02 -0.44669648904E+02  0.78612716271E+02  0.63467937321E+02 0.  0.
         13    1    3    3    0    0 -0.61283575770E+01 -0.18900022657E+02 -0.59124839857E+02  0.62374076949E+02  0.10566000000E+00 0. -1.
         22    1    1    0    0    0  0.33087955748E+01  0.12060449013E+02  0.44669648904E+02  0.46387283729E+02  0.00000000000E+00 0. -1.
</event>
<event>
 5    1  0.6835419E-004  0.9118800E+02  0.7818608E-02  0.1130116E+00
         25   -1    0    0    0    0  0.00000000000E+00  0.00000000000E+00  0.99999998245E-14  0.12500000000E+03  0.12500000000E+03 0.  0.
        -13    1    3    3    0    0 -0.40527464498E+02  0.39681614343E+02 -0.43505862435E+01  0.56886243154E+02  0.10566000000E+00 0.  1.
         23    2    1    0    0    0 -0.28427094788E+02  0.34552322466E+01 -0.80356819344E+01  0.95257597069E+02  0.90495299696E+02 0.  0.
         13    1    3    3    0    0  0.12100369710E+02 -0.36226382097E+02 -0.36850956909E+01  0.38371353914E+02  0.10566000000E+00 0. -1.
         22    1    1    0    0    0  0.28427094788E+02 -0.34552322466E+01  0.80356819344E+01  0.29742402931E+02  0.00000000000E+00 0.  1.
</event>
<event>
 5    1  0.6835419E-004  0.9118800E+02  0.7818608E-02  0.1130116E+00
         25   -1    0    0    0    0  0.00000000000E+00  0.00000000000E+00  0.99999998245E-14  0.12500000000E+03  0.12500000000E+03 0.  0.
        -13    1    3    3    0    0 -0.33742923566E+02 -0.22176138314E+02  0.44628653993E+02  0.60183834395E+02  0.10566000000E+00 0.  1.
         23    2    1    0    0    0 -0.17031691923E+02 -0.17085399033E+02  0.10166807890E+02  0.98820745378E+02  0.95290011778E+02 0.  0.
         13    1    3    3    0    0  0.16711231643E+02  0.50907392811E+01 -0.34461846103E+02  0.38636910983E+02  0.10566000000E+00 0. -1.
         22    1    1    0    0    0  0.17031691923E+02  0.17085399033E+02 -0.10166807890E+02  0.26179254622E+02  0.00000000000E+00 0.  1.
</event>
<event>
 5    1  0.6835419E-004  0.9118800E+02  0.7818608E-02  0.1130116E+00
         25   -1    0    0    0    0  0.00000000000E+00  0.00000000000E+00  0.99999998245E-14  0.12500000000E+03  0.12500000000E+03 0.  0.
        -13    1    3    3    0    0 -0.20102554872E+02  0.38364621068E+02 -0.16887576330E+02  0.46488259383E+02  0.10566000000E+00 0. -1.
         23    2    1    0    0    0  0.21612969191E+02  0.12802600064E+02 -0.15600399612E+02  0.95429753574E+02  0.90732785660E+02 0.  0.
         13    1    3    3    0    0  0.41715524063E+02 -0.25562021005E+02  0.12871767188E+01  0.48941494191E+02  0.10566000000E+00 0.  1.
         22    1    1    0    0    0 -0.21612969191E+02 -0.12802600064E+02  0.15600399612E+02  0.29570246426E+02  0.00000000000E+00 0.  1.
</event>
<event>
 4    1  0.6835419E-004  0.9118800E+02  0.7818608E-02  0.1130116E+00
         25   -1    0    0    0    0  0.00000000000E+00  0.00000000000E+00  0.99999998245E-14  0.12500000000E+03  0.12500000000E+03 0.  0.
        -13    1    1    0    0    0 -0.22697146443E+01  0.37166370528E+01  0.19419105549E+02  0.19901703945E+02  0.10566000000E+00 0.  1.
         13    1    1    0    0    0  0.41698138841E+02  0.27451991623E+02  0.31088744449E+01  0.50020224822E+02  0.10566000000E+00 0. -1.
         22    1    1    0    0    0 -0.39428424197E+02 -0.31168628676E+02 -0.22527979994E+02  0.55078071233E+02  0.00000000000E+00 0. -1.
</event>
<event>
 5    1  0.6835419E-004  0.9118800E+02  0.7818608E-02  0.1130116E+00
         25   -1    0    0    0    0  0.00000000000E+00  0.00000000000E+00  0.99999998245E-14  0.12500000000E+03  0.12500000000E+03 0.  0.
        -13    1    3    3    0    0  0.43441993889E+02 -0.41517537650E+02  0.47893033151E+00  0.60092872322E+02  0.10566000000E+00 0. -1.
         23    2    1    0    0    0  0.26001064174E+02 -0.14074103502E+02 -0.92279903987E+01  0.94027568156E+02  0.88780020494E+02 0.  0.
         13    1    3    3    0    0 -0.17440929716E+02  0.27443434149E+02 -0.97069207302E+01  0.33934695834E+02  0.10566000000E+00 0.  1.
         22    1    1    0    0    0 -0.26001064174E+02  0.14074103502E+02  0.92279903987E+01  0.30972431844E+02  0.00000000000E+00 0. -1.
</event>
<event>
 5    1  0.6835419E-004  0.9118800E+02  0.7818608E-02  0.1130116E+00
         25   -1    0    0    0    0  0.00000000000E+00  0.00000000000E+00  0.99999998245E-14  0.12500000000E+03  0.12500000000E+03 0.  0.
        -13    1    3    3    0    0  0.15610882928E+02  0.45974352475E+02 -0.27940689723E+02  0.56018158284E+02  0.10566000000E+00 0.  1.
         23    2    1    0    0    0 -0.11474596276E+02  0.26155702264E+02 -0.69472511411E+01  0.95605248444E+02  0.90974238722E+02 0.  0.
         13    1    3    3    0    0 -0.27085479204E+02 -0.19818650211E+02  0.20993438582E+02  0.39587090161E+02  0.10566000000E+00 0. -1.
         22    1    1    0    0    0  0.11474596276E+02 -0.26155702264E+02  0.69472511411E+01  0.29394751556E+02  0.00000000000E+00 0.  1.
</event>
<event>
 5    1  0.6835419E-004  0.9118800E+02  0.7818608E-02  0.1130116E+00
         25   -1    0    0    0    0  0.00000000000E+00  0.00000000000E+00  0.99999998245E-14  0.12500000000E+03  0.12500000000E+03 0.  0.
        -13    1    3    3    0    0 -0.29101680323E+02  0.12819052215E+02  0.10448975458E+02  0.33472797156E+02  0.10566000000E+00 0. -1.
         23    2    1    0    0    0  0.11749124664E+02 -0.21846424340E+02 -0.18205127517E+02  0.94230943227E+02  0.89065907096E+02 0.  0.
         13    1    3    3    0    0  0.40850804986E+02 -0.34665476554E+02 -0.28654102974E+02  0.60758146071E+02  0.10566000000E+00 0.  1.
         22    1    1    0    0    0 -0.11749124664E+02  0.21846424340E+02  0.18205127517E+02  0.30769056773E+02  0.00000000000E+00 0.  1.
</event>
<event>
 5    1  0.6835419E-004  0.9118800E+02  0.7818608E-02  0.1130116E+00
         25   -1    0    0    0    0  0.00000000000E+00  0.00000000000E+00  0.99999998245E-14  0.12500000000E+03  0.12500000000E+03 0.  0.
        -13    1    3    3    0    0 -0.28944046550E+01 -0.25469933963E+02  0.53147767016E+02  0.59006706544E+02  0.10566000000E+00 0.  1.
         23    2    1    0    0    0 -0.14805546459E+02 -0.55404560956E+01  0.23804169444E+02  0.96424847461E+02  0.92093495238E+02 0.  0.
         13    1    3    3    0    0 -0.11911141804E+02  0.19929477867E+02 -0.29343597572E+02  0.37418140916E+02  0.10566000000E+00 0. -1.
         22    1    1    0    0    0  0.14805546459E+02  0.55404560956E+01 -0.23804169444E+02  0.28575152539E+02  0.00000000000E+00 0.  1.
</event>
<event>
 5    1  0.6835419E-004  0.9118800E+02  0.7818608E-02  0.1130116E+00
         25   -1    0    0    0    0  0.00000000000E+00  0.00000000000E+00  0.99999998245E-14  0.12500000000E+03  0.12500000000E+03 0.  0.
        -13    1    3    3    0    0  0.11175900984E+01 -0.54114278431E+02  0.25935774284E+02  0.60018994406E+02  0.10566000000E+00 0.  1.
         23    2    1    0    0    0  0.12660451987E+02 -0.22394261634E+02  0.13090901616E+02  0.96135459405E+02  0.91699862874E+02 0.  0.
         13    1    3    3    0    0  0.11542861889E+02  0.31720016797E+02 -0.12844872668E+02  0.36116464999E+02  0.10566000000E+00 0. -1.
         22    1    1    0    0    0 -0.12660451987E+02  0.22394261634E+02 -0.13090901616E+02  0.28864540595E+02  0.00000000000E+00 0.  1.
</event>
<event>
 5    1  0.6835419E-004  0.9118800E+02  0.7818608E-02  0.1130116E+00
         25   -1    0    0    0    0  0.00000000000E+00  0.00000000000E+00  0.99999998245E-14  0.12500000000E+03  0.12500000000E+03 0.  0.
        -13    1    3    3    0    0  0.51596948940E+00 -0.33088188816E+02  0.38324965976E+02  0.50635053518E+02  0.10566000000E+00 0. -1.
         23    2    1    0    0    0 -0.96136354839E-01 -0.28342619758E+02 -0.66692727044E+01  0.95883122844E+02  0.91355244573E+02 0.  0.
         13    1    3    3    0    0 -0.61210584424E+00  0.47455690584E+01 -0.44994238681E+02  0.45248069326E+02  0.10566000000E+00 0.  1.
         22    1    1    0    0    0  0.96136354839E-01  0.28342619758E+02  0.66692727044E+01  0.29116877156E+02  0.00000000000E+00 0. -1.
</event>
<event>
 5    1  0.6835419E-004  0.9118800E+02  0.7818608E-02  0.1130116E+00
         25   -1    0    0    0    0  0.00000000000E+00  0.00000000000E+00  0.99999998245E-14  0.12500000000E+03  0.12500000000E+03 0.  0.
        -13    1    3    3    0    0 -0.47055126386E+02  0.40804039697E+02 -0.48284461867E+01  0.62469829770E+02  0.10566000000E+00 0.  1.
         23    2    1    0    0    0 -0.21111882407E+02  0.18257019855E+02 -0.79574297350E+00  0.97077543811E+02  0.92975189985E+02 0.  0.
         13    1    3    3    0    0  0.25943243980E+02 -0.22547019842E+02  0.40327032132E+01  0.34607714041E+02  0.10566000000E+00 0. -1.
         22    1    1    0    0    0  0.21111882407E+02 -0.18257019855E+02  0.79574297350E+00  0.27922456189E+02  0.00000000000E+00 0.  1.
</event>
<event>
 5    1  0.6835419E-004  0.9118800E+02  0.7818608E-02  0.1130116E+00
         25   -1    0    0    0    0  0.00000000000E+00  0.00000000000E+00  0.99999998245E-14  0.12500000000E+03  0.12500000000E+03 0.  0.
        -13    1    3    3    0    0  0.20392332147E+02 -0.42337291803E+02 -0.14496451691E+02  0.49177756794E+02  0.10566000000E+00 0. -1.
         23    2    1    0    0    0  0.27241018534E+02  0.21742152102E+01 -0.14175943087E+02  0.94214326953E+02  0.89042583847E+02 0.  0.
         13    1    3    3    0    0  0.68486863873E+01  0.44511507014E+02  0.32050860419E+00  0.45036570159E+02  0.10566000000E+00 0.  1.
         22    1    1    0    0    0 -0.27241018534E+02 -0.21742152102E+01  0.14175943087E+02  0.30785673047E+02  0.00000000000E+00 0. -1.
</event>
<event>
 5    1  0.6835419E-004  0.9118800E+02  0.7818608E-02  0.1130116E+00
         25   -1    0    0    0    0  0.00000000000E+00  0.00000000000E+00  0.99999998245E-14  0.12500000000E+03  0.12500000000E+03 0.  0.
        -13    1    3    3    0    0  0.37113079808E+02 -0.34882075457E+02 -0.25233029805E+02  0.56840626652E+02  0.10566000000E+00 0. -1.
         23    2    1    0    0    0  0.52347061844E+00 -0.20384840975E+02 -0.19811158968E+02  0.96569421696E+02  0.92289519578E+02 0.  0.
         13    1    3    3    0    0 -0.36589609189E+02  0.14497234482E+02  0.54218708369E+01  0.39728795044E+02  0.10566000000E+00 0.  1.
         22    1    1    0    0    0 -0.52347061844E+00  0.20384840975E+02  0.19811158968E+02  0.28430578304E+02  0.00000000000E+00 0. -1.
</event>
<event>
 5    1  0.6835419E-004  0.9118800E+02  0.7818608E-02  0.1130116E+00
         25   -1    0    0    0    0  0.00000000000E+00  0.00000000000E+00  0.99999998245E-14  0.12500000000E+03  0.12500000000E+03 0.  0.
        -13    1    3    3    0    0 -0.16763455982E+02  0.46246776155E+02  0.66460175547E+01  0.49638276305E+02  0.10566000000E+00 0. -1.
         23    2    1    0    0    0 -0.13859426177E+02 -0.52211728183E+01  0.17246751184E+02  0.10226687954E+03  0.99708173609E+02 0.  0.
         13    1    3    3    0    0  0.29040298055E+01 -0.51467948973E+02  0.10600733630E+02  0.52628603232E+02  0.10566000000E+00 0.  1.
         22    1    1    0    0    0  0.13859426177E+02  0.52211728183E+01 -0.17246751184E+02  0.22733120462E+02  0.00000000000E+00 0. -1.
</event>
<event>
 5    1  0.6835419E-004  0.9118800E+02  0.7818608E-02  0.1130116E+00
         25   -1    0    0    0    0  0.00000000000E+00  0.00000000000E+00  0.99999998245E-14  0.12500000000E+03  0.12500000000E+03 0.  0.
        -13    1    3    3    0    0 -0.37801314582E+02 -0.19360772485E+02  0.20920194534E+02  0.47343897164E+02  0.10566000000E+00 0. -1.
         23    2    1    0    0    0 -0.14991002290E+02  0.51466042285E+01 -0.19526904775E+02  0.99850095530E+02  0.96630864026E+02 0.  0.
         13    1    3    3    0    0  0.22810312291E+02  0.24507376714E+02 -0.40447099310E+02  0.52506198366E+02  0.10566000000E+00 0.  1.
         22    1    1    0    0    0  0.14991002290E+02 -0.51466042285E+01  0.19526904775E+02  0.25149904470E+02  0.00000000000E+00 0.  1.
</event>
<event>
 5    1  0.6835419E-004  0.9118800E+02  0.7818608E-02  0.1130116E+00
         25   -1    0    0    0    0  0.00000000000E+00  0.00000000000E+00  0.99999998245E-14  0.12500000000E+03  0.12500000000E+03 0.  0.
        -13    1    3    3    0    0 -0.46119638239E+01  0.46511717184E+02  0.20711695671E+02  0.51123336622E+02  0.10566000000E+00 0. -1.
         23    2    1    0    0    0 -0.21849826463E+02  0.23237751942E+01  0.13792918409E+02  0.99056610748E+02  0.95598915721E+02 0.  0.
         13    1    3    3    0    0 -0.17237862639E+02 -0.44187941990E+02 -0.69187772613E+01  0.47933274127E+02  0.10566000000E+00 0.  1.
         22    1    1    0    0    0  0.21849826463E+02 -0.23237751942E+01 -0.13792918409E+02  0.25943389252E+02  0.00000000000E+00 0. -1.
</event>
<event>
 5    1  0.6835419E-004  0.9118800E+02  0.7818608E-02  0.1130116E+00
         25   -1    0    0    0    0  0.00000000000E+00  0.00000000000E+00  0.99999998245E-14  0.12500000000E+03  0.12500000000E+03 0.  0.
        -13    1    3    3    0    0 -0.41090008145E+02  0.17372929807E+02 -0.36789319773E+02  0.57824498898E+02  0.10566000000E+00 0.  1.
         23    2    1    0    0    0 -0.27502289874E+02  0.10395749522E+02 -0.23433865203E+01  0.95505271372E+02  0.90836764820E+02 0.  0.
         13    1    3    3    0    0  0.13587718271E+02 -0.69771802842E+01  0.34445933253E+02  0.37680772474E+02  0.10566000000E+00 0. -1.
         22    1    1    0    0    0  0.27502289874E+02 -0.10395749522E+02  0.23433865203E+01  0.29494728628E+02  0.00000000000E+00 0.  1.
</event>
<event>
 5    1  0.6835419E-004  0.9118800E+02  0.7818608E-02  0.1130116E+00
         25   -1    0    0    0    0  0.00000000000E+00  0.00000000000E+00  0.99999998245E-14  0.12500000000E+03  0.12500000000E+03 0.  0.
        -13    1    3    3    0    0 -0.29911020017E+02 -0.21221321463E+02  0.18025261300E+02  0.40864835887E+02  0.10566000000E+00 0. -1.
         23    2    1    0    0    0 -0.52213802572E+01 -0.60063527836E+01 -0.28345783865E+02  0.95558149711E+02  0.90909501306E+02 0.  0.
         13    1    3    3    0    0  0.24689639760E+02  0.15214968679E+02 -0.46371045165E+02  0.54693313824E+02  0.10566000000E+00 0.  1.
         22    1    1    0    0    0  0.52213802572E+01  0.60063527836E+01  0.28345783865E+02  0.29441850289E+02  0.00000000000E+00 0.  1.
</event>
<event>
 5    1  0.6835419E-004  0.9118800E+02  0.7818608E-02  0.1130116E+00
         25   -1    0    0    0    0  0.00000000000E+00  0.00000000000E+00  0.99999998245E-14  0.12500000000E+03  0.12500000000E+03 0.  0.
        -13    1    3    3    0    0  0.76821005577E+00 -0.36264864167E+02  0.24086743897E+02  0.43542082120E+02  0.10566000000E+00 0.  1.
         23    2    1    0    0    0 -0.10184369176E+02  0.14651220027E+02  0.23330415113E+02  0.95628450958E+02  0.91006113748E+02 0.  0.
         13    1    3    3    0    0 -0.10952579232E+02  0.50916084194E+02 -0.75632878378E+00  0.52086368838E+02  0.10566000000E+00 0. -1.
         22    1    1    0    0    0  0.10184369176E+02 -0.14651220027E+02 -0.23330415113E+02  0.29371549042E+02  0.00000000000E+00 0. -1.
</event>
<event>
 5    1  0.6835419E-004  0.9118800E+02  0.7818608E-02  0.1130116E+00
         25   -1    0    0    0    0  0.00000000000E+00  0.00000000000E+00  0.99999998245E-14  0.12500000000E+03  0.12500000000E+03 0.  0.
        -13    1    3    3    0    0  0.26291774710E+02  0.23137214024E+02 -0.26653315304E+02  0.44011344798E+02  0.10566000000E+00 0.  1.
         23    2    1    0    0    0 -0.22654444261E+02  0.13806834638E+02 -0.71198491401E+01  0.97531021510E+02  0.93582879725E+02 0.  0.
         13    1    3    3    0    0 -0.48946218971E+02 -0.93303793852E+01  0.19533466164E+02  0.53519676712E+02  0.10566000000E+00 0. -1.
         22    1    1    0    0    0  0.22654444261E+02 -0.13806834638E+02  0.71198491401E+01  0.27468978490E+02  0.00000000000E+00 0. -1.
</event>
<event>
 5    1  0.6835419E-004  0.9118800E+02  0.7818608E-02  0.1130116E+00
         25   -1    0    0    0    0  0.00000000000E+00  0.00000000000E+00  0.99999998245E-14  0.12500000000E+03  0.12500000000E+03 0.  0.
        -13    1    3    3    0    0 -0.28319834809E+02  0.37688331325E+02 -0.26548823729E+02  0.54104293425E+02  0.10566000000E+00 0. -1.
         23    2    1    0    0    0 -0.20959698199E-02  0.29165093144E+02  0.27151996708E+01  0.95708790197E+02  0.91116395611E+02 0.  0.
         13    1    3    3    0    0  0.28317738839E+02 -0.85232381812E+01  0.29264023399E+02  0.41604496771E+02  0.10566000000E+00 0.  1.
         22    1    1    0    0    0  0.20959698199E-02 -0.29165093144E+02 -0.27151996708E+01  0.29291209803E+02  0.00000000000E+00 0. -1.
</event>
<event>
 4    1  0.6835419E-004  0.9118800E+02  0.7818608E-02  0.1130116E+00
         25   -1    0    0    0    0  0.00000000000E+00  0.00000000000E+00  0.99999998245E-14  0.12500000000E+03  0.12500000000E+03 0.  0.
        -13    1    1    0    0    0 -0.95929679013E+01 -0.17841329138E+02  0.92494716081E+01  0.22268856002E+02  0.10566000000E+00 0. -1.
         13    1    1    0    0    0  0.45256077855E+02 -0.53458112731E+01  0.21356249568E+02  0.50326840161E+02  0.10566000000E+00 0.  1.
         22    1    1    0    0    0 -0.35663109953E+02  0.23187140411E+02 -0.30605721176E+02  0.52404303837E+02  0.00000000000E+00 0.  1.
</event>
<event>
 5    1  0.6835419E-004  0.9118800E+02  0.7818608E-02  0.1130116E+00
         25   -1    0    0    0    0  0.00000000000E+00  0.00000000000E+00  0.99999998245E-14  0.12500000000E+03  0.12500000000E+03 0.  0.
        -13    1    3    3    0    0  0.70746321527E+01  0.25129937196E+02 -0.28314566457E+02  0.38513504142E+02  0.10566000000E+00 0.  1.
         23    2    1    0    0    0  0.18596319489E+02 -0.67840041279E+00  0.21976980045E+02  0.96202934567E+02  0.91791795068E+02 0.  0.
         13    1    3    3    0    0  0.11521687337E+02 -0.25808337609E+02  0.50291546502E+02  0.57689430425E+02  0.10566000000E+00 0. -1.
         22    1    1    0    0    0 -0.18596319489E+02  0.67840041279E+00 -0.21976980045E+02  0.28797065433E+02  0.00000000000E+00 0. -1.
</event>
<event>
 5    1  0.6835419E-004  0.9118800E+02  0.7818608E-02  0.1130116E+00
         25   -1    0    0    0    0  0.00000000000E+00  0.00000000000E+00  0.99999998245E-14  0.12500000000E+03  0.12500000000E+03 0.  0.
        -13    1    3    3    0    0  0.15621971836E+02 -0.92942322779E+01  0.21530707177E+02  0.28178205643E+02  0.10566000000E+00 0.  1.
         23    2    1    0    0    0 -0.16733555903E+02  0.21346796540E+02 -0.21699948485E+02  0.90264062127E+02  0.83312757316E+02 0.  0.
         13    1    3    3    0    0 -0.32355527739E+02  0.30641028818E+02 -0.43230655662E+02  0.62085856484E+02  0.10566000000E+00 0. -1.
         22    1    1    0    0    0  0.16733555903E+02 -0.21346796540E+02  0.21699948485E+02  0.34735937873E+02  0.00000000000E+00 0. -1.
</event>
<event>
 5    1  0.6835419E-004  0.9118800E+02  0.7818608E-02  0.1130116E+00
         25   -1    0    0    0    0  0.00000000000E+00  0.00000000000E+00  0.99999998245E-14  0.12500000000E+03  0.12500000000E+03 0.  0.
        -13    1    3    3    0    0 -0.33504806847E+02  0.39449578499E+02 -0.33396036185E+02  0.61596653501E+02  0.10566000000E+00 0.  1.
         23    2    1    0    0    0 -0.17340454295E+02  0.21081012115E+02 -0.87269884007E+01  0.96342352617E+02  0.91981455491E+02 0.  0.
         13    1    3    3    0    0  0.16164352552E+02 -0.18368566384E+02  0.24669047784E+02  0.34745699116E+02  0.10566000000E+00 0. -1.
         22    1    1    0    0    0  0.17340454295E+02 -0.21081012115E+02  0.87269884007E+01  0.28657647383E+02  0.00000000000E+00 0.  1.
</event>
<event>
 5    1  0.6835419E-004  0.9118800E+02  0.7818608E-02  0.1130116E+00
         25   -1    0    0    0    0  0.00000000000E+00  0.00000000000E+00  0.99999998245E-14  0.12500000000E+03  0.12500000000E+03 0.  0.
        -13    1    3    3    0    0  0.69023745685E+01 -0.25748173424E+02 -0.51508826530E+02  0.57998117072E+02  0.10566000000E+00 0.  1.
         23    2    1    0    0    0  0.16320923398E+02 -0.13789528163E+01 -0.24070665587E+02  0.95885210060E+02  0.91358100435E+02 0.  0.
         13    1    3    3    0    0  0.94185488298E+01  0.24369220608E+02  0.27438160944E+02  0.37887092988E+02  0.10566000000E+00 0. -1.
         22    1    1    0    0    0 -0.16320923398E+02  0.13789528163E+01  0.24070665587E+02  0.29114789940E+02  0.00000000000E+00 0.  1.
</event>
<event>
 5    1  0.6835419E-004  0.9118800E+02  0.7818608E-02  0.1130116E+00
         25   -1    0    0    0    0  0.00000000000E+00  0.00000000000E+00  0.99999998245E-14  0.12500000000E+03  0.12500000000E+03 0.  0.
        -13    1    3    3    0    0  0.70016733756E+01  0.55102373349E+02 -0.26453241127E+02  0.61523004713E+02  0.10566000000E+00 0.  1.
         23    2    1    0    0    0  0.15426124555E+00  0.22113093686E+02 -0.18564833562E+02  0.96126729418E+02  0.91687961884E+02 0.  0.
         13    1    3    3    0    0 -0.68474121301E+01 -0.32989279662E+02  0.78884075652E+01  0.34603724705E+02  0.10566000000E+00 0. -1.
         22    1    1    0    0    0 -0.15426124555E+00 -0.22113093686E+02  0.18564833562E+02  0.28873270582E+02  0.00000000000E+00 0.  1.
</event>
<event>
 5    1  0.6835419E-004  0.9118800E+02  0.7818608E-02  0.1130116E+00
         25   -1    0    0    0    0  0.00000000000E+00  0.00000000000E+00  0.99999998245E-14  0.12500000000E+03  0.12500000000E+03 0.  0.
        -13    1    3    3    0    0  0.16943027815E+02 -0.13995211856E+01 -0.39695985689E+02  0.43183414581E+02  0.10566000000E+00 0. -1.
         23    2    1    0    0    0 -0.21378042604E+02  0.17637569434E+02 -0.89408316858E+01  0.95878821583E+02  0.91349359034E+02 0.  0.
         13    1    3    3    0    0 -0.38321070419E+02  0.19037090620E+02  0.30755154003E+02  0.52695407002E+02  0.10566000000E+00 0.  1.
         22    1    1    0    0    0  0.21378042604E+02 -0.17637569434E+02  0.89408316858E+01  0.29121178417E+02  0.00000000000E+00 0.  1.
</event>
<event>
 5    1  0.6835419E-004  0.9118800E+02  0.7818608E-02  0.1130116E+00
         25   -1    0    0    0    0  0.00000000000E+00  0.00000000000E+00  0.99999998245E-14  0.12500000000E+03  0.12500000000E+03 0.  0.
        -13    1    3    3    0    0  0.50757541123E+02 -0.79186458933E+00 -0.28177274710E+02  0.58059667623E+02  0.10566000000E+00 0.  1.
         23    2    1    0    0    0  0.14617014042E+02  0.72758747706E+01 -0.24885891885E+02  0.95235876158E+02  0.90465291905E+02 0.  0.
         13    1    3    3    0    0 -0.36140527081E+02  0.80677393599E+01  0.32913828247E+01  0.37176208535E+02  0.10566000000E+00 0. -1.
         22    1    1    0    0    0 -0.14617014042E+02 -0.72758747706E+01  0.24885891885E+02  0.29764123842E+02  0.00000000000E+00 0.  1.
</event>
<event>
 5    1  0.6835419E-004  0.9118800E+02  0.7818608E-02  0.1130116E+00
         25   -1    0    0    0    0  0.00000000000E+00  0.00000000000E+00  0.99999998245E-14  0.12500000000E+03  0.12500000000E+03 0.  0.
        -13    1    3    3    0    0 -0.25336837412E+02 -0.22731026845E+02  0.20566198110E+02  0.39769769677E+02  0.10566000000E+00 0.  1.
         23    2    1    0    0    0  0.17420439096E+02  0.14376762539E+02  0.17428136281E+02  0.96471015902E+02  0.92156139110E+02 0.  0.
         13    1    3    3    0    0  0.42757276508E+02  0.37107789384E+02 -0.31380618291E+01  0.56701246225E+02  0.10566000000E+00 0. -1.
         22    1    1    0    0    0 -0.17420439096E+02 -0.14376762539E+02 -0.17428136281E+02  0.28528984098E+02  0.00000000000E+00 0. -1.
</event>
<event>
 5    1  0.6835419E-004  0.9118800E+02  0.7818608E-02  0.1130116E+00
         25   -1    0    0    0    0  0.00000000000E+00  0.00000000000E+00  0.99999998245E-14  0.12500000000E+03  0.12500000000E+03 0.  0.
        -13    1    3    3    0    0  0.15335652459E+01  0.14129092918E+02  0.37591946795E+02  0.40188912861E+02  0.10566000000E+00 0.  1.
         23    2    1    0    0    0 -0.12372885590E+02 -0.26593384110E+02  0.27816843684E+01  0.95537580816E+02  0.90881214802E+02 0.  0.
         13    1    3    3    0    0 -0.13906450836E+02 -0.40722477028E+02 -0.34810262426E+02  0.55348667955E+02  0.10566000000E+00 0. -1.
         22    1    1    0    0    0  0.12372885590E+02  0.26593384110E+02 -0.27816843684E+01  0.29462419184E+02  0.00000000000E+00 0. -1.
</event>
<event>
 5    1  0.6835419E-004  0.9118800E+02  0.7818608E-02  0.1130116E+00
         25   -1    0    0    0    0  0.00000000000E+00  0.00000000000E+00  0.99999998245E-14  0.12500000000E+03  0.12500000000E+03 0.  0.
        -13    1    3    3    0    0  0.21461785978E+02  0.22323858388E+02  0.31516154512E+02  0.44184183481E+02  0.10566000000E+00 0.  1.
         23    2    1    0    0    0  0.14352633714E+02 -0.23352819001E+02  0.61709437866E+01  0.96903153254E+02  0.92740435159E+02 0.  0.
         13    1    3    3    0    0 -0.71091522636E+01 -0.45676677389E+02 -0.25345210725E+02  0.52718969773E+02  0.10566000000E+00 0. -1.
         22    1    1    0    0    0 -0.14352633714E+02  0.23352819001E+02 -0.61709437866E+01  0.28096846746E+02  0.00000000000E+00 0.  1.
</event>
<event>
 5    1  0.6835419E-004  0.9118800E+02  0.7818608E-02  0.1130116E+00
         25   -1    0    0    0    0  0.00000000000E+00  0.00000000000E+00  0.99999998245E-14  0.12500000000E+03  0.12500000000E+03 0.  0.
        -13    1    3    3    0    0  0.31539154385E+02 -0.14876237028E+02  0.23148678480E+01  0.34948397168E+02  0.10566000000E+00 0.  1.
         23    2    1    0    0    0 -0.25319758613E+02 -0.10640062495E+02 -0.13889653371E+02  0.94223002472E+02  0.89054761905E+02 0.  0.
         13    1    3    3    0    0 -0.56858912997E+02  0.42361745337E+01 -0.16204521219E+02  0.59274605304E+02  0.10566000000E+00 0. -1.
         22    1    1    0    0    0  0.25319758613E+02  0.10640062495E+02  0.13889653371E+02  0.30776997528E+02  0.00000000000E+00 0. -1.
</event>
<event>
 5    1  0.6835419E-004  0.9118800E+02  0.7818608E-02  0.1130116E+00
         25   -1    0    0    0    0  0.00000000000E+00  0.00000000000E+00  0.99999998245E-14  0.12500000000E+03  0.12500000000E+03 0.  0.
        -13    1    3    3    0    0 -0.21453541670E+01  0.24236878333E+02 -0.27607071183E+02  0.36799325526E+02  0.10566000000E+00 0. -1.
         23    2    1    0    0    0 -0.69195367630E+01  0.14511824144E+01  0.27491249833E+02  0.96614180710E+02  0.92350122780E+02 0.  0.
         13    1    3    3    0    0 -0.47741825960E+01 -0.22785695918E+02  0.55098321015E+02  0.59814855184E+02  0.10566000000E+00 0.  1.
         22    1    1    0    0    0  0.69195367630E+01 -0.14511824144E+01 -0.27491249833E+02  0.28385819290E+02  0.00000000000E+00 0.  1.
</event>
<event>
 5    1  0.6835419E-004  0.9118800E+02  0.7818608E-02  0.1130116E+00
         25   -1    0    0    0    0  0.00000000000E+00  0.00000000000E+00  0.99999998245E-14  0.12500000000E+03  0.12500000000E+03 0.  0.
        -13    1    3    3    0    0  0.18451832305E+02 -0.30733722596E+02  0.13390794951E+02  0.38266909641E+02  0.10566000000E+00 0.  1.
         23    2    1    0    0    0 -0.96699434980E+01  0.24857036833E+01 -0.26111634912E+02  0.97044606820E+02  0.92930897473E+02 0.  0.
         13    1    3    3    0    0 -0.28121775803E+02  0.33219426279E+02 -0.39502429863E+02  0.58777697179E+02  0.10566000000E+00 0. -1.
         22    1    1    0    0    0  0.96699434980E+01 -0.24857036833E+01  0.26111634912E+02  0.27955393180E+02  0.00000000000E+00 0. -1.
</event>
<event>
 5    1  0.6835419E-004  0.9118800E+02  0.7818608E-02  0.1130116E+00
         25   -1    0    0    0    0  0.00000000000E+00  0.00000000000E+00  0.99999998245E-14  0.12500000000E+03  0.12500000000E+03 0.  0.
        -13    1    3    3    0    0 -0.37936840701E+02 -0.12611575844E+02 -0.29188038368E+02  0.49499580559E+02  0.10566000000E+00 0.  1.
         23    2    1    0    0    0 -0.25844915828E+02  0.40227368832E+01  0.12519795873E+02  0.96001941877E+02  0.91517678452E+02 0.  0.
         13    1    3    3    0    0  0.12091924873E+02  0.16634312727E+02  0.41707834242E+02  0.46502361319E+02  0.10566000000E+00 0. -1.
         22    1    1    0    0    0  0.25844915828E+02 -0.40227368832E+01 -0.12519795873E+02  0.28998058123E+02  0.00000000000E+00 0.  1.
</event>
<event>
 5    1  0.6835419E-004  0.9118800E+02  0.7818608E-02  0.1130116E+00
         25   -1    0    0    0    0  0.00000000000E+00  0.00000000000E+00  0.99999998245E-14  0.12500000000E+03  0.12500000000E+03 0.  0.
        -13    1    3    3    0    0  0.20321505989E+02 -0.43590220252E+02 -0.36226033753E+02  0.60211357673E+02  0.10566000000E+00 0. -1.
         23    2    1    0    0    0 -0.17745127606E+00 -0.25465313546E+02 -0.11629455705E+02  0.97004323139E+02  0.92876696672E+02 0.  0.
         13    1    3    3    0    0 -0.20498957265E+02  0.18124906706E+02  0.24596578048E+02  0.36792965466E+02  0.10566000000E+00 0.  1.
         22    1    1    0    0    0  0.17745127606E+00  0.25465313546E+02  0.11629455705E+02  0.27995676861E+02  0.00000000000E+00 0. -1.
</event>
<event>
 5    1  0.6835419E-004  0.9118800E+02  0.7818608E-02  0.1130116E+00
         25   -1    0    0    0    0  0.00000000000E+00  0.00000000000E+00  0.99999998245E-14  0.12500000000E+03  0.12500000000E+03 0.  0.
        -13    1    3    3    0    0 -0.22388142278E+02 -0.17947422240E+02  0.50402221333E+02  0.57997706498E+02  0.10566000000E+00 0. -1.
         23    2    1    0    0    0 -0.13689044998E+02  0.86265872781E+01  0.18025203402E+02  0.10077778047E+03  0.97823540718E+02 0.  0.
         13    1    3    3    0    0  0.86990972798E+01  0.26574009518E+02 -0.32377017930E+02  0.42780073977E+02  0.10566000000E+00 0.  1.
         22    1    1    0    0    0  0.13689044998E+02 -0.86265872781E+01 -0.18025203402E+02  0.24222219525E+02  0.00000000000E+00 0. -1.
</event>
<event>
 5    1  0.6835419E-004  0.9118800E+02  0.7818608E-02  0.1130116E+00
         25   -1    0    0    0    0  0.00000000000E+00  0.00000000000E+00  0.99999998245E-14  0.12500000000E+03  0.12500000000E+03 0.  0.
        -13    1    3    3    0    0 -0.49260567943E+02  0.25448331108E+02 -0.19890001664E+01  0.55481423881E+02  0.10566000000E+00 0.  1.
         23    2    1    0    0    0 -0.16935135576E+02  0.91263723258E+01 -0.21115794099E+02  0.96434877048E+02  0.92107107555E+02 0.  0.
         13    1    3    3    0    0  0.32325432366E+02 -0.16321958782E+02 -0.19126793932E+02  0.40953453167E+02  0.10566000000E+00 0. -1.
         22    1    1    0    0    0  0.16935135576E+02 -0.91263723258E+01  0.21115794099E+02  0.28565122952E+02  0.00000000000E+00 0.  1.
</event>
<event>
 5    1  0.6835419E-004  0.9118800E+02  0.7818608E-02  0.1130116E+00
         25   -1    0    0    0    0  0.00000000000E+00  0.00000000000E+00  0.99999998245E-14  0.12500000000E+03  0.12500000000E+03 0.  0.
        -13    1    3    3    0    0  0.26268430867E+02  0.39597740126E+02 -0.25492295691E+02  0.53924760425E+02  0.10566000000E+00 0. -1.
         23    2    1    0    0    0 -0.34723894067E+01  0.29944818583E+02  0.89794614099E+00  0.94841154607E+02  0.89918233145E+02 0.  0.
         13    1    3    3    0    0 -0.29740820273E+02 -0.96529215434E+01  0.26390241832E+02  0.40916394182E+02  0.10566000000E+00 0.  1.
         22    1    1    0    0    0  0.34723894067E+01 -0.29944818583E+02 -0.89794614099E+00  0.30158845393E+02  0.00000000000E+00 0.  1.
</event>
<event>
 5    1  0.6835419E-004  0.9118800E+02  0.7818608E-02  0.1130116E+00
         25   -1    0    0    0    0  0.00000000000E+00  0.00000000000E+00  0.99999998245E-14  0.12500000000E+03  0.12500000000E+03 0.  0.
        -13    1    3    3    0    0  0.27691116369E+02  0.41007679624E+02  0.48555179594E+00  0.49484084699E+02  0.10566000000E+00 0. -1.
         23    2    1    0    0    0 -0.75316363810E+01 -0.28480910857E+00 -0.16916704212E+02  0.10648023909E+03  0.10485733056E+03 0.  0.
         13    1    3    3    0    0 -0.35222752750E+02 -0.41292488732E+02 -0.17402256008E+02  0.56996154390E+02  0.10566000000E+00 0.  1.
         22    1    1    0    0    0  0.75316363810E+01  0.28480910857E+00  0.16916704212E+02  0.18519760911E+02  0.00000000000E+00 0.  1.
</event>
<event>
 5    1  0.6835419E-004  0.9118800E+02  0.7818608E-02  0.1130116E+00
         25   -1    0    0    0    0  0.00000000000E+00  0.00000000000E+00  0.99999998245E-14  0.12500000000E+03  0.12500000000E+03 0.  0.
        -13    1    3    3    0    0  0.21508290110E+02  0.33671745365E+02  0.16800260104E+02  0.43343429525E+02  0.10566000000E+00 0. -1.
         23    2    1    0    0    0 -0.25016825299E+02  0.13363459525E+02  0.59589336921E+00  0.96631378472E+02  0.92373397783E+02 0.  0.
         13    1    3    3    0    0 -0.46525115409E+02 -0.20308285841E+02 -0.16204366735E+02  0.53287948946E+02  0.10566000000E+00 0.  1.
         22    1    1    0    0    0  0.25016825299E+02 -0.13363459525E+02 -0.59589336921E+00  0.28368621528E+02  0.00000000000E+00 0.  1.
</event>
<event>
 5    1  0.6835419E-004  0.9118800E+02  0.7818608E-02  0.1130116E+00
         25   -1    0    0    0    0  0.00000000000E+00  0.00000000000E+00  0.99999998245E-14  0.12500000000E+03  0.12500000000E+03 0.  0.
        -13    1    3    3    0    0  0.27543439632E+02  0.55250134916E+02  0.92202564820E+01  0.62419890809E+02  0.10566000000E+00 0.  1.
         23    2    1    0    0    0  0.13488848382E+02  0.26446157535E+02  0.21914565244E+01  0.95231715523E+02  0.90459542784E+02 0.  0.
         13    1    3    3    0    0 -0.14054591250E+02 -0.28803977381E+02 -0.70287999575E+01  0.32811824714E+02  0.10566000000E+00 0. -1.
         22    1    1    0    0    0 -0.13488848382E+02 -0.26446157535E+02 -0.21914565244E+01  0.29768284477E+02  0.00000000000E+00 0.  1.
</event>
<event>
 5    1  0.6835419E-004  0.9118800E+02  0.7818608E-02  0.1130116E+00
         25   -1    0    0    0    0  0.00000000000E+00  0.00000000000E+00  0.99999998245E-14  0.12500000000E+03  0.12500000000E+03 0.  0.
        -13    1    3    3    0    0 -0.40008663095E+02 -0.45705835112E+02  0.11720167892E+02  0.61863478607E+02  0.10566000000E+00 0.  1.
         23    2    1    0    0    0 -0.18204925329E+02 -0.18586418259E+02  0.11225772266E+02  0.96664647296E+02  0.92418406305E+02 0.  0.
         13    1    3    3    0    0  0.21803737766E+02  0.27119416853E+02 -0.49439562610E+00  0.34801168689E+02  0.10566000000E+00 0. -1.
         22    1    1    0    0    0  0.18204925329E+02  0.18586418259E+02 -0.11225772266E+02  0.28335352704E+02  0.00000000000E+00 0.  1.
</event>
<event>
 5    1  0.6835419E-004  0.9118800E+02  0.7818608E-02  0.1130116E+00
         25   -1    0    0    0    0  0.00000000000E+00  0.00000000000E+00  0.99999998245E-14  0.12500000000E+03  0.12500000000E+03 0.  0.
        -13    1    3    3    0    0 -0.35928988301E+01 -0.27161193502E+02  0.51808665632E+02  0.58607067433E+02  0.10566000000E+00 0.  1.
         23    2    1    0    0    0  0.80929336041E+01 -0.23802916627E+02  0.19331042697E+02  0.93286223403E+02  0.87730016817E+02 0.  0.
         13    1    3    3    0    0  0.11685832434E+02  0.33582768746E+01 -0.32477622935E+02  0.34679155970E+02  0.10566000000E+00 0. -1.
         22    1    1    0    0    0 -0.80929336041E+01  0.23802916627E+02 -0.19331042697E+02  0.31713776597E+02  0.00000000000E+00 0.  1.
</event>
<event>
 5    1  0.6835419E-004  0.9118800E+02  0.7818608E-02  0.1130116E+00
         25   -1    0    0    0    0  0.00000000000E+00  0.00000000000E+00  0.99999998245E-14  0.12500000000E+03  0.12500000000E+03 0.  0.
        -13    1    3    3    0    0  0.11100305059E+02 -0.33015755689E+02  0.82574301850E+01  0.35797391154E+02  0.10566000000E+00 0.  1.
         23    2    1    0    0    0  0.41473616233E+01  0.26706145780E+02  0.10602395494E+02  0.95968471947E+02  0.91471951913E+02 0.  0.
         13    1    3    3    0    0 -0.69529434358E+01  0.59721901469E+02  0.23449653093E+01  0.60171080793E+02  0.10566000000E+00 0. -1.
         22    1    1    0    0    0 -0.41473616233E+01 -0.26706145780E+02 -0.10602395494E+02  0.29031528053E+02  0.00000000000E+00 0. -1.
</event>
<event>
 5    1  0.6835419E-004  0.9118800E+02  0.7818608E-02  0.1130116E+00
         25   -1    0    0    0    0  0.00000000000E+00  0.00000000000E+00  0.99999998245E-14  0.12500000000E+03  0.12500000000E+03 0.  0.
        -13    1    3    3    0    0 -0.14089392474E+02 -0.37415433876E+02 -0.39809712919E+02  0.56420298467E+02  0.10566000000E+00 0.  1.
         23    2    1    0    0    0 -0.22389528574E+02 -0.14166250822E+02 -0.67883406360E+01  0.97649401822E+02  0.93740868651E+02 0.  0.
         13    1    3    3    0    0 -0.83001361001E+01  0.23249183054E+02  0.33021372283E+02  0.41229103355E+02  0.10566000000E+00 0. -1.
         22    1    1    0    0    0  0.22389528574E+02  0.14166250822E+02  0.67883406360E+01  0.27350598178E+02  0.00000000000E+00 0.  1.
</event>
<event>
 5    1  0.6835419E-004  0.9118800E+02  0.7818608E-02  0.1130116E+00
         25   -1    0    0    0    0  0.00000000000E+00  0.00000000000E+00  0.99999998245E-14  0.12500000000E+03  0.12500000000E+03 0.  0.
        -13    1    3    3    0    0  0.54704123655E+02 -0.32660692205E+01  0.12002260382E+02  0.56100568369E+02  0.10566000000E+00 0. -1.
         23    2    1    0    0    0  0.21175776973E+02 -0.16132588172E+02  0.18481117024E+02  0.92592815334E+02  0.86736404314E+02 0.  0.
         13    1    3    3    0    0 -0.33528346682E+02 -0.12866518951E+02  0.64788566419E+01  0.36492246965E+02  0.10566000000E+00 0.  1.
         22    1    1    0    0    0 -0.21175776973E+02  0.16132588172E+02 -0.18481117024E+02  0.32407184666E+02  0.00000000000E+00 0. -1.
</event>
<event>
 5    1  0.6835419E-004  0.9118800E+02  0.7818608E-02  0.1130116E+00
         25   -1    0    0    0    0  0.00000000000E+00  0.00000000000E+00  0.99999998245E-14  0.12500000000E+03  0.12500000000E+03 0.  0.
        -13    1    3    3    0    0  0.14907959047E+01 -0.24919685552E+02  0.22669627508E+02  0.33721452753E+02  0.10566000000E+00 0. -1.
         23    2    1    0    0    0  0.93602931718E+01  0.16297540309E+02 -0.22705496953E+02  0.95525188715E+02  0.90864168839E+02 0.  0.
         13    1    3    3    0    0  0.78694972671E+01  0.41217225861E+02 -0.45375124461E+02  0.61803735962E+02  0.10566000000E+00 0.  1.
         22    1    1    0    0    0 -0.93602931718E+01 -0.16297540309E+02  0.22705496953E+02  0.29474811285E+02  0.00000000000E+00 0.  1.
</event>
<event>
 5    1  0.6835419E-004  0.9118800E+02  0.7818608E-02  0.1130116E+00
         25   -1    0    0    0    0  0.00000000000E+00  0.00000000000E+00  0.99999998245E-14  0.12500000000E+03  0.12500000000E+03 0.  0.
        -13    1    3    3    0    0  0.21303371493E+01  0.32461185308E+02  0.66199802673E+01  0.33197924495E+02  0.10566000000E+00 0. -1.
         23    2    1    0    0    0  0.26874872240E+01 -0.11399597746E+02 -0.31551018089E+02  0.91345280290E+02  0.84919491711E+02 0.  0.
         13    1    3    3    0    0  0.55715007466E+00 -0.43860783055E+02 -0.38170998356E+02  0.58147355795E+02  0.10566000000E+00 0.  1.
         22    1    1    0    0    0 -0.26874872240E+01  0.11399597746E+02  0.31551018089E+02  0.33654719710E+02  0.00000000000E+00 0.  1.
</event>
<event>
 5    1  0.6835419E-004  0.9118800E+02  0.7818608E-02  0.1130116E+00
         25   -1    0    0    0    0  0.00000000000E+00  0.00000000000E+00  0.99999998245E-14  0.12500000000E+03  0.12500000000E+03 0.  0.
        -13    1    3    3    0    0  0.35810735569E+02  0.49307448438E+01  0.26795491671E+02  0.44997006174E+02  0.10566000000E+00 0. -1.
         23    2    1    0    0    0  0.21703198014E+02 -0.13207257933E+02 -0.16983577389E+02  0.94440183786E+02  0.89359084297E+02 0.  0.
         13    1    3    3    0    0 -0.14107537555E+02 -0.18138002777E+02 -0.43779069060E+02  0.49443177612E+02  0.10566000000E+00 0.  1.
         22    1    1    0    0    0 -0.21703198014E+02  0.13207257933E+02  0.16983577389E+02  0.30559816214E+02  0.00000000000E+00 0.  1.
</event>
<event>
 5    1  0.6835419E-004  0.9118800E+02  0.7818608E-02  0.1130116E+00
         25   -1    0    0    0    0  0.00000000000E+00  0.00000000000E+00  0.99999998245E-14  0.12500000000E+03  0.12500000000E+03 0.  0.
        -13    1    3    3    0    0 -0.51858013789E+01  0.50635112598E+02  0.68235562158E+01  0.51355420816E+02  0.10566000000E+00 0.  1.
         23    2    1    0    0    0 -0.23946799761E+02  0.11208786467E+02  0.13143628814E+02  0.95473044666E+02  0.90792406988E+02 0.  0.
         13    1    3    3    0    0 -0.18760998382E+02 -0.39426326131E+02  0.63200725983E+01  0.44117623850E+02  0.10566000000E+00 0. -1.
         22    1    1    0    0    0  0.23946799761E+02 -0.11208786467E+02 -0.13143628814E+02  0.29526955334E+02  0.00000000000E+00 0.  1.
</event>
<event>
 5    1  0.6835419E-004  0.9118800E+02  0.7818608E-02  0.1130116E+00
         25   -1    0    0    0    0  0.00000000000E+00  0.00000000000E+00  0.99999998245E-14  0.12500000000E+03  0.12500000000E+03 0.  0.
        -13    1    3    3    0    0 -0.22933916347E+02  0.17110776380E+02 -0.51304959120E+02  0.58744814083E+02  0.10566000000E+00 0.  1.
         23    2    1    0    0    0  0.11829077940E+01  0.17600891467E+02 -0.24563100056E+02  0.94758694875E+02  0.89803528432E+02 0.  0.
         13    1    3    3    0    0  0.24116824141E+02  0.49011508700E+00  0.26741859064E+02  0.36013880792E+02  0.10566000000E+00 0. -1.
         22    1    1    0    0    0 -0.11829077940E+01 -0.17600891467E+02  0.24563100056E+02  0.30241305125E+02  0.00000000000E+00 0.  1.
</event>
<event>
 5    1  0.6835419E-004  0.9118800E+02  0.7818608E-02  0.1130116E+00
         25   -1    0    0    0    0  0.00000000000E+00  0.00000000000E+00  0.99999998245E-14  0.12500000000E+03  0.12500000000E+03 0.  0.
        -13    1    3    3    0    0  0.20468516176E+02  0.20118926434E+02  0.26719155522E+02  0.39212954380E+02  0.10566000000E+00 0. -1.
         23    2    1    0    0    0  0.34138626903E+02 -0.14359345749E+02 -0.44993001285E+01  0.87692087182E+02  0.79360076836E+02 0.  0.
         13    1    3    3    0    0  0.13670110727E+02 -0.34478272183E+02 -0.31218455651E+02  0.48479132802E+02  0.10566000000E+00 0.  1.
         22    1    1    0    0    0 -0.34138626903E+02  0.14359345749E+02  0.44993001285E+01  0.37307912818E+02  0.00000000000E+00 0. -1.
</event>
<event>
 5    1  0.6835419E-004  0.9118800E+02  0.7818608E-02  0.1130116E+00
         25   -1    0    0    0    0  0.00000000000E+00  0.00000000000E+00  0.99999998245E-14  0.12500000000E+03  0.12500000000E+03 0.  0.
        -13    1    3    3    0    0  0.53018721974E+01 -0.42275603903E+02 -0.32198287104E+02  0.53404844262E+02  0.10566000000E+00 0.  1.
         23    2    1    0    0    0  0.24886494010E+01  0.12267386184E+01 -0.27623429007E+02  0.97237577670E+02  0.93190098281E+02 0.  0.
         13    1    3    3    0    0 -0.28132227965E+01  0.43502342522E+02  0.45748580969E+01  0.43832733408E+02  0.10566000000E+00 0. -1.
         22    1    1    0    0    0 -0.24886494010E+01 -0.12267386184E+01  0.27623429007E+02  0.27762422330E+02  0.00000000000E+00 0. -1.
</event>
<event>
 5    1  0.6835419E-004  0.9118800E+02  0.7818608E-02  0.1130116E+00
         25   -1    0    0    0    0  0.00000000000E+00  0.00000000000E+00  0.99999998245E-14  0.12500000000E+03  0.12500000000E+03 0.  0.
        -13    1    3    3    0    0 -0.35213631080E+01  0.33254754966E+02  0.27998427214E+02  0.43614238690E+02  0.10566000000E+00 0.  1.
         23    2    1    0    0    0 -0.10931704513E+02 -0.17613518778E+02  0.20996493088E+02  0.95494222103E+02  0.90821558706E+02 0.  0.
         13    1    3    3    0    0 -0.74103414046E+01 -0.50868273744E+02 -0.70019341260E+01  0.51879983413E+02  0.10566000000E+00 0. -1.
         22    1    1    0    0    0  0.10931704513E+02  0.17613518778E+02 -0.20996493088E+02  0.29505777897E+02  0.00000000000E+00 0. -1.
</event>
<event>
 5    1  0.6835419E-004  0.9118800E+02  0.7818608E-02  0.1130116E+00
         25   -1    0    0    0    0  0.00000000000E+00  0.00000000000E+00  0.99999998245E-14  0.12500000000E+03  0.12500000000E+03 0.  0.
        -13    1    3    3    0    0  0.45313031062E+02 -0.42228778091E+02 -0.48481379653E+01  0.62129349658E+02  0.10566000000E+00 0.  1.
         23    2    1    0    0    0  0.24372325891E+02 -0.16232661435E+02 -0.14992187461E+01  0.95678383001E+02  0.91074671288E+02 0.  0.
         13    1    3    3    0    0 -0.20940705172E+02  0.25996116656E+02  0.33489192192E+01  0.33549033343E+02  0.10566000000E+00 0. -1.
         22    1    1    0    0    0 -0.24372325891E+02  0.16232661435E+02  0.14992187461E+01  0.29321616999E+02  0.00000000000E+00 0.  1.
</event>
<event>
 5    1  0.6835419E-004  0.9118800E+02  0.7818608E-02  0.1130116E+00
         25   -1    0    0    0    0  0.00000000000E+00  0.00000000000E+00  0.99999998245E-14  0.12500000000E+03  0.12500000000E+03 0.  0.
        -13    1    3    3    0    0 -0.28143155151E+02 -0.51763773408E+01  0.18613288359E+02  0.34136457517E+02  0.10566000000E+00 0. -1.
         23    2    1    0    0    0  0.29859581134E+02  0.40120237004E+01  0.44626966515E+01  0.94543365566E+02  0.89503303802E+02 0.  0.
         13    1    3    3    0    0  0.58002736285E+02  0.91884010413E+01 -0.14150591708E+02  0.60406908048E+02  0.10566000000E+00 0.  1.
         22    1    1    0    0    0 -0.29859581134E+02 -0.40120237004E+01 -0.44626966515E+01  0.30456634434E+02  0.00000000000E+00 0.  1.
</event>
<event>
 5    1  0.6835419E-004  0.9118800E+02  0.7818608E-02  0.1130116E+00
         25   -1    0    0    0    0  0.00000000000E+00  0.00000000000E+00  0.99999998245E-14  0.12500000000E+03  0.12500000000E+03 0.  0.
        -13    1    3    3    0    0  0.29137253324E+01  0.28597216454E+02  0.20378409024E+02  0.35236079558E+02  0.10566000000E+00 0.  1.
         23    2    1    0    0    0  0.20949412332E+02 -0.19217856116E+02 -0.10208294506E+02  0.94793822693E+02  0.89852410504E+02 0.  0.
         13    1    3    3    0    0  0.18035687000E+02 -0.47815072571E+02 -0.30586703530E+02  0.59557743135E+02  0.10566000000E+00 0. -1.
         22    1    1    0    0    0 -0.20949412332E+02  0.19217856116E+02  0.10208294506E+02  0.30206177307E+02  0.00000000000E+00 0. -1.
</event>
<event>
 5    1  0.6835419E-004  0.9118800E+02  0.7818608E-02  0.1130116E+00
         25   -1    0    0    0    0  0.00000000000E+00  0.00000000000E+00  0.99999998245E-14  0.12500000000E+03  0.12500000000E+03 0.  0.
        -13    1    3    3    0    0 -0.18439934658E+01  0.27301336469E+02  0.37286235020E+02  0.46249732657E+02  0.10566000000E+00 0.  1.
         23    2    1    0    0    0  0.67220069989E+01  0.25992903520E+02 -0.11494942668E+02  0.95794690235E+02  0.91234163332E+02 0.  0.
         13    1    3    3    0    0  0.85660004647E+01 -0.13084329492E+01 -0.48781177688E+02  0.49544957578E+02  0.10566000000E+00 0. -1.
         22    1    1    0    0    0 -0.67220069989E+01 -0.25992903520E+02  0.11494942668E+02  0.29205309765E+02  0.00000000000E+00 0. -1.
</event>
<event>
 5    1  0.6835419E-004  0.9118800E+02  0.7818608E-02  0.1130116E+00
         25   -1    0    0    0    0  0.00000000000E+00  0.00000000000E+00  0.99999998245E-14  0.12500000000E+03  0.12500000000E+03 0.  0.
        -13    1    3    3    0    0  0.15398295722E+02 -0.28157855183E+02 -0.14834232705E+02  0.35355875659E+02  0.10566000000E+00 0. -1.
         23    2    1    0    0    0 -0.21476624380E+02  0.18891459314E+02 -0.58430396333E+01  0.95806272217E+02  0.91250030434E+02 0.  0.
         13    1    3    3    0    0 -0.36874920101E+02  0.47049314497E+02  0.89911930717E+01  0.60450396557E+02  0.10566000000E+00 0.  1.
         22    1    1    0    0    0  0.21476624380E+02 -0.18891459314E+02  0.58430396333E+01  0.29193727783E+02  0.00000000000E+00 0.  1.
</event>
<event>
 5    1  0.6835419E-004  0.9118800E+02  0.7818608E-02  0.1130116E+00
         25   -1    0    0    0    0  0.00000000000E+00  0.00000000000E+00  0.99999998245E-14  0.12500000000E+03  0.12500000000E+03 0.  0.
        -13    1    3    3    0    0  0.14993448474E+02  0.31156740907E+02  0.29336845745E+01  0.34701061516E+02  0.10566000000E+00 0.  1.
         23    2    1    0    0    0 -0.25123010028E+02 -0.19107252453E+01 -0.21250607231E+02  0.92039344492E+02  0.85935069227E+02 0.  0.
         13    1    3    3    0    0 -0.40116458502E+02 -0.33067466152E+02 -0.24184291806E+02  0.57338282976E+02  0.10566000000E+00 0. -1.
         22    1    1    0    0    0  0.25123010028E+02  0.19107252453E+01  0.21250607231E+02  0.32960655508E+02  0.00000000000E+00 0. -1.
</event>
<event>
 5    1  0.6835419E-004  0.9118800E+02  0.7818608E-02  0.1130116E+00
         25   -1    0    0    0    0  0.00000000000E+00  0.00000000000E+00  0.99999998245E-14  0.12500000000E+03  0.12500000000E+03 0.  0.
        -13    1    3    3    0    0 -0.23165709086E+02  0.30386720979E+02  0.16307953921E+02  0.41544715842E+02  0.10566000000E+00 0.  1.
         23    2    1    0    0    0  0.23973035255E+02  0.42544254601E+01  0.16755019639E+02  0.95444336610E+02  0.90752874073E+02 0.  0.
         13    1    3    3    0    0  0.47138744341E+02 -0.26132295519E+02  0.44706571766E+00  0.53899620768E+02  0.10566000000E+00 0. -1.
         22    1    1    0    0    0 -0.23973035255E+02 -0.42544254601E+01 -0.16755019639E+02  0.29555663390E+02  0.00000000000E+00 0. -1.
</event>
<event>
 5    1  0.6835419E-004  0.9118800E+02  0.7818608E-02  0.1130116E+00
         25   -1    0    0    0    0  0.00000000000E+00  0.00000000000E+00  0.99999998245E-14  0.12500000000E+03  0.12500000000E+03 0.  0.
        -13    1    3    3    0    0  0.29733852997E+02 -0.74629993544E+01  0.17119593398E+02  0.35112533596E+02  0.10566000000E+00 0. -1.
         23    2    1    0    0    0 -0.15596033921E+02  0.20427698764E+02 -0.12927110142E+02  0.96231313421E+02  0.91830432620E+02 0.  0.
         13    1    3    3    0    0 -0.45329886918E+02  0.27890698119E+02 -0.30046703540E+02  0.61118779824E+02  0.10566000000E+00 0.  1.
         22    1    1    0    0    0  0.15596033921E+02 -0.20427698764E+02  0.12927110142E+02  0.28768686579E+02  0.00000000000E+00 0.  1.
</event>
<event>
 5    1  0.6835419E-004  0.9118800E+02  0.7818608E-02  0.1130116E+00
         25   -1    0    0    0    0  0.00000000000E+00  0.00000000000E+00  0.99999998245E-14  0.12500000000E+03  0.12500000000E+03 0.  0.
        -13    1    3    3    0    0  0.32411548694E+02 -0.51465331053E+01 -0.18850085852E+02  0.37846164831E+02  0.10566000000E+00 0. -1.
         23    2    1    0    0    0 -0.16980049791E+02 -0.24708696856E+02 -0.15927622502E+02  0.91051053775E+02  0.84485285368E+02 0.  0.
         13    1    3    3    0    0 -0.49391598485E+02 -0.19562163751E+02  0.29224633499E+01  0.53204888944E+02  0.10566000000E+00 0.  1.
         22    1    1    0    0    0  0.16980049791E+02  0.24708696856E+02  0.15927622502E+02  0.33948946225E+02  0.00000000000E+00 0. -1.
</event>
<event>
 5    1  0.6835419E-004  0.9118800E+02  0.7818608E-02  0.1130116E+00
         25   -1    0    0    0    0  0.00000000000E+00  0.00000000000E+00  0.99999998245E-14  0.12500000000E+03  0.12500000000E+03 0.  0.
        -13    1    3    3    0    0 -0.15615423560E+02  0.19049212912E+02 -0.31096151949E+02  0.39669834832E+02  0.10566000000E+00 0.  1.
         23    2    1    0    0    0 -0.18240242200E+02 -0.14835506944E+02  0.15126751822E+02  0.97042580189E+02  0.92928171440E+02 0.  0.
         13    1    3    3    0    0 -0.26248186397E+01 -0.33884719856E+02  0.46222903771E+02  0.57372745356E+02  0.10566000000E+00 0. -1.
         22    1    1    0    0    0  0.18240242200E+02  0.14835506944E+02 -0.15126751822E+02  0.27957419811E+02  0.00000000000E+00 0. -1.
</event>
<event>
 5    1  0.6835419E-004  0.9118800E+02  0.7818608E-02  0.1130116E+00
         25   -1    0    0    0    0  0.00000000000E+00  0.00000000000E+00  0.99999998245E-14  0.12500000000E+03  0.12500000000E+03 0.  0.
        -13    1    3    3    0    0 -0.11952383788E+02 -0.37648445029E+02  0.66949364721E+01  0.40063677187E+02  0.10566000000E+00 0. -1.
         23    2    1    0    0    0  0.92714010219E+01  0.11206071695E+02  0.24738850787E+02  0.96302514779E+02  0.91927301140E+02 0.  0.
         13    1    3    3    0    0  0.21223784810E+02  0.48854516723E+02  0.18043914315E+02  0.56238837593E+02  0.10566000000E+00 0.  1.
         22    1    1    0    0    0 -0.92714010219E+01 -0.11206071695E+02 -0.24738850787E+02  0.28697485221E+02  0.00000000000E+00 0.  1.
</event>
<event>
 5    1  0.6835419E-004  0.9118800E+02  0.7818608E-02  0.1130116E+00
         25   -1    0    0    0    0  0.00000000000E+00  0.00000000000E+00  0.99999998245E-14  0.12500000000E+03  0.12500000000E+03 0.  0.
        -13    1    3    3    0    0 -0.17023519311E+02 -0.34340464697E+02 -0.38063653287E+02  0.54017780322E+02  0.10566000000E+00 0.  1.
         23    2    1    0    0    0 -0.10646908768E+02  0.47556725459E+01 -0.27672692697E+02  0.94970830701E+02  0.90098322267E+02 0.  0.
         13    1    3    3    0    0  0.63766105429E+01  0.39096137243E+02  0.10390960590E+02  0.40953050379E+02  0.10566000000E+00 0. -1.
         22    1    1    0    0    0  0.10646908768E+02 -0.47556725459E+01  0.27672692697E+02  0.30029169299E+02  0.00000000000E+00 0.  1.
</event>
<event>
 5    1  0.6835419E-004  0.9118800E+02  0.7818608E-02  0.1130116E+00
         25   -1    0    0    0    0  0.00000000000E+00  0.00000000000E+00  0.99999998245E-14  0.12500000000E+03  0.12500000000E+03 0.  0.
        -13    1    3    3    0    0 -0.13235579116E+01  0.19751655263E+02  0.29510490537E+02  0.35535333219E+02  0.10566000000E+00 0.  1.
         23    2    1    0    0    0  0.77474459677E+01  0.78281339287E+01 -0.27971790090E+02  0.94938003382E+02  0.90052767007E+02 0.  0.
         13    1    3    3    0    0  0.90710038793E+01 -0.11923521335E+02 -0.57482280627E+02  0.59402670163E+02  0.10566000000E+00 0. -1.
         22    1    1    0    0    0 -0.77474459677E+01 -0.78281339287E+01  0.27971790090E+02  0.30061996618E+02  0.00000000000E+00 0. -1.
</event>
<event>
 5    1  0.6835419E-004  0.9118800E+02  0.7818608E-02  0.1130116E+00
         25   -1    0    0    0    0  0.00000000000E+00  0.00000000000E+00  0.99999998245E-14  0.12500000000E+03  0.12500000000E+03 0.  0.
        -13    1    3    3    0    0  0.17756770029E+02 -0.12853079885E+02  0.38033387068E+02  0.43898225935E+02  0.10566000000E+00 0. -1.
         23    2    1    0    0    0 -0.25181832735E+02  0.40054798839E+01  0.13873558230E+02  0.95971665791E+02  0.91476316321E+02 0.  0.
         13    1    3    3    0    0 -0.42938602765E+02  0.16858559769E+02 -0.24159828838E+02  0.52073439855E+02  0.10566000000E+00 0.  1.
         22    1    1    0    0    0  0.25181832735E+02 -0.40054798839E+01 -0.13873558230E+02  0.29028334209E+02  0.00000000000E+00 0. -1.
</event>
<event>
 5    1  0.6835419E-004  0.9118800E+02  0.7818608E-02  0.1130116E+00
         25   -1    0    0    0    0  0.00000000000E+00  0.00000000000E+00  0.99999998245E-14  0.12500000000E+03  0.12500000000E+03 0.  0.
        -13    1    3    3    0    0  0.11601453346E+02  0.33632513799E+02  0.17287578631E+02  0.39555167085E+02  0.10566000000E+00 0.  1.
         23    2    1    0    0    0 -0.19618563716E+02  0.49441587121E+01 -0.20389343646E+02  0.96276175708E+02  0.91891479077E+02 0.  0.
         13    1    3    3    0    0 -0.31220017061E+02 -0.28688355086E+02 -0.37676922277E+02  0.56721008623E+02  0.10566000000E+00 0. -1.
         22    1    1    0    0    0  0.19618563716E+02 -0.49441587121E+01  0.20389343646E+02  0.28723824292E+02  0.00000000000E+00 0. -1.
</event>
<event>
 5    1  0.6835419E-004  0.9118800E+02  0.7818608E-02  0.1130116E+00
         25   -1    0    0    0    0  0.00000000000E+00  0.00000000000E+00  0.99999998245E-14  0.12500000000E+03  0.12500000000E+03 0.  0.
        -13    1    3    3    0    0 -0.21544863382E+02 -0.30528358059E+02 -0.10380969735E+02  0.38780632803E+02  0.10566000000E+00 0.  1.
         23    2    1    0    0    0  0.31609353172E+01  0.19460734611E+02 -0.21702229779E+02  0.95679384709E+02  0.91076046122E+02 0.  0.
         13    1    3    3    0    0  0.24705798699E+02  0.49989092671E+02 -0.11321260045E+02  0.56898751905E+02  0.10566000000E+00 0. -1.
         22    1    1    0    0    0 -0.31609353172E+01 -0.19460734611E+02  0.21702229779E+02  0.29320615291E+02  0.00000000000E+00 0. -1.
</event>
<event>
 5    1  0.6835419E-004  0.9118800E+02  0.7818608E-02  0.1130116E+00
         25   -1    0    0    0    0  0.00000000000E+00  0.00000000000E+00  0.99999998245E-14  0.12500000000E+03  0.12500000000E+03 0.  0.
        -13    1    3    3    0    0  0.24758956844E+02  0.25620310488E+02  0.10327778762E+02  0.37095558113E+02  0.10566000000E+00 0.  1.
         23    2    1    0    0    0 -0.26286962976E+02 -0.55843204266E+01  0.79666414813E+01  0.96970436435E+02  0.92831078356E+02 0.  0.
         13    1    3    3    0    0 -0.51045919820E+02 -0.31204630915E+02 -0.23611372811E+01  0.59874878322E+02  0.10566000000E+00 0. -1.
         22    1    1    0    0    0  0.26286962976E+02  0.55843204266E+01 -0.79666414813E+01  0.28029563565E+02  0.00000000000E+00 0. -1.
</event>
<event>
 5    1  0.6835419E-004  0.9118800E+02  0.7818608E-02  0.1130116E+00
         25   -1    0    0    0    0  0.00000000000E+00  0.00000000000E+00  0.99999998245E-14  0.12500000000E+03  0.12500000000E+03 0.  0.
        -13    1    3    3    0    0  0.64628093793E+01 -0.12161169996E+02  0.45982621089E+02  0.48000776733E+02  0.10566000000E+00 0.  1.
         23    2    1    0    0    0  0.16043323054E+02 -0.72142833432E+01 -0.98324067940E+01  0.10484782091E+03  0.10289293089E+03 0.  0.
         13    1    3    3    0    0  0.95805136745E+01  0.49468866529E+01 -0.55815027883E+02  0.56847044175E+02  0.10566000000E+00 0. -1.
         22    1    1    0    0    0 -0.16043323054E+02  0.72142833432E+01  0.98324067940E+01  0.20152179091E+02  0.00000000000E+00 0.  1.
</event>
<event>
 5    1  0.6835419E-004  0.9118800E+02  0.7818608E-02  0.1130116E+00
         25   -1    0    0    0    0  0.00000000000E+00  0.00000000000E+00  0.99999998245E-14  0.12500000000E+03  0.12500000000E+03 0.  0.
        -13    1    3    3    0    0 -0.38937458442E+02 -0.11434488721E+02 -0.96869120086E+01  0.41721944232E+02  0.10566000000E+00 0. -1.
         23    2    1    0    0    0  0.96731946510E+01 -0.19850494067E+01 -0.28609089667E+02  0.94734654678E+02  0.89770059984E+02 0.  0.
         13    1    3    3    0    0  0.48610653093E+02  0.94494393141E+01 -0.18922177658E+02  0.53012710446E+02  0.10566000000E+00 0.  1.
         22    1    1    0    0    0 -0.96731946510E+01  0.19850494067E+01  0.28609089667E+02  0.30265345322E+02  0.00000000000E+00 0.  1.
</event>
<event>
 5    1  0.6835419E-004  0.9118800E+02  0.7818608E-02  0.1130116E+00
         25   -1    0    0    0    0  0.00000000000E+00  0.00000000000E+00  0.99999998245E-14  0.12500000000E+03  0.12500000000E+03 0.  0.
        -13    1    3    3    0    0  0.82312657396E+01  0.32164867339E+02 -0.80911346624E+01  0.34173235884E+02  0.10566000000E+00 0. -1.
         23    2    1    0    0    0 -0.19116604766E+02 -0.14625252647E+02  0.18595870587E+02  0.94583737974E+02  0.89559670016E+02 0.  0.
         13    1    3    3    0    0 -0.27347870506E+02 -0.46790119986E+02  0.26687005249E+02  0.60410502090E+02  0.10566000000E+00 0.  1.
         22    1    1    0    0    0  0.19116604766E+02  0.14625252647E+02 -0.18595870587E+02  0.30416262026E+02  0.00000000000E+00 0.  1.
</event>
<event>
 5    1  0.6835419E-004  0.9118800E+02  0.7818608E-02  0.1130116E+00
         25   -1    0    0    0    0  0.00000000000E+00  0.00000000000E+00  0.99999998245E-14  0.12500000000E+03  0.12500000000E+03 0.  0.
        -13    1    3    3    0    0  0.17228571849E+02 -0.14187277051E+02  0.25608932635E+02  0.33969561564E+02  0.10566000000E+00 0.  1.
         23    2    1    0    0    0 -0.10920195851E+02  0.22492003036E+01 -0.26960651330E+02  0.95824902749E+02  0.91275548135E+02 0.  0.
         13    1    3    3    0    0 -0.28148767700E+02  0.16436477355E+02 -0.52569583965E+02  0.61855341186E+02  0.10566000000E+00 0. -1.
         22    1    1    0    0    0  0.10920195851E+02 -0.22492003036E+01  0.26960651330E+02  0.29175097251E+02  0.00000000000E+00 0. -1.
</event>
<event>
 5    1  0.6835419E-004  0.9118800E+02  0.7818608E-02  0.1130116E+00
         25   -1    0    0    0    0  0.00000000000E+00  0.00000000000E+00  0.99999998245E-14  0.12500000000E+03  0.12500000000E+03 0.  0.
        -13    1    3    3    0    0 -0.75025109051E-01 -0.34305228719E+02  0.38982701175E+02  0.51927993425E+02  0.10566000000E+00 0.  1.
         23    2    1    0    0    0  0.11066083369E+02  0.66615525408E+01  0.25403078741E+02  0.96501738774E+02  0.92197802000E+02 0.  0.
         13    1    3    3    0    0  0.11141108478E+02  0.40966781260E+02 -0.13579622435E+02  0.44573745349E+02  0.10566000000E+00 0. -1.
         22    1    1    0    0    0 -0.11066083369E+02 -0.66615525408E+01 -0.25403078741E+02  0.28498261226E+02  0.00000000000E+00 0.  1.
</event>
<event>
 5    1  0.6835419E-004  0.9118800E+02  0.7818608E-02  0.1130116E+00
         25   -1    0    0    0    0  0.00000000000E+00  0.00000000000E+00  0.99999998245E-14  0.12500000000E+03  0.12500000000E+03 0.  0.
        -13    1    3    3    0    0 -0.19753160776E+02 -0.28763360699E+01 -0.55960515848E+02  0.59414233714E+02  0.10566000000E+00 0. -1.
         23    2    1    0    0    0 -0.23713196516E+01 -0.13434081460E+02 -0.26221105748E+02  0.95442529062E+02  0.90750384383E+02 0.  0.
         13    1    3    3    0    0  0.17381841125E+02 -0.10557745390E+02  0.29739410100E+02  0.36028295349E+02  0.10566000000E+00 0.  1.
         22    1    1    0    0    0  0.23713196516E+01  0.13434081460E+02  0.26221105748E+02  0.29557470938E+02  0.00000000000E+00 0. -1.
</event>
<event>
 5    1  0.6835419E-004  0.9118800E+02  0.7818608E-02  0.1130116E+00
         25   -1    0    0    0    0  0.00000000000E+00  0.00000000000E+00  0.99999998245E-14  0.12500000000E+03  0.12500000000E+03 0.  0.
        -13    1    3    3    0    0  0.40899207188E+01  0.37272039307E+02 -0.63981720014E+01  0.38037877630E+02  0.10566000000E+00 0.  1.
         23    2    1    0    0    0 -0.25000025926E+02 -0.12591609349E+02 -0.83169522719E+01  0.95798602476E+02  0.91239523338E+02 0.  0.
         13    1    3    3    0    0 -0.29089946645E+02 -0.49863648655E+02 -0.19187802705E+01  0.57760724846E+02  0.10566000000E+00 0. -1.
         22    1    1    0    0    0  0.25000025926E+02  0.12591609349E+02  0.83169522719E+01  0.29201397524E+02  0.00000000000E+00 0. -1.
</event>
<event>
 5    1  0.6835419E-004  0.9118800E+02  0.7818608E-02  0.1130116E+00
         25   -1    0    0    0    0  0.00000000000E+00  0.00000000000E+00  0.99999998245E-14  0.12500000000E+03  0.12500000000E+03 0.  0.
        -13    1    3    3    0    0  0.17033410880E+02  0.30910251100E+02  0.78927263648E+00  0.35301768010E+02  0.10566000000E+00 0.  1.
         23    2    1    0    0    0 -0.20361148162E+02 -0.14900203766E+02  0.14352885229E+02  0.95972465810E+02  0.91477409520E+02 0.  0.
         13    1    3    3    0    0 -0.37394559042E+02 -0.45810454866E+02  0.13563612593E+02  0.60670697800E+02  0.10566000000E+00 0. -1.
         22    1    1    0    0    0  0.20361148162E+02  0.14900203766E+02 -0.14352885229E+02  0.29027534190E+02  0.00000000000E+00 0. -1.
</event>
<event>
 5    1  0.6835419E-004  0.9118800E+02  0.7818608E-02  0.1130116E+00
         25   -1    0    0    0    0  0.00000000000E+00  0.00000000000E+00  0.99999998245E-14  0.12500000000E+03  0.12500000000E+03 0.  0.
        -13    1    3    3    0    0  0.29418562593E+02 -0.61082071021E+01  0.53559516093E+02  0.61411684126E+02  0.10566000000E+00 0.  1.
         23    2    1    0    0    0  0.86086422289E+01 -0.93045703161E+01  0.25817942702E+02  0.96238047438E+02  0.91839598538E+02 0.  0.
         13    1    3    3    0    0 -0.20809920364E+02 -0.31963632140E+01 -0.27741573391E+02  0.34826363313E+02  0.10566000000E+00 0. -1.
         22    1    1    0    0    0 -0.86086422289E+01  0.93045703161E+01 -0.25817942702E+02  0.28761952562E+02  0.00000000000E+00 0.  1.
</event>
<event>
 5    1  0.6835419E-004  0.9118800E+02  0.7818608E-02  0.1130116E+00
         25   -1    0    0    0    0  0.00000000000E+00  0.00000000000E+00  0.99999998245E-14  0.12500000000E+03  0.12500000000E+03 0.  0.
        -13    1    3    3    0    0  0.31882048640E+02  0.31969346813E+02 -0.42169152238E+01  0.45346418813E+02  0.10566000000E+00 0.  1.
         23    2    1    0    0    0 -0.59417271445E+01  0.30289090353E+01 -0.26317886571E+02  0.97850238215E+02  0.94008295133E+02 0.  0.
         13    1    3    3    0    0 -0.37823775784E+02 -0.28940437778E+02 -0.22100971347E+02  0.52503819403E+02  0.10566000000E+00 0. -1.
         22    1    1    0    0    0  0.59417271445E+01 -0.30289090353E+01  0.26317886571E+02  0.27149761785E+02  0.00000000000E+00 0. -1.
</event>
<event>
 5    1  0.6835419E-004  0.9118800E+02  0.7818608E-02  0.1130116E+00
         25   -1    0    0    0    0  0.00000000000E+00  0.00000000000E+00  0.99999998245E-14  0.12500000000E+03  0.12500000000E+03 0.  0.
        -13    1    3    3    0    0 -0.26460984302E+02  0.26387853574E+02 -0.21708938035E+02  0.43217955310E+02  0.10566000000E+00 0. -1.
         23    2    1    0    0    0  0.15686742761E+01 -0.17260736452E+02 -0.24295461551E+02  0.95156018801E+02  0.90354881994E+02 0.  0.
         13    1    3    3    0    0  0.28029658578E+02 -0.43648590026E+02 -0.25865235157E+01  0.51938063491E+02  0.10566000000E+00 0.  1.
         22    1    1    0    0    0 -0.15686742761E+01  0.17260736452E+02  0.24295461551E+02  0.29843981199E+02  0.00000000000E+00 0. -1.
</event>
<event>
 5    1  0.6835419E-004  0.9118800E+02  0.7818608E-02  0.1130116E+00
         25   -1    0    0    0    0  0.00000000000E+00  0.00000000000E+00  0.99999998245E-14  0.12500000000E+03  0.12500000000E+03 0.  0.
        -13    1    3    3    0    0  0.52302131735E+00 -0.33519682805E+02  0.75927678489E+01  0.34373012295E+02  0.10566000000E+00 0.  1.
         23    2    1    0    0    0 -0.13331683580E+02  0.25971727711E+02  0.13399492467E+01  0.95775696906E+02  0.91208136844E+02 0.  0.
         13    1    3    3    0    0 -0.13854704897E+02  0.59491410515E+02 -0.62528186022E+01  0.61402684611E+02  0.10566000000E+00 0. -1.
         22    1    1    0    0    0  0.13331683580E+02 -0.25971727711E+02 -0.13399492467E+01  0.29224303094E+02  0.00000000000E+00 0. -1.
</event>
<event>
 5    1  0.6835419E-004  0.9118800E+02  0.7818608E-02  0.1130116E+00
         25   -1    0    0    0    0  0.00000000000E+00  0.00000000000E+00  0.99999998245E-14  0.12500000000E+03  0.12500000000E+03 0.  0.
        -13    1    3    3    0    0 -0.20186878617E+02 -0.25213439354E+02 -0.89506199571E+00  0.32311606156E+02  0.10566000000E+00 0.  1.
         23    2    1    0    0    0 -0.11763947747E+02  0.32393468995E+02 -0.11165277680E+00  0.90536399398E+02  0.83720366993E+02 0.  0.
         13    1    3    3    0    0  0.84229308699E+01  0.57606908349E+02  0.78340921891E+00  0.58224793242E+02  0.10566000000E+00 0. -1.
         22    1    1    0    0    0  0.11763947747E+02 -0.32393468995E+02  0.11165277680E+00  0.34463600602E+02  0.00000000000E+00 0. -1.
</event>
<event>
 5    1  0.6835419E-004  0.9118800E+02  0.7818608E-02  0.1130116E+00
         25   -1    0    0    0    0  0.00000000000E+00  0.00000000000E+00  0.99999998245E-14  0.12500000000E+03  0.12500000000E+03 0.  0.
        -13    1    3    3    0    0  0.42023694402E+02 -0.39990784908E+02 -0.64577954579E+01  0.58369238944E+02  0.10566000000E+00 0.  1.
         23    2    1    0    0    0  0.85923615755E+01 -0.28328086220E+02  0.36049562407E+01  0.95178785139E+02  0.90386372229E+02 0.  0.
         13    1    3    3    0    0 -0.33431332826E+02  0.11662698689E+02  0.10062751699E+02  0.36809546194E+02  0.10566000000E+00 0. -1.
         22    1    1    0    0    0 -0.85923615755E+01  0.28328086220E+02 -0.36049562407E+01  0.29821214861E+02  0.00000000000E+00 0.  1.
</event>
<event>
 5    1  0.6835419E-004  0.9118800E+02  0.7818608E-02  0.1130116E+00
         25   -1    0    0    0    0  0.00000000000E+00  0.00000000000E+00  0.99999998245E-14  0.12500000000E+03  0.12500000000E+03 0.  0.
        -13    1    3    3    0    0  0.16998368871E+02  0.30808536652E+02 -0.59047448415E+01  0.35678952487E+02  0.10566000000E+00 0.  1.
         23    2    1    0    0    0  0.45666125702E+01 -0.27067533480E+02 -0.11704655463E+02  0.95158681689E+02  0.90358565848E+02 0.  0.
         13    1    3    3    0    0 -0.12431756301E+02 -0.57876070132E+02 -0.57999106213E+01  0.59479729201E+02  0.10566000000E+00 0. -1.
         22    1    1    0    0    0 -0.45666125702E+01  0.27067533480E+02  0.11704655463E+02  0.29841318311E+02  0.00000000000E+00 0. -1.
</event>
<event>
 5    1  0.6835419E-004  0.9118800E+02  0.7818608E-02  0.1130116E+00
         25   -1    0    0    0    0  0.00000000000E+00  0.00000000000E+00  0.99999998245E-14  0.12500000000E+03  0.12500000000E+03 0.  0.
        -13    1    3    3    0    0  0.23767348194E+02 -0.24319992708E+02  0.48440475828E+02  0.59184793216E+02  0.10566000000E+00 0.  1.
         23    2    1    0    0    0  0.10429459655E+02  0.20722252280E+01  0.27768759984E+02  0.95264973900E+02  0.90505488646E+02 0.  0.
         13    1    3    3    0    0 -0.13337888538E+02  0.26392217936E+02 -0.20671715844E+02  0.36080180684E+02  0.10566000000E+00 0. -1.
         22    1    1    0    0    0 -0.10429459655E+02 -0.20722252280E+01 -0.27768759984E+02  0.29735026100E+02  0.00000000000E+00 0.  1.
</event>
<event>
 5    1  0.6835419E-004  0.9118800E+02  0.7818608E-02  0.1130116E+00
         25   -1    0    0    0    0  0.00000000000E+00  0.00000000000E+00  0.99999998245E-14  0.12500000000E+03  0.12500000000E+03 0.  0.
        -13    1    3    3    0    0 -0.41975080685E+02  0.22438484998E+02 -0.13079367076E+02  0.49360652494E+02  0.10566000000E+00 0.  1.
         23    2    1    0    0    0 -0.46815189987E+00  0.26492977252E+02  0.95809031832E+01  0.96823933638E+02  0.92633597627E+02 0.  0.
         13    1    3    3    0    0  0.41506928785E+02  0.40544922532E+01  0.22660270260E+02  0.47463281143E+02  0.10566000000E+00 0. -1.
         22    1    1    0    0    0  0.46815189987E+00 -0.26492977252E+02 -0.95809031832E+01  0.28176066362E+02  0.00000000000E+00 0.  1.
</event>
<event>
 5    1  0.6835419E-004  0.9118800E+02  0.7818608E-02  0.1130116E+00
         25   -1    0    0    0    0  0.00000000000E+00  0.00000000000E+00  0.99999998245E-14  0.12500000000E+03  0.12500000000E+03 0.  0.
        -13    1    3    3    0    0  0.82887453014E+01  0.83035936685E+01 -0.33393514727E+02  0.35394787135E+02  0.10566000000E+00 0. -1.
         23    2    1    0    0    0  0.38605876980E+01 -0.23040174383E+02  0.17831117087E+02  0.95611183938E+02  0.90982393816E+02 0.  0.
         13    1    3    3    0    0 -0.44281576034E+01 -0.31343768051E+02  0.51224631814E+02  0.60216396803E+02  0.10566000000E+00 0.  1.
         22    1    1    0    0    0 -0.38605876980E+01  0.23040174383E+02 -0.17831117087E+02  0.29388816062E+02  0.00000000000E+00 0.  1.
</event>
<event>
 5    1  0.6835419E-004  0.9118800E+02  0.7818608E-02  0.1130116E+00
         25   -1    0    0    0    0  0.00000000000E+00  0.00000000000E+00  0.99999998245E-14  0.12500000000E+03  0.12500000000E+03 0.  0.
        -13    1    3    3    0    0  0.20007785444E+01  0.52828925893E+01 -0.59241155306E+02  0.59509979960E+02  0.10566000000E+00 0. -1.
         23    2    1    0    0    0 -0.11207223787E+02 -0.38288351413E+01 -0.26631901093E+02  0.95853473631E+02  0.91314666991E+02 0.  0.
         13    1    3    3    0    0 -0.13208002331E+02 -0.91117277305E+01  0.32609254213E+02  0.36343493671E+02  0.10566000000E+00 0.  1.
         22    1    1    0    0    0  0.11207223787E+02  0.38288351413E+01  0.26631901093E+02  0.29146526369E+02  0.00000000000E+00 0. -1.
</event>
<event>
 5    1  0.6835419E-004  0.9118800E+02  0.7818608E-02  0.1130116E+00
         25   -1    0    0    0    0  0.00000000000E+00  0.00000000000E+00  0.99999998245E-14  0.12500000000E+03  0.12500000000E+03 0.  0.
        -13    1    3    3    0    0  0.29729076003E+02 -0.75670291745E+01  0.52216171657E+02  0.60560858952E+02  0.10566000000E+00 0.  1.
         23    2    1    0    0    0  0.49330816584E+01 -0.84879697938E+01  0.28386921912E+02  0.94963384653E+02  0.90087991227E+02 0.  0.
         13    1    3    3    0    0 -0.24795994344E+02 -0.92094061934E+00 -0.23829249745E+02  0.34402525701E+02  0.10566000000E+00 0. -1.
         22    1    1    0    0    0 -0.49330816584E+01  0.84879697938E+01 -0.28386921912E+02  0.30036615347E+02  0.00000000000E+00 0.  1.
</event>
<event>
 5    1  0.6835419E-004  0.9118800E+02  0.7818608E-02  0.1130116E+00
         25   -1    0    0    0    0  0.00000000000E+00  0.00000000000E+00  0.99999998245E-14  0.12500000000E+03  0.12500000000E+03 0.  0.
        -13    1    3    3    0    0 -0.32151945115E+02 -0.35397640128E+02 -0.47039732995E+01  0.48050796353E+02  0.10566000000E+00 0.  1.
         23    2    1    0    0    0 -0.25851628478E+02  0.10959228439E+02  0.65477337023E+01  0.96168000423E+02  0.91744210203E+02 0.  0.
         13    1    3    3    0    0  0.63003166368E+01  0.46356868567E+02  0.11251707002E+02  0.48117204070E+02  0.10566000000E+00 0. -1.
         22    1    1    0    0    0  0.25851628478E+02 -0.10959228439E+02 -0.65477337023E+01  0.28831999577E+02  0.00000000000E+00 0. -1.
</event>
<event>
 5    1  0.6835419E-004  0.9118800E+02  0.7818608E-02  0.1130116E+00
         25   -1    0    0    0    0  0.00000000000E+00  0.00000000000E+00  0.99999998245E-14  0.12500000000E+03  0.12500000000E+03 0.  0.
        -13    1    3    3    0    0 -0.47664011973E+02  0.19901591248E+02 -0.15192095669E+02  0.53839969414E+02  0.10566000000E+00 0. -1.
         23    2    1    0    0    0 -0.19236427360E+02  0.15306317266E+02  0.15509616913E+02  0.95933323158E+02  0.91423907101E+02 0.  0.
         13    1    3    3    0    0  0.28427584613E+02 -0.45952739820E+01  0.30701712583E+02  0.42093353744E+02  0.10566000000E+00 0.  1.
         22    1    1    0    0    0  0.19236427360E+02 -0.15306317266E+02 -0.15509616913E+02  0.29066676842E+02  0.00000000000E+00 0. -1.
</event>
<event>
 5    1  0.6835419E-004  0.9118800E+02  0.7818608E-02  0.1130116E+00
         25   -1    0    0    0    0  0.00000000000E+00  0.00000000000E+00  0.99999998245E-14  0.12500000000E+03  0.12500000000E+03 0.  0.
        -13    1    3    3    0    0 -0.36370906062E+00  0.39270203660E+02  0.44880687917E+02  0.59636972523E+02  0.10566000000E+00 0.  1.
         23    2    1    0    0    0 -0.57086209677E+01  0.26489470295E+02  0.11908935725E+02  0.95400960490E+02  0.90693109564E+02 0.  0.
         13    1    3    3    0    0 -0.53449119071E+01 -0.12780733365E+02 -0.32971752192E+02  0.35763987967E+02  0.10566000000E+00 0. -1.
         22    1    1    0    0    0  0.57086209677E+01 -0.26489470295E+02 -0.11908935725E+02  0.29599039510E+02  0.00000000000E+00 0.  1.
</event>
<event>
 5    1  0.6835419E-004  0.9118800E+02  0.7818608E-02  0.1130116E+00
         25   -1    0    0    0    0  0.00000000000E+00  0.00000000000E+00  0.99999998245E-14  0.12500000000E+03  0.12500000000E+03 0.  0.
        -13    1    3    3    0    0 -0.26361656731E+02 -0.41816726119E+02 -0.35920923806E+02  0.61105641801E+02  0.10566000000E+00 0. -1.
         23    2    1    0    0    0 -0.56560862108E+01 -0.26281513858E+02 -0.16632222929E+02  0.93387658716E+02  0.87874425626E+02 0.  0.
         13    1    3    3    0    0  0.20705570520E+02  0.15535212261E+02  0.19288700876E+02  0.32282016915E+02  0.10566000000E+00 0.  1.
         22    1    1    0    0    0  0.56560862108E+01  0.26281513858E+02  0.16632222929E+02  0.31612341284E+02  0.00000000000E+00 0. -1.
</event>
<event>
 5    1  0.6835419E-004  0.9118800E+02  0.7818608E-02  0.1130116E+00
         25   -1    0    0    0    0  0.00000000000E+00  0.00000000000E+00  0.99999998245E-14  0.12500000000E+03  0.12500000000E+03 0.  0.
        -13    1    3    3    0    0 -0.30117026324E+02  0.19327725260E+02 -0.99365244607E+01  0.37139492736E+02  0.10566000000E+00 0.  1.
         23    2    1    0    0    0  0.25461257106E+02  0.11431671637E+02  0.78165151532E+01  0.96016269409E+02  0.91537245711E+02 0.  0.
         13    1    3    3    0    0  0.55578283430E+02 -0.78960536232E+01  0.17753039614E+02  0.58876776673E+02  0.10566000000E+00 0. -1.
         22    1    1    0    0    0 -0.25461257106E+02 -0.11431671637E+02 -0.78165151532E+01  0.28983730591E+02  0.00000000000E+00 0. -1.
</event>
<event>
 5    1  0.6835419E-004  0.9118800E+02  0.7818608E-02  0.1130116E+00
         25   -1    0    0    0    0  0.00000000000E+00  0.00000000000E+00  0.99999998245E-14  0.12500000000E+03  0.12500000000E+03 0.  0.
        -13    1    3    3    0    0  0.23945010581E+02 -0.27921241215E+02 -0.60746055559E+01  0.37280976911E+02  0.10566000000E+00 0.  1.
         23    2    1    0    0    0  0.72838991542E+01  0.27539284360E+02  0.45378698372E+01  0.96154556121E+02  0.91725890730E+02 0.  0.
         13    1    3    3    0    0 -0.16661111427E+02  0.55460525575E+02  0.10612475393E+02  0.58873579210E+02  0.10566000000E+00 0. -1.
         22    1    1    0    0    0 -0.72838991542E+01 -0.27539284360E+02 -0.45378698372E+01  0.28845443879E+02  0.00000000000E+00 0. -1.
</event>
<event>
 5    1  0.6835419E-004  0.9118800E+02  0.7818608E-02  0.1130116E+00
         25   -1    0    0    0    0  0.00000000000E+00  0.00000000000E+00  0.99999998245E-14  0.12500000000E+03  0.12500000000E+03 0.  0.
        -13    1    3    3    0    0  0.19658464982E+02 -0.22720225833E+02 -0.28510443174E+02  0.41418841623E+02  0.10566000000E+00 0.  1.
         23    2    1    0    0    0  0.78665286889E+01  0.26659452143E+02 -0.96769150091E+01  0.95567851824E+02  0.90922840672E+02 0.  0.
         13    1    3    3    0    0 -0.11791936293E+02  0.49379677976E+02  0.18833528165E+02  0.54149010201E+02  0.10566000000E+00 0. -1.
         22    1    1    0    0    0 -0.78665286889E+01 -0.26659452143E+02  0.96769150091E+01  0.29432148176E+02  0.00000000000E+00 0. -1.
</event>
<event>
 5    1  0.6835419E-004  0.9118800E+02  0.7818608E-02  0.1130116E+00
         25   -1    0    0    0    0  0.00000000000E+00  0.00000000000E+00  0.99999998245E-14  0.12500000000E+03  0.12500000000E+03 0.  0.
        -13    1    3    3    0    0  0.30743230779E+02 -0.30587779398E+02  0.58937693415E+01  0.43766495957E+02  0.10566000000E+00 0. -1.
         23    2    1    0    0    0  0.19602414206E+02  0.14925335000E+02 -0.16140888614E+02  0.95545822829E+02  0.90892550340E+02 0.  0.
         13    1    3    3    0    0 -0.11140816573E+02  0.45513114398E+02 -0.22034657956E+02  0.51779326873E+02  0.10566000000E+00 0.  1.
         22    1    1    0    0    0 -0.19602414206E+02 -0.14925335000E+02  0.16140888614E+02  0.29454177171E+02  0.00000000000E+00 0. -1.
</event>
<event>
 5    1  0.6835419E-004  0.9118800E+02  0.7818608E-02  0.1130116E+00
         25   -1    0    0    0    0  0.00000000000E+00  0.00000000000E+00  0.99999998245E-14  0.12500000000E+03  0.12500000000E+03 0.  0.
        -13    1    3    3    0    0 -0.12654019462E+02 -0.24333365869E+02 -0.28582078157E+02  0.39612917829E+02  0.10566000000E+00 0. -1.
         23    2    1    0    0    0  0.14274545440E+02 -0.15426077993E+02  0.20076419934E+02  0.95934742954E+02  0.91425848307E+02 0.  0.
         13    1    3    3    0    0  0.26928564902E+02  0.89072878761E+01  0.48658498091E+02  0.56321825126E+02  0.10566000000E+00 0.  1.
         22    1    1    0    0    0 -0.14274545440E+02  0.15426077993E+02 -0.20076419934E+02  0.29065257046E+02  0.00000000000E+00 0.  1.
</event>
<event>
 5    1  0.6835419E-004  0.9118800E+02  0.7818608E-02  0.1130116E+00
         25   -1    0    0    0    0  0.00000000000E+00  0.00000000000E+00  0.99999998245E-14  0.12500000000E+03  0.12500000000E+03 0.  0.
        -13    1    3    3    0    0  0.19031373500E+02  0.37466360145E+02  0.37937808817E+02  0.56614572521E+02  0.10566000000E+00 0.  1.
         23    2    1    0    0    0  0.15483658482E+02  0.26053938694E+02  0.18432438005E+01  0.94636387745E+02  0.89633124102E+02 0.  0.
         13    1    3    3    0    0 -0.35477150181E+01 -0.11412421451E+02 -0.36094565016E+02  0.38021815225E+02  0.10566000000E+00 0. -1.
         22    1    1    0    0    0 -0.15483658482E+02 -0.26053938694E+02 -0.18432438005E+01  0.30363612255E+02  0.00000000000E+00 0.  1.
</event>
<event>
 5    1  0.6835419E-004  0.9118800E+02  0.7818608E-02  0.1130116E+00
         25   -1    0    0    0    0  0.00000000000E+00  0.00000000000E+00  0.99999998245E-14  0.12500000000E+03  0.12500000000E+03 0.  0.
        -13    1    3    3    0    0 -0.25163745633E+02  0.35875637968E+02 -0.18169690105E+02  0.47438637168E+02  0.10566000000E+00 0.  1.
         23    2    1    0    0    0 -0.19539543155E+02  0.71089748806E+01  0.20392559059E+02  0.95876337189E+02  0.91345959392E+02 0.  0.
         13    1    3    3    0    0  0.56242024778E+01 -0.28766663087E+02  0.38562249164E+02  0.48437700021E+02  0.10566000000E+00 0. -1.
         22    1    1    0    0    0  0.19539543155E+02 -0.71089748806E+01 -0.20392559059E+02  0.29123662811E+02  0.00000000000E+00 0. -1.
</event>
<event>
 5    1  0.6835419E-004  0.9118800E+02  0.7818608E-02  0.1130116E+00
         25   -1    0    0    0    0  0.00000000000E+00  0.00000000000E+00  0.99999998245E-14  0.12500000000E+03  0.12500000000E+03 0.  0.
        -13    1    3    3    0    0  0.43642042520E+02  0.38746186317E+02  0.17830241098E+02  0.61023138981E+02  0.10566000000E+00 0.  1.
         23    2    1    0    0    0  0.25525516943E+02  0.99196915807E+01  0.73769733107E+01  0.96638546732E+02  0.92383097388E+02 0.  0.
         13    1    3    3    0    0 -0.18116525578E+02 -0.28826494736E+02 -0.10453267787E+02  0.35615407751E+02  0.10566000000E+00 0. -1.
         22    1    1    0    0    0 -0.25525516943E+02 -0.99196915807E+01 -0.73769733107E+01  0.28361453268E+02  0.00000000000E+00 0.  1.
</event>
<event>
 5    1  0.6835419E-004  0.9118800E+02  0.7818608E-02  0.1130116E+00
         25   -1    0    0    0    0  0.00000000000E+00  0.00000000000E+00  0.99999998245E-14  0.12500000000E+03  0.12500000000E+03 0.  0.
        -13    1    3    3    0    0 -0.28281160276E+02 -0.17951072911E+02 -0.48605183429E+02  0.59029992931E+02  0.10566000000E+00 0.  1.
         23    2    1    0    0    0 -0.25724312144E+01 -0.18585215865E+02 -0.22966784659E+02  0.95343620439E+02  0.90614044771E+02 0.  0.
         13    1    3    3    0    0  0.25708729062E+02 -0.63414295437E+00  0.25638398771E+02  0.36313627508E+02  0.10566000000E+00 0. -1.
         22    1    1    0    0    0  0.25724312144E+01  0.18585215865E+02  0.22966784659E+02  0.29656379561E+02  0.00000000000E+00 0.  1.
</event>
<event>
 5    1  0.6835419E-004  0.9118800E+02  0.7818608E-02  0.1130116E+00
         25   -1    0    0    0    0  0.00000000000E+00  0.00000000000E+00  0.99999998245E-14  0.12500000000E+03  0.12500000000E+03 0.  0.
        -13    1    3    3    0    0  0.22277771327E+02 -0.22952629069E+02 -0.34709657290E+02  0.47200569379E+02  0.10566000000E+00 0. -1.
         23    2    1    0    0    0  0.24438693072E+02 -0.14804246958E+02  0.11519585928E+02  0.94192268714E+02  0.89011612604E+02 0.  0.
         13    1    3    3    0    0  0.21609217450E+01  0.81483821105E+01  0.46229243218E+02  0.46991699335E+02  0.10566000000E+00 0.  1.
         22    1    1    0    0    0 -0.24438693072E+02  0.14804246958E+02 -0.11519585928E+02  0.30807731286E+02  0.00000000000E+00 0.  1.
</event>
<event>
 5    1  0.6835419E-004  0.9118800E+02  0.7818608E-02  0.1130116E+00
         25   -1    0    0    0    0  0.00000000000E+00  0.00000000000E+00  0.99999998245E-14  0.12500000000E+03  0.12500000000E+03 0.  0.
        -13    1    3    3    0    0  0.16858640299E+02  0.46507784278E+02 -0.32433319003E+02  0.59153352371E+02  0.10566000000E+00 0.  1.
         23    2    1    0    0    0  0.15963590726E+02  0.10777460099E+02 -0.20588108746E+02  0.96806736677E+02  0.92610389100E+02 0.  0.
         13    1    3    3    0    0 -0.89504957245E+00 -0.35730324179E+02  0.11845210257E+02  0.37653384306E+02  0.10566000000E+00 0. -1.
         22    1    1    0    0    0 -0.15963590726E+02 -0.10777460099E+02  0.20588108746E+02  0.28193263323E+02  0.00000000000E+00 0.  1.
</event>
<event>
 5    1  0.6835419E-004  0.9118800E+02  0.7818608E-02  0.1130116E+00
         25   -1    0    0    0    0  0.00000000000E+00  0.00000000000E+00  0.99999998245E-14  0.12500000000E+03  0.12500000000E+03 0.  0.
        -13    1    3    3    0    0 -0.38215534461E+02  0.91073061252E+01  0.10095685017E+02  0.40562348539E+02  0.10566000000E+00 0. -1.
         23    2    1    0    0    0 -0.48606927458E+01 -0.12462799453E+02 -0.26971832271E+02  0.94893066576E+02  0.89990369729E+02 0.  0.
         13    1    3    3    0    0  0.33354841715E+02 -0.21570105579E+02 -0.37067517288E+02  0.54330718037E+02  0.10566000000E+00 0.  1.
         22    1    1    0    0    0  0.48606927458E+01  0.12462799453E+02  0.26971832271E+02  0.30106933424E+02  0.00000000000E+00 0.  1.
</event>
<event>
 5    1  0.6835419E-004  0.9118800E+02  0.7818608E-02  0.1130116E+00
         25   -1    0    0    0    0  0.00000000000E+00  0.00000000000E+00  0.99999998245E-14  0.12500000000E+03  0.12500000000E+03 0.  0.
        -13    1    3    3    0    0  0.47215506945E+02  0.12902471487E+01 -0.13595060963E+02  0.49150846182E+02  0.10566000000E+00 0.  1.
         23    2    1    0    0    0  0.33921299373E+02  0.18935878018E+02 -0.29370631039E+02  0.76298295768E+02  0.58733073664E+02 0.  0.
         13    1    3    3    0    0 -0.13294207572E+02  0.17645630870E+02 -0.15775570076E+02  0.27147449586E+02  0.10566000000E+00 0. -1.
         22    1    1    0    0    0 -0.33921299373E+02 -0.18935878018E+02  0.29370631039E+02  0.48701704232E+02  0.00000000000E+00 0.  1.
</event>
<event>
 5    1  0.6835419E-004  0.9118800E+02  0.7818608E-02  0.1130116E+00
         25   -1    0    0    0    0  0.00000000000E+00  0.00000000000E+00  0.99999998245E-14  0.12500000000E+03  0.12500000000E+03 0.  0.
        -13    1    3    3    0    0  0.20639579255E+02  0.24991200267E+02 -0.16988008112E+02  0.36594479178E+02  0.10566000000E+00 0. -1.
         23    2    1    0    0    0 -0.25078298184E+02  0.14440343131E+02  0.14029559013E+02  0.92839883775E+02  0.87091738665E+02 0.  0.
         13    1    3    3    0    0 -0.45717877439E+02 -0.10550857136E+02  0.31017567125E+02  0.56245404597E+02  0.10566000000E+00 0.  1.
         22    1    1    0    0    0  0.25078298184E+02 -0.14440343131E+02 -0.14029559013E+02  0.32160116225E+02  0.00000000000E+00 0.  1.
</event>
<event>
 5    1  0.6835419E-004  0.9118800E+02  0.7818608E-02  0.1130116E+00
         25   -1    0    0    0    0  0.00000000000E+00  0.00000000000E+00  0.99999998245E-14  0.12500000000E+03  0.12500000000E+03 0.  0.
        -13    1    3    3    0    0 -0.26116729803E+02 -0.24104506526E+02 -0.49137901132E+02  0.60643674873E+02  0.10566000000E+00 0. -1.
         23    2    1    0    0    0 -0.64733182737E+01 -0.46423686759E+01 -0.29196444767E+02  0.94736361365E+02  0.89772436422E+02 0.  0.
         13    1    3    3    0    0  0.19643411529E+02  0.19462137850E+02  0.19941456365E+02  0.34092686491E+02  0.10566000000E+00 0.  1.
         22    1    1    0    0    0  0.64733182737E+01  0.46423686759E+01  0.29196444767E+02  0.30263638635E+02  0.00000000000E+00 0. -1.
</event>
<event>
 5    1  0.6835419E-004  0.9118800E+02  0.7818608E-02  0.1130116E+00
         25   -1    0    0    0    0  0.00000000000E+00  0.00000000000E+00  0.99999998245E-14  0.12500000000E+03  0.12500000000E+03 0.  0.
        -13    1    3    3    0    0 -0.82255875057E+01  0.98489438354E+00 -0.36843293232E+02  0.37763338398E+02  0.10566000000E+00 0.  1.
         23    2    1    0    0    0 -0.15124854602E+02 -0.26851915403E+02  0.99232131282E+01  0.92623206670E+02  0.86780191677E+02 0.  0.
         13    1    3    3    0    0 -0.68992670964E+01 -0.27836809787E+02  0.46766506360E+02  0.54859868271E+02  0.10566000000E+00 0. -1.
         22    1    1    0    0    0  0.15124854602E+02  0.26851915403E+02 -0.99232131282E+01  0.32376793330E+02  0.00000000000E+00 0. -1.
</event>
<event>
 5    1  0.6835419E-004  0.9118800E+02  0.7818608E-02  0.1130116E+00
         25   -1    0    0    0    0  0.00000000000E+00  0.00000000000E+00  0.99999998245E-14  0.12500000000E+03  0.12500000000E+03 0.  0.
        -13    1    3    3    0    0 -0.23060419204E+01  0.22127695509E+02  0.40903506679E+02  0.46562439375E+02  0.10566000000E+00 0. -1.
         23    2    1    0    0    0 -0.15647050122E+02 -0.18139401759E+02  0.19690752125E+02  0.93990424173E+02  0.88727707304E+02 0.  0.
         13    1    3    3    0    0 -0.13341008201E+02 -0.40267097268E+02 -0.21212754554E+02  0.47427984798E+02  0.10566000000E+00 0.  1.
         22    1    1    0    0    0  0.15647050122E+02  0.18139401759E+02 -0.19690752125E+02  0.31009575827E+02  0.00000000000E+00 0.  1.
</event>
<event>
 5    1  0.6835419E-004  0.9118800E+02  0.7818608E-02  0.1130116E+00
         25   -1    0    0    0    0  0.00000000000E+00  0.00000000000E+00  0.99999998245E-14  0.12500000000E+03  0.12500000000E+03 0.  0.
        -13    1    3    3    0    0  0.21087468800E+02  0.44911097339E+02  0.89028147136E+01  0.50407928726E+02  0.10566000000E+00 0. -1.
         23    2    1    0    0    0 -0.13139196455E+02  0.19505167729E+02  0.19634164925E+02  0.94363575862E+02  0.89251856931E+02 0.  0.
         13    1    3    3    0    0 -0.34226665255E+02 -0.25405929610E+02  0.10731350212E+02  0.43955647137E+02  0.10566000000E+00 0.  1.
         22    1    1    0    0    0  0.13139196455E+02 -0.19505167729E+02 -0.19634164925E+02  0.30636424138E+02  0.00000000000E+00 0. -1.
</event>
<event>
 5    1  0.6835419E-004  0.9118800E+02  0.7818608E-02  0.1130116E+00
         25   -1    0    0    0    0  0.00000000000E+00  0.00000000000E+00  0.99999998245E-14  0.12500000000E+03  0.12500000000E+03 0.  0.
        -13    1    3    3    0    0  0.67084626223E+01 -0.67157890932E+01 -0.35732841761E+02  0.36972319893E+02  0.10566000000E+00 0. -1.
         23    2    1    0    0    0 -0.17539843830E+02  0.60186541326E+01  0.19170623860E+02  0.98328233311E+02  0.94641736711E+02 0.  0.
         13    1    3    3    0    0 -0.24248306452E+02  0.12734443226E+02  0.54903465621E+02  0.61355913418E+02  0.10566000000E+00 0.  1.
         22    1    1    0    0    0  0.17539843830E+02 -0.60186541326E+01 -0.19170623860E+02  0.26671766689E+02  0.00000000000E+00 0.  1.
</event>
<event>
 5    1  0.6835419E-004  0.9118800E+02  0.7818608E-02  0.1130116E+00
         25   -1    0    0    0    0  0.00000000000E+00  0.00000000000E+00  0.99999998245E-14  0.12500000000E+03  0.12500000000E+03 0.  0.
        -13    1    3    3    0    0  0.22895823359E+01  0.22806753750E+02  0.27910142995E+02  0.36116166047E+02  0.10566000000E+00 0.  1.
         23    2    1    0    0    0 -0.73715628182E+01 -0.22270311855E+02 -0.13370849060E+02  0.97998401287E+02  0.94205097111E+02 0.  0.
         13    1    3    3    0    0 -0.96611451541E+01 -0.45077065604E+02 -0.41280992055E+02  0.61882235240E+02  0.10566000000E+00 0. -1.
         22    1    1    0    0    0  0.73715628182E+01  0.22270311855E+02  0.13370849060E+02  0.27001598713E+02  0.00000000000E+00 0. -1.
</event>
<event>
 5    1  0.6835419E-004  0.9118800E+02  0.7818608E-02  0.1130116E+00
         25   -1    0    0    0    0  0.00000000000E+00  0.00000000000E+00  0.99999998245E-14  0.12500000000E+03  0.12500000000E+03 0.  0.
        -13    1    3    3    0    0  0.14290770961E+02  0.35601198139E+02  0.99359832154E+01  0.39628353109E+02  0.10566000000E+00 0. -1.
         23    2    1    0    0    0  0.34704987362E+02 -0.85663526434E+01  0.18534980220E+00  0.89252931590E+02  0.81781617112E+02 0.  0.
         13    1    3    3    0    0  0.20414216401E+02 -0.44167550783E+02 -0.97506334132E+01  0.49624578481E+02  0.10566000000E+00 0.  1.
         22    1    1    0    0    0 -0.34704987362E+02  0.85663526434E+01 -0.18534980220E+00  0.35747068410E+02  0.00000000000E+00 0.  1.
</event>
<event>
 5    1  0.6835419E-004  0.9118800E+02  0.7818608E-02  0.1130116E+00
         25   -1    0    0    0    0  0.00000000000E+00  0.00000000000E+00  0.99999998245E-14  0.12500000000E+03  0.12500000000E+03 0.  0.
        -13    1    3    3    0    0  0.60707088424E+02  0.28336814564E+01 -0.13582835072E+02  0.62272665819E+02  0.10566000000E+00 0.  1.
         23    2    1    0    0    0  0.26596325571E+02 -0.10348204160E+01 -0.89803149218E+01  0.96909406499E+02  0.92748863199E+02 0.  0.
         13    1    3    3    0    0 -0.34110762853E+02 -0.38685018724E+01  0.46025201507E+01  0.34636740680E+02  0.10566000000E+00 0. -1.
         22    1    1    0    0    0 -0.26596325571E+02  0.10348204160E+01  0.89803149218E+01  0.28090593501E+02  0.00000000000E+00 0.  1.
</event>
<event>
 5    1  0.6835419E-004  0.9118800E+02  0.7818608E-02  0.1130116E+00
         25   -1    0    0    0    0  0.00000000000E+00  0.00000000000E+00  0.99999998245E-14  0.12500000000E+03  0.12500000000E+03 0.  0.
        -13    1    3    3    0    0 -0.33347244152E+02 -0.33743108591E+02 -0.43595495467E+01  0.47640874322E+02  0.10566000000E+00 0.  1.
         23    2    1    0    0    0  0.10908469306E+02 -0.24832375604E+02 -0.14977386946E+02  0.94016719017E+02  0.88764743869E+02 0.  0.
         13    1    3    3    0    0  0.44255713458E+02  0.89107329871E+01 -0.10617837400E+02  0.46375844694E+02  0.10566000000E+00 0. -1.
         22    1    1    0    0    0 -0.10908469306E+02  0.24832375604E+02  0.14977386946E+02  0.30983280983E+02  0.00000000000E+00 0. -1.
</event>
<event>
 5    1  0.6835419E-004  0.9118800E+02  0.7818608E-02  0.1130116E+00
         25   -1    0    0    0    0  0.00000000000E+00  0.00000000000E+00  0.99999998245E-14  0.12500000000E+03  0.12500000000E+03 0.  0.
        -13    1    3    3    0    0  0.29064240699E+02 -0.35153786322E+02 -0.96792735031E+01  0.46628513592E+02  0.10566000000E+00 0. -1.
         23    2    1    0    0    0  0.10717119525E+02 -0.72006658386E+01  0.26272849915E+02  0.95725969152E+02  0.91139959885E+02 0.  0.
         13    1    3    3    0    0 -0.18347121174E+02  0.27953120483E+02  0.35952123419E+02  0.49097455560E+02  0.10566000000E+00 0.  1.
         22    1    1    0    0    0 -0.10717119525E+02  0.72006658386E+01 -0.26272849915E+02  0.29274030848E+02  0.00000000000E+00 0. -1.
</event>
<event>
 5    1  0.6835419E-004  0.9118800E+02  0.7818608E-02  0.1130116E+00
         25   -1    0    0    0    0  0.00000000000E+00  0.00000000000E+00  0.99999998245E-14  0.12500000000E+03  0.12500000000E+03 0.  0.
        -13    1    3    3    0    0 -0.47982258469E+02  0.13419752404E+02  0.24355527724E+02  0.55458000119E+02  0.10566000000E+00 0.  1.
         23    2    1    0    0    0 -0.17178599478E+02 -0.11028633100E+02  0.22195556117E+02  0.94844109375E+02  0.89922340626E+02 0.  0.
         13    1    3    3    0    0  0.30803658992E+02 -0.24448385503E+02 -0.21599716074E+01  0.39386109256E+02  0.10566000000E+00 0. -1.
         22    1    1    0    0    0  0.17178599478E+02  0.11028633100E+02 -0.22195556117E+02  0.30155890625E+02  0.00000000000E+00 0.  1.
</event>
<event>
 5    1  0.6835419E-004  0.9118800E+02  0.7818608E-02  0.1130116E+00
         25   -1    0    0    0    0  0.00000000000E+00  0.00000000000E+00  0.99999998245E-14  0.12500000000E+03  0.12500000000E+03 0.  0.
        -13    1    3    3    0    0  0.22237263418E+01 -0.41140288711E+02 -0.20248922279E+02  0.45907497553E+02  0.10566000000E+00 0.  1.
         23    2    1    0    0    0  0.18480453395E+02  0.66326053207E+01 -0.20830799326E+02  0.96374123392E+02  0.92024620879E+02 0.  0.
         13    1    3    3    0    0  0.16256727053E+02  0.47772894031E+02 -0.58187704684E+00  0.50466625839E+02  0.10566000000E+00 0. -1.
         22    1    1    0    0    0 -0.18480453395E+02 -0.66326053207E+01  0.20830799326E+02  0.28625876608E+02  0.00000000000E+00 0. -1.
</event>
<event>
 5    1  0.6835419E-004  0.9118800E+02  0.7818608E-02  0.1130116E+00
         25   -1    0    0    0    0  0.00000000000E+00  0.00000000000E+00  0.99999998245E-14  0.12500000000E+03  0.12500000000E+03 0.  0.
        -13    1    3    3    0    0 -0.41933049479E+02  0.33529845827E+02  0.19013812028E+02  0.56957593100E+02  0.10566000000E+00 0. -1.
         23    2    1    0    0    0 -0.24420103025E+02  0.22380249480E+02  0.29879747187E+02  0.80390401363E+02  0.66877502501E+02 0.  0.
         13    1    3    3    0    0  0.17512946454E+02 -0.11149596347E+02  0.10865935159E+02  0.23432808263E+02  0.10566000000E+00 0.  1.
         22    1    1    0    0    0  0.24420103025E+02 -0.22380249480E+02 -0.29879747187E+02  0.44609598637E+02  0.00000000000E+00 0. -1.
</event>
<event>
 5    1  0.6835419E-004  0.9118800E+02  0.7818608E-02  0.1130116E+00
         25   -1    0    0    0    0  0.00000000000E+00  0.00000000000E+00  0.99999998245E-14  0.12500000000E+03  0.12500000000E+03 0.  0.
        -13    1    3    3    0    0  0.16418167809E+02 -0.37872022156E+02  0.10803228727E+02  0.42668105317E+02  0.10566000000E+00 0.  1.
         23    2    1    0    0    0 -0.68273639670E+00  0.70235785883E+01  0.29834259938E+02  0.94342540040E+02  0.89222390743E+02 0.  0.
         13    1    3    3    0    0 -0.17100904206E+02  0.44895600745E+02  0.19031031211E+02  0.51674434722E+02  0.10566000000E+00 0. -1.
         22    1    1    0    0    0  0.68273639670E+00 -0.70235785883E+01 -0.29834259938E+02  0.30657459960E+02  0.00000000000E+00 0. -1.
</event>
<event>
 5    1  0.6835419E-004  0.9118800E+02  0.7818608E-02  0.1130116E+00
         25   -1    0    0    0    0  0.00000000000E+00  0.00000000000E+00  0.99999998245E-14  0.12500000000E+03  0.12500000000E+03 0.  0.
        -13    1    3    3    0    0 -0.60923332889E+01 -0.55333888421E+02  0.12994606094E+02  0.57164907804E+02  0.10566000000E+00 0. -1.
         23    2    1    0    0    0  0.13083808072E+02 -0.25541647633E+02 -0.32063729461E+01  0.96123666699E+02  0.91683786324E+02 0.  0.
         13    1    3    3    0    0  0.19176141361E+02  0.29792240788E+02 -0.16200979040E+02  0.38958758894E+02  0.10566000000E+00 0.  1.
         22    1    1    0    0    0 -0.13083808072E+02  0.25541647633E+02  0.32063729461E+01  0.28876333301E+02  0.00000000000E+00 0. -1.
</event>
<event>
 5    1  0.6835419E-004  0.9118800E+02  0.7818608E-02  0.1130116E+00
         25   -1    0    0    0    0  0.00000000000E+00  0.00000000000E+00  0.99999998245E-14  0.12500000000E+03  0.12500000000E+03 0.  0.
        -13    1    3    3    0    0  0.37759584032E+02 -0.18048425666E+02 -0.36141643215E+01  0.42007204180E+02  0.10566000000E+00 0. -1.
         23    2    1    0    0    0 -0.47291231732E+01 -0.77738102194E+01  0.27742004316E+02  0.95803843835E+02  0.91246703824E+02 0.  0.
         13    1    3    3    0    0 -0.42488707205E+02  0.10274615446E+02  0.31356168638E+02  0.53796639655E+02  0.10566000000E+00 0.  1.
         22    1    1    0    0    0  0.47291231732E+01  0.77738102194E+01 -0.27742004316E+02  0.29196156165E+02  0.00000000000E+00 0.  1.
</event>
<event>
 5    1  0.6835419E-004  0.9118800E+02  0.7818608E-02  0.1130116E+00
         25   -1    0    0    0    0  0.00000000000E+00  0.00000000000E+00  0.99999998245E-14  0.12500000000E+03  0.12500000000E+03 0.  0.
        -13    1    3    3    0    0 -0.12641654830E+02  0.31626325292E+01  0.41036260167E+02  0.43055771900E+02  0.10566000000E+00 0. -1.
         23    2    1    0    0    0 -0.11032463221E+02 -0.28888290687E+02  0.14132449592E+01  0.94044453731E+02  0.88803791769E+02 0.  0.
         13    1    3    3    0    0  0.16091916089E+01 -0.32050923216E+02 -0.39623015208E+02  0.50988681831E+02  0.10566000000E+00 0.  1.
         22    1    1    0    0    0  0.11032463221E+02  0.28888290687E+02 -0.14132449592E+01  0.30955546269E+02  0.00000000000E+00 0.  1.
</event>
<event>
 5    1  0.6835419E-004  0.9118800E+02  0.7818608E-02  0.1130116E+00
         25   -1    0    0    0    0  0.00000000000E+00  0.00000000000E+00  0.99999998245E-14  0.12500000000E+03  0.12500000000E+03 0.  0.
        -13    1    3    3    0    0  0.86960380042E+01  0.47371228296E+02  0.35830386233E+02  0.60029010394E+02  0.10566000000E+00 0.  1.
         23    2    1    0    0    0  0.83591274997E+01  0.15396570127E+02  0.26306263373E+02  0.93393847484E+02  0.87883228611E+02 0.  0.
         13    1    3    3    0    0 -0.33691050454E+00 -0.31974658170E+02 -0.95241228596E+01  0.33364837090E+02  0.10566000000E+00 0. -1.
         22    1    1    0    0    0 -0.83591274997E+01 -0.15396570127E+02 -0.26306263373E+02  0.31606152516E+02  0.00000000000E+00 0.  1.
</event>
<event>
 5    1  0.6835419E-004  0.9118800E+02  0.7818608E-02  0.1130116E+00
         25   -1    0    0    0    0  0.00000000000E+00  0.00000000000E+00  0.99999998245E-14  0.12500000000E+03  0.12500000000E+03 0.  0.
        -13    1    3    3    0    0  0.21916812162E+01  0.14396618355E+02  0.57598720384E+02  0.59411192889E+02  0.10566000000E+00 0.  1.
         23    2    1    0    0    0  0.53175488259E+01  0.18918532662E+02  0.21717798545E+02  0.95710923926E+02  0.91119322767E+02 0.  0.
         13    1    3    3    0    0  0.31258676097E+01  0.45219143070E+01 -0.35880921839E+02  0.36299731037E+02  0.10566000000E+00 0. -1.
         22    1    1    0    0    0 -0.53175488259E+01 -0.18918532662E+02 -0.21717798545E+02  0.29289076074E+02  0.00000000000E+00 0.  1.
</event>
<event>
 5    1  0.6835419E-004  0.9118800E+02  0.7818608E-02  0.1130116E+00
         25   -1    0    0    0    0  0.00000000000E+00  0.00000000000E+00  0.99999998245E-14  0.12500000000E+03  0.12500000000E+03 0.  0.
        -13    1    3    3    0    0 -0.37398232669E+02  0.29191550585E+02  0.10163822606E+02  0.48518953887E+02  0.10566000000E+00 0. -1.
         23    2    1    0    0    0 -0.65980350281E+01  0.14780923479E+02 -0.23562985643E+02  0.96412869023E+02  0.92077235274E+02 0.  0.
         13    1    3    3    0    0  0.30800197641E+02 -0.14410627107E+02 -0.33726808248E+02  0.47893915135E+02  0.10566000000E+00 0.  1.
         22    1    1    0    0    0  0.65980350281E+01 -0.14780923479E+02  0.23562985643E+02  0.28587130977E+02  0.00000000000E+00 0. -1.
</event>
<event>
 5    1  0.6835419E-004  0.9118800E+02  0.7818608E-02  0.1130116E+00
         25   -1    0    0    0    0  0.00000000000E+00  0.00000000000E+00  0.99999998245E-14  0.12500000000E+03  0.12500000000E+03 0.  0.
        -13    1    3    3    0    0 -0.86577516010E+01  0.30701787478E+02  0.11933730395E+02  0.34058501175E+02  0.10566000000E+00 0.  1.
         23    2    1    0    0    0 -0.11089604358E+02 -0.28252935391E+02 -0.16389832691E+01  0.94604376151E+02  0.89588470451E+02 0.  0.
         13    1    3    3    0    0 -0.24318527575E+01 -0.58954722868E+02 -0.13572713664E+02  0.60545874976E+02  0.10566000000E+00 0. -1.
         22    1    1    0    0    0  0.11089604358E+02  0.28252935391E+02  0.16389832691E+01  0.30395623849E+02  0.00000000000E+00 0. -1.
</event>
<event>
 5    1  0.6835419E-004  0.9118800E+02  0.7818608E-02  0.1130116E+00
         25   -1    0    0    0    0  0.00000000000E+00  0.00000000000E+00  0.99999998245E-14  0.12500000000E+03  0.12500000000E+03 0.  0.
        -13    1    3    3    0    0 -0.19341693594E+02 -0.17547833439E+02 -0.18072314891E+02  0.31759208098E+02  0.10566000000E+00 0.  1.
         23    2    1    0    0    0  0.15603166918E+02  0.18758184599E+02  0.18798288863E+02  0.94198961519E+02  0.89021010889E+02 0.  0.
         13    1    3    3    0    0  0.34944860512E+02  0.36306018038E+02  0.36870603754E+02  0.62439753421E+02  0.10566000000E+00 0. -1.
         22    1    1    0    0    0 -0.15603166918E+02 -0.18758184599E+02 -0.18798288863E+02  0.30801038481E+02  0.00000000000E+00 0. -1.
</event>
<event>
 5    1  0.6835419E-004  0.9118800E+02  0.7818608E-02  0.1130116E+00
         25   -1    0    0    0    0  0.00000000000E+00  0.00000000000E+00  0.99999998245E-14  0.12500000000E+03  0.12500000000E+03 0.  0.
        -13    1    3    3    0    0  0.93201547558E+00 -0.17899434269E+02  0.34952832971E+02  0.39280658048E+02  0.10566000000E+00 0. -1.
         23    2    1    0    0    0 -0.22279774348E+02  0.14784554653E+02 -0.70539698219E+01  0.97346249955E+02  0.93335751397E+02 0.  0.
         13    1    3    3    0    0 -0.23211789824E+02  0.32683988921E+02 -0.42006802793E+02  0.58065591907E+02  0.10566000000E+00 0.  1.
         22    1    1    0    0    0  0.22279774348E+02 -0.14784554653E+02  0.70539698219E+01  0.27653750045E+02  0.00000000000E+00 0.  1.
</event>
<event>
 5    1  0.6835419E-004  0.9118800E+02  0.7818608E-02  0.1130116E+00
         25   -1    0    0    0    0  0.00000000000E+00  0.00000000000E+00  0.99999998245E-14  0.12500000000E+03  0.12500000000E+03 0.  0.
        -13    1    3    3    0    0  0.37516478954E+01 -0.56841441467E+02  0.19818179047E+02  0.60314141913E+02  0.10566000000E+00 0. -1.
         23    2    1    0    0    0 -0.95448638865E+01 -0.25352473008E+02  0.11962641766E+02  0.95386538327E+02  0.90673229686E+02 0.  0.
         13    1    3    3    0    0 -0.13296511782E+02  0.31488968458E+02 -0.78555372813E+01  0.35072396413E+02  0.10566000000E+00 0.  1.
         22    1    1    0    0    0  0.95448638865E+01  0.25352473008E+02 -0.11962641766E+02  0.29613461673E+02  0.00000000000E+00 0. -1.
</event>
<event>
 5    1  0.6835419E-004  0.9118800E+02  0.7818608E-02  0.1130116E+00
         25   -1    0    0    0    0  0.00000000000E+00  0.00000000000E+00  0.99999998245E-14  0.12500000000E+03  0.12500000000E+03 0.  0.
        -13    1    3    3    0    0 -0.28935265048E+02 -0.40040505201E+02  0.29748937916E+02  0.57667166493E+02  0.10566000000E+00 0.  1.
         23    2    1    0    0    0 -0.24579869015E+02 -0.15945678134E+02  0.65477047681E+00  0.95693629765E+02  0.91095595071E+02 0.  0.
         13    1    3    3    0    0  0.43553960332E+01  0.24094827066E+02 -0.29094167440E+02  0.38026463272E+02  0.10566000000E+00 0. -1.
         22    1    1    0    0    0  0.24579869015E+02  0.15945678134E+02 -0.65477047681E+00  0.29306370235E+02  0.00000000000E+00 0.  1.
</event>
<event>
 4    1  0.6835419E-004  0.9118800E+02  0.7818608E-02  0.1130116E+00
         25   -1    0    0    0    0  0.00000000000E+00  0.00000000000E+00  0.99999998245E-14  0.12500000000E+03  0.12500000000E+03 0.  0.
        -13    1    1    0    0    0 -0.89170567529E+01  0.48272542252E+02 -0.11995748291E+01  0.49103995565E+02  0.10566000000E+00 0. -1.
         13    1    1    0    0    0  0.16278955323E+02  0.86571478345E+01  0.14101455855E+01  0.18491897405E+02  0.10566000000E+00 0.  1.
         22    1    1    0    0    0 -0.73618985696E+01 -0.56929690087E+02 -0.21057075636E+00  0.57404107030E+02  0.00000000000E+00 0. -1.
</event>
<event>
 5    1  0.6835419E-004  0.9118800E+02  0.7818608E-02  0.1130116E+00
         25   -1    0    0    0    0  0.00000000000E+00  0.00000000000E+00  0.99999998245E-14  0.12500000000E+03  0.12500000000E+03 0.  0.
        -13    1    3    3    0    0 -0.32602463460E+01 -0.12810365506E+02  0.50015761328E+02  0.51733182929E+02  0.10566000000E+00 0. -1.
         23    2    1    0    0    0 -0.15525935526E+02  0.15035655088E+02  0.12517520685E+02  0.10002373283E+03  0.96855217755E+02 0.  0.
         13    1    3    3    0    0 -0.12265689180E+02  0.27846020593E+02 -0.37498240643E+02  0.48290549897E+02  0.10566000000E+00 0.  1.
         22    1    1    0    0    0  0.15525935526E+02 -0.15035655088E+02 -0.12517520685E+02  0.24976267175E+02  0.00000000000E+00 0. -1.
</event>
<event>
 5    1  0.6835419E-004  0.9118800E+02  0.7818608E-02  0.1130116E+00
         25   -1    0    0    0    0  0.00000000000E+00  0.00000000000E+00  0.99999998245E-14  0.12500000000E+03  0.12500000000E+03 0.  0.
        -13    1    3    3    0    0  0.21392793811E+02  0.18446016350E+02  0.20365710851E+02  0.34823562263E+02  0.10566000000E+00 0.  1.
         23    2    1    0    0    0 -0.12473882461E+02 -0.14884788392E+02 -0.19963909613E+02  0.97148386830E+02  0.93070385771E+02 0.  0.
         13    1    3    3    0    0 -0.33866676272E+02 -0.33330804742E+02 -0.40329620464E+02  0.62324824567E+02  0.10566000000E+00 0. -1.
         22    1    1    0    0    0  0.12473882461E+02  0.14884788392E+02  0.19963909613E+02  0.27851613170E+02  0.00000000000E+00 0. -1.
</event>
<event>
 5    1  0.6835419E-004  0.9118800E+02  0.7818608E-02  0.1130116E+00
         25   -1    0    0    0    0  0.00000000000E+00  0.00000000000E+00  0.99999998245E-14  0.12500000000E+03  0.12500000000E+03 0.  0.
        -13    1    3    3    0    0  0.33860394569E+02 -0.25701014877E+02  0.96331582465E+01  0.43587582955E+02  0.10566000000E+00 0. -1.
         23    2    1    0    0    0 -0.14906510241E+02 -0.28075918899E+02  0.81842574985E+00  0.93201712463E+02  0.87609520692E+02 0.  0.
         13    1    3    3    0    0 -0.48766904809E+02 -0.23749040216E+01 -0.88147324966E+01  0.49614129508E+02  0.10566000000E+00 0.  1.
         22    1    1    0    0    0  0.14906510241E+02  0.28075918899E+02 -0.81842574985E+00  0.31798287537E+02  0.00000000000E+00 0.  1.
</event>
<event>
 5    1  0.6835419E-004  0.9118800E+02  0.7818608E-02  0.1130116E+00
         25   -1    0    0    0    0  0.00000000000E+00  0.00000000000E+00  0.99999998245E-14  0.12500000000E+03  0.12500000000E+03 0.  0.
        -13    1    3    3    0    0  0.19264711041E+02 -0.23973335297E+02  0.26408941997E+02  0.40537553924E+02  0.10566000000E+00 0.  1.
         23    2    1    0    0    0 -0.28368640481E+02 -0.92508665732E+01  0.52299242509E+01  0.94706264628E+02  0.89730519652E+02 0.  0.
         13    1    3    3    0    0 -0.47633351523E+02  0.14722468724E+02 -0.21179017746E+02  0.54168710704E+02  0.10566000000E+00 0. -1.
         22    1    1    0    0    0  0.28368640481E+02  0.92508665732E+01 -0.52299242509E+01  0.30293735372E+02  0.00000000000E+00 0. -1.
</event>
<event>
 5    1  0.6835419E-004  0.9118800E+02  0.7818608E-02  0.1130116E+00
         25   -1    0    0    0    0  0.00000000000E+00  0.00000000000E+00  0.99999998245E-14  0.12500000000E+03  0.12500000000E+03 0.  0.
        -13    1    3    3    0    0  0.17652291911E+02 -0.26836730615E+01 -0.43392602358E+02  0.46922645004E+02  0.10566000000E+00 0.  1.
         23    2    1    0    0    0  0.20413473087E+00  0.24509185844E+02 -0.67781669692E+00  0.10048059346E+03  0.97443051904E+02 0.  0.
         13    1    3    3    0    0 -0.17448157180E+02  0.27192858905E+02  0.42714785661E+02  0.53557948453E+02  0.10566000000E+00 0. -1.
         22    1    1    0    0    0 -0.20413473087E+00 -0.24509185844E+02  0.67781669692E+00  0.24519406543E+02  0.00000000000E+00 0. -1.
</event>
<event>
 5    1  0.6835419E-004  0.9118800E+02  0.7818608E-02  0.1130116E+00
         25   -1    0    0    0    0  0.00000000000E+00  0.00000000000E+00  0.99999998245E-14  0.12500000000E+03  0.12500000000E+03 0.  0.
        -13    1    3    3    0    0  0.49446020908E+02  0.11440230161E+02 -0.19591066171E+02  0.54402287521E+02  0.10566000000E+00 0. -1.
         23    2    1    0    0    0  0.11094924050E+02  0.24446431828E+02 -0.11952909631E+02  0.95612971953E+02  0.90984850323E+02 0.  0.
         13    1    3    3    0    0 -0.38351096858E+02  0.13006201667E+02  0.76381565396E+01  0.41210684432E+02  0.10566000000E+00 0.  1.
         22    1    1    0    0    0 -0.11094924050E+02 -0.24446431828E+02  0.11952909631E+02  0.29387028047E+02  0.00000000000E+00 0. -1.
</event>
<event>
 5    1  0.6835419E-004  0.9118800E+02  0.7818608E-02  0.1130116E+00
         25   -1    0    0    0    0  0.00000000000E+00  0.00000000000E+00  0.99999998245E-14  0.12500000000E+03  0.12500000000E+03 0.  0.
        -13    1    3    3    0    0  0.24159215349E+02 -0.25266212609E+02 -0.36040483104E+02  0.50209329534E+02  0.10566000000E+00 0. -1.
         23    2    1    0    0    0  0.22147965927E+02 -0.25532879218E+02  0.45890248246E+01  0.90889598878E+02  0.84246066493E+02 0.  0.
         13    1    3    3    0    0 -0.20112494216E+01 -0.26666660824E+00  0.40629507929E+02  0.40680269344E+02  0.10566000000E+00 0.  1.
         22    1    1    0    0    0 -0.22147965927E+02  0.25532879218E+02 -0.45890248246E+01  0.34110401122E+02  0.00000000000E+00 0. -1.
</event>
<event>
 5    1  0.6835419E-004  0.9118800E+02  0.7818608E-02  0.1130116E+00
         25   -1    0    0    0    0  0.00000000000E+00  0.00000000000E+00  0.99999998245E-14  0.12500000000E+03  0.12500000000E+03 0.  0.
        -13    1    3    3    0    0 -0.25801418307E+02 -0.16804419683E+02 -0.30206244208E+02  0.43133862113E+02  0.10566000000E+00 0.  1.
         23    2    1    0    0    0  0.69881612688E+01 -0.25988401698E+02  0.10418446319E+02  0.96142151077E+02  0.91708984126E+02 0.  0.
         13    1    3    3    0    0  0.32789579576E+02 -0.91839820152E+01  0.40624690528E+02  0.53008288965E+02  0.10566000000E+00 0. -1.
         22    1    1    0    0    0 -0.69881612688E+01  0.25988401698E+02 -0.10418446319E+02  0.28857848923E+02  0.00000000000E+00 0. -1.
</event>
<event>
 5    1  0.6835419E-004  0.9118800E+02  0.7818608E-02  0.1130116E+00
         25   -1    0    0    0    0  0.00000000000E+00  0.00000000000E+00  0.99999998245E-14  0.12500000000E+03  0.12500000000E+03 0.  0.
        -13    1    3    3    0    0 -0.26564424306E+02 -0.63773772727E+01 -0.20343926374E+02  0.34062091596E+02  0.10566000000E+00 0.  1.
         23    2    1    0    0    0  0.21785788399E+02 -0.12266477532E+02  0.16421345249E+02  0.95087667644E+02  0.90260273160E+02 0.  0.
         13    1    3    3    0    0  0.48350212704E+02 -0.58891002593E+01  0.36765271623E+02  0.61025576048E+02  0.10566000000E+00 0. -1.
         22    1    1    0    0    0 -0.21785788399E+02  0.12266477532E+02 -0.16421345249E+02  0.29912332356E+02  0.00000000000E+00 0. -1.
</event>
<event>
 5    1  0.6835419E-004  0.9118800E+02  0.7818608E-02  0.1130116E+00
         25   -1    0    0    0    0  0.00000000000E+00  0.00000000000E+00  0.99999998245E-14  0.12500000000E+03  0.12500000000E+03 0.  0.
        -13    1    3    3    0    0  0.92301902672E+01 -0.30970046041E+02 -0.10658261672E+02  0.34028662478E+02  0.10566000000E+00 0.  1.
         23    2    1    0    0    0 -0.17033327694E+02  0.16990401278E+02  0.17227575251E+02  0.95409505970E+02  0.90704886817E+02 0.  0.
         13    1    3    3    0    0 -0.26263517961E+02  0.47960447319E+02  0.27885836923E+02  0.61380843491E+02  0.10566000000E+00 0. -1.
         22    1    1    0    0    0  0.17033327694E+02 -0.16990401278E+02 -0.17227575251E+02  0.29590494030E+02  0.00000000000E+00 0. -1.
</event>
<event>
 5    1  0.6835419E-004  0.9118800E+02  0.7818608E-02  0.1130116E+00
         25   -1    0    0    0    0  0.00000000000E+00  0.00000000000E+00  0.99999998245E-14  0.12500000000E+03  0.12500000000E+03 0.  0.
        -13    1    3    3    0    0 -0.31379883777E+02  0.24514040271E+02 -0.23048388076E+02  0.46009505900E+02  0.10566000000E+00 0. -1.
         23    2    1    0    0    0 -0.34140782219E+02 -0.13754946259E+02 -0.73474804274E+01  0.87466321446E+02  0.79003673089E+02 0.  0.
         13    1    3    3    0    0 -0.27608984423E+01 -0.38268986530E+02  0.15700907648E+02  0.41456815546E+02  0.10566000000E+00 0.  1.
         22    1    1    0    0    0  0.34140782219E+02  0.13754946259E+02  0.73474804274E+01  0.37533678554E+02  0.00000000000E+00 0.  1.
</event>
<event>
 5    1  0.6835419E-004  0.9118800E+02  0.7818608E-02  0.1130116E+00
         25   -1    0    0    0    0  0.00000000000E+00  0.00000000000E+00  0.99999998245E-14  0.12500000000E+03  0.12500000000E+03 0.  0.
        -13    1    3    3    0    0 -0.31354776975E+02  0.27929113736E+02 -0.40710719302E+02  0.58485308098E+02  0.10566000000E+00 0. -1.
         23    2    1    0    0    0 -0.11889407005E+02 -0.10949768174E+00 -0.27416969750E+02  0.95115886847E+02  0.90299345023E+02 0.  0.
         13    1    3    3    0    0  0.19465369970E+02 -0.28038611417E+02  0.13293749551E+02  0.36630578749E+02  0.10566000000E+00 0.  1.
         22    1    1    0    0    0  0.11889407005E+02  0.10949768174E+00  0.27416969750E+02  0.29884113153E+02  0.00000000000E+00 0. -1.
</event>
<event>
 5    1  0.6835419E-004  0.9118800E+02  0.7818608E-02  0.1130116E+00
         25   -1    0    0    0    0  0.00000000000E+00  0.00000000000E+00  0.99999998245E-14  0.12500000000E+03  0.12500000000E+03 0.  0.
        -13    1    3    3    0    0  0.22450823045E+02 -0.23716884280E+02  0.59135396789E+00  0.32663296204E+02  0.10566000000E+00 0.  1.
         23    2    1    0    0    0 -0.25781561707E+02  0.14704307772E+02 -0.61302712341E+01  0.94693469079E+02  0.89712692913E+02 0.  0.
         13    1    3    3    0    0 -0.48232384751E+02  0.38421192052E+02 -0.67216252020E+01  0.62030172875E+02  0.10566000000E+00 0. -1.
         22    1    1    0    0    0  0.25781561707E+02 -0.14704307772E+02  0.61302712341E+01  0.30306530921E+02  0.00000000000E+00 0. -1.
</event>
<event>
 5    1  0.6835419E-004  0.9118800E+02  0.7818608E-02  0.1130116E+00
         25   -1    0    0    0    0  0.00000000000E+00  0.00000000000E+00  0.99999998245E-14  0.12500000000E+03  0.12500000000E+03 0.  0.
        -13    1    3    3    0    0  0.35541480109E+02  0.29133180382E+02  0.36317352992E+02  0.58573887526E+02  0.10566000000E+00 0.  1.
         23    2    1    0    0    0  0.71322522039E+01  0.25013670049E+02  0.11342921312E+02  0.96623696951E+02  0.92363002537E+02 0.  0.
         13    1    3    3    0    0 -0.28409227905E+02 -0.41195103328E+01 -0.24974431680E+02  0.38049809425E+02  0.10566000000E+00 0. -1.
         22    1    1    0    0    0 -0.71322522039E+01 -0.25013670049E+02 -0.11342921312E+02  0.28376303049E+02  0.00000000000E+00 0.  1.
</event>
<event>
 5    1  0.6835419E-004  0.9118800E+02  0.7818608E-02  0.1130116E+00
         25   -1    0    0    0    0  0.00000000000E+00  0.00000000000E+00  0.99999998245E-14  0.12500000000E+03  0.12500000000E+03 0.  0.
        -13    1    3    3    0    0 -0.16324788016E+02 -0.34783228361E+02 -0.37522522968E+01  0.38606505155E+02  0.10566000000E+00 0.  1.
         23    2    1    0    0    0 -0.17188416484E+02  0.17085717896E+02  0.17951675313E+02  0.94839992311E+02  0.89916617362E+02 0.  0.
         13    1    3    3    0    0 -0.86362846759E+00  0.51868946257E+02  0.21703927610E+02  0.56233487156E+02  0.10566000000E+00 0. -1.
         22    1    1    0    0    0  0.17188416484E+02 -0.17085717896E+02 -0.17951675313E+02  0.30160007689E+02  0.00000000000E+00 0. -1.
</event>
<event>
 5    1  0.6835419E-004  0.9118800E+02  0.7818608E-02  0.1130116E+00
         25   -1    0    0    0    0  0.00000000000E+00  0.00000000000E+00  0.99999998245E-14  0.12500000000E+03  0.12500000000E+03 0.  0.
        -13    1    3    3    0    0 -0.31665782562E+01  0.20937033216E+02  0.39199042346E+02  0.44552919799E+02  0.10566000000E+00 0. -1.
         23    2    1    0    0    0 -0.20960310658E+02 -0.11333064746E+02 -0.34570928367E+01  0.10092253190E+03  0.98008331146E+02 0.  0.
         13    1    3    3    0    0 -0.17793732401E+02 -0.32270097962E+02 -0.42656135183E+02  0.56369612097E+02  0.10566000000E+00 0.  1.
         22    1    1    0    0    0  0.20960310658E+02  0.11333064746E+02  0.34570928367E+01  0.24077468104E+02  0.00000000000E+00 0.  1.
</event>
<event>
 5    1  0.6835419E-004  0.9118800E+02  0.7818608E-02  0.1130116E+00
         25   -1    0    0    0    0  0.00000000000E+00  0.00000000000E+00  0.99999998245E-14  0.12500000000E+03  0.12500000000E+03 0.  0.
        -13    1    3    3    0    0  0.45349767191E+02 -0.12262994311E+02  0.30031736439E+02  0.55757499687E+02  0.10566000000E+00 0. -1.
         23    2    1    0    0    0  0.16565359049E+02  0.13709883183E+02  0.19595155039E+02  0.95908040315E+02  0.91389332412E+02 0.  0.
         13    1    3    3    0    0 -0.28784408142E+02  0.25972877494E+02 -0.10436581400E+02  0.40150540628E+02  0.10566000000E+00 0.  1.
         22    1    1    0    0    0 -0.16565359049E+02 -0.13709883183E+02 -0.19595155039E+02  0.29091959685E+02  0.00000000000E+00 0.  1.
</event>
<event>
 5    1  0.6835419E-004  0.9118800E+02  0.7818608E-02  0.1130116E+00
         25   -1    0    0    0    0  0.00000000000E+00  0.00000000000E+00  0.99999998245E-14  0.12500000000E+03  0.12500000000E+03 0.  0.
        -13    1    3    3    0    0  0.16485169799E+02  0.28203994994E+02  0.36137029999E+02  0.48714702689E+02  0.10566000000E+00 0. -1.
         23    2    1    0    0    0 -0.93928810676E+00 -0.16113899977E+02  0.20649824360E+02  0.98790168243E+02  0.95249892707E+02 0.  0.
         13    1    3    3    0    0 -0.17424457906E+02 -0.44317894971E+02 -0.15487205638E+02  0.50075465554E+02  0.10566000000E+00 0.  1.
         22    1    1    0    0    0  0.93928810676E+00  0.16113899977E+02 -0.20649824360E+02  0.26209831757E+02  0.00000000000E+00 0. -1.
</event>
<event>
 5    1  0.6835419E-004  0.9118800E+02  0.7818608E-02  0.1130116E+00
         25   -1    0    0    0    0  0.00000000000E+00  0.00000000000E+00  0.99999998245E-14  0.12500000000E+03  0.12500000000E+03 0.  0.
        -13    1    3    3    0    0  0.68558526896E+00 -0.40902337515E+02 -0.30818594668E+02  0.51217850235E+02  0.10566000000E+00 0. -1.
         23    2    1    0    0    0 -0.24249983814E+02 -0.16932766701E+02 -0.36529805448E+01  0.95198581074E+02  0.90413744910E+02 0.  0.
         13    1    3    3    0    0 -0.24935569083E+02  0.23969570814E+02  0.27165614123E+02  0.43980730840E+02  0.10566000000E+00 0.  1.
         22    1    1    0    0    0  0.24249983814E+02  0.16932766701E+02  0.36529805448E+01  0.29801418926E+02  0.00000000000E+00 0. -1.
</event>
<event>
 5    1  0.6835419E-004  0.9118800E+02  0.7818608E-02  0.1130116E+00
         25   -1    0    0    0    0  0.00000000000E+00  0.00000000000E+00  0.99999998245E-14  0.12500000000E+03  0.12500000000E+03 0.  0.
        -13    1    3    3    0    0 -0.32436907489E+02  0.46907384131E+02  0.24085513274E+02  0.61907824765E+02  0.10566000000E+00 0.  1.
         23    2    1    0    0    0 -0.14383941176E+02  0.23712384068E+02  0.53766008247E+01  0.96749641448E+02  0.92533293262E+02 0.  0.
         13    1    3    3    0    0  0.18052966313E+02 -0.23195000063E+02 -0.18708912449E+02  0.34841816682E+02  0.10566000000E+00 0. -1.
         22    1    1    0    0    0  0.14383941176E+02 -0.23712384068E+02 -0.53766008247E+01  0.28250358552E+02  0.00000000000E+00 0.  1.
</event>
<event>
 5    1  0.6835419E-004  0.9118800E+02  0.7818608E-02  0.1130116E+00
         25   -1    0    0    0    0  0.00000000000E+00  0.00000000000E+00  0.99999998245E-14  0.12500000000E+03  0.12500000000E+03 0.  0.
        -13    1    3    3    0    0  0.54365350358E+02  0.56833072855E+01 -0.18485393337E+02  0.57702792238E+02  0.10566000000E+00 0. -1.
         23    2    1    0    0    0  0.18878976323E+02  0.18666748875E+02 -0.11196151988E+02  0.96186512188E+02  0.91769428717E+02 0.  0.
         13    1    3    3    0    0 -0.35486374035E+02  0.12983441589E+02  0.72892413491E+01  0.38483719949E+02  0.10566000000E+00 0.  1.
         22    1    1    0    0    0 -0.18878976323E+02 -0.18666748875E+02  0.11196151988E+02  0.28813487812E+02  0.00000000000E+00 0. -1.
</event>
<event>
 5    1  0.6835419E-004  0.9118800E+02  0.7818608E-02  0.1130116E+00
         25   -1    0    0    0    0  0.00000000000E+00  0.00000000000E+00  0.99999998245E-14  0.12500000000E+03  0.12500000000E+03 0.  0.
        -13    1    3    3    0    0  0.73878908425E+01 -0.26256550108E+02 -0.26368015499E+02  0.37937722125E+02  0.10566000000E+00 0.  1.
         23    2    1    0    0    0 -0.19476376528E+02 -0.73070171185E+01  0.20898681038E+02  0.95513111202E+02  0.90847552529E+02 0.  0.
         13    1    3    3    0    0 -0.26864267371E+02  0.18949532990E+02  0.47266696536E+02  0.57575389077E+02  0.10566000000E+00 0. -1.
         22    1    1    0    0    0  0.19476376528E+02  0.73070171185E+01 -0.20898681038E+02  0.29486888798E+02  0.00000000000E+00 0. -1.
</event>
<event>
 5    1  0.6835419E-004  0.9118800E+02  0.7818608E-02  0.1130116E+00
         25   -1    0    0    0    0  0.00000000000E+00  0.00000000000E+00  0.99999998245E-14  0.12500000000E+03  0.12500000000E+03 0.  0.
        -13    1    3    3    0    0  0.32320377116E+02 -0.21608555675E+02  0.23258938034E+02  0.45304810095E+02  0.10566000000E+00 0.  1.
         23    2    1    0    0    0  0.24685088890E+02  0.39491989034E+01 -0.17830948364E+02  0.94293445243E+02  0.89153582714E+02 0.  0.
         13    1    3    3    0    0 -0.76352882258E+01  0.25557754578E+02 -0.41089886398E+02  0.48988635148E+02  0.10566000000E+00 0. -1.
         22    1    1    0    0    0 -0.24685088890E+02 -0.39491989034E+01  0.17830948364E+02  0.30706554757E+02  0.00000000000E+00 0. -1.
</event>
<event>
 5    1  0.6835419E-004  0.9118800E+02  0.7818608E-02  0.1130116E+00
         25   -1    0    0    0    0  0.00000000000E+00  0.00000000000E+00  0.99999998245E-14  0.12500000000E+03  0.12500000000E+03 0.  0.
        -13    1    3    3    0    0  0.96362311148E+01 -0.34953972848E+02  0.17387699418E+02  0.40211695103E+02  0.10566000000E+00 0. -1.
         23    2    1    0    0    0 -0.66410982270E+01  0.46857281867E+01  0.36841579054E+02  0.87272527497E+02  0.78696454013E+02 0.  0.
         13    1    3    3    0    0 -0.16277329342E+02  0.39639701035E+02  0.19453879635E+02  0.47060832394E+02  0.10566000000E+00 0.  1.
         22    1    1    0    0    0  0.66410982270E+01 -0.46857281867E+01 -0.36841579054E+02  0.37727472503E+02  0.00000000000E+00 0.  1.
</event>
<event>
 5    1  0.6835419E-004  0.9118800E+02  0.7818608E-02  0.1130116E+00
         25   -1    0    0    0    0  0.00000000000E+00  0.00000000000E+00  0.99999998245E-14  0.12500000000E+03  0.12500000000E+03 0.  0.
        -13    1    3    3    0    0 -0.10690118398E+02  0.23217716516E+02  0.48436288834E+01  0.26015627926E+02  0.10566000000E+00 0. -1.
         23    2    1    0    0    0 -0.59586135062E+01 -0.37302532730E+02 -0.23840591346E+01  0.87149402105E+02  0.78500640293E+02 0.  0.
         13    1    3    3    0    0  0.47315048919E+01 -0.60520249246E+02 -0.72276880180E+01  0.61133774180E+02  0.10566000000E+00 0.  1.
         22    1    1    0    0    0  0.59586135062E+01  0.37302532730E+02  0.23840591346E+01  0.37850597895E+02  0.00000000000E+00 0.  1.
</event>
<event>
 5    1  0.6835419E-004  0.9118800E+02  0.7818608E-02  0.1130116E+00
         25   -1    0    0    0    0  0.00000000000E+00  0.00000000000E+00  0.99999998245E-14  0.12500000000E+03  0.12500000000E+03 0.  0.
        -13    1    3    3    0    0 -0.49448393182E+02  0.21781725714E+02 -0.38030378737E+01  0.54166977250E+02  0.10566000000E+00 0. -1.
         23    2    1    0    0    0 -0.17269911572E+02  0.43409114773E+01 -0.23329504415E+02  0.95651079502E+02  0.91037189519E+02 0.  0.
         13    1    3    3    0    0  0.32178481610E+02 -0.17440814237E+02 -0.19526466541E+02  0.41484102252E+02  0.10566000000E+00 0.  1.
         22    1    1    0    0    0  0.17269911572E+02 -0.43409114773E+01  0.23329504415E+02  0.29348920498E+02  0.00000000000E+00 0. -1.
</event>
<event>
 5    1  0.6835419E-004  0.9118800E+02  0.7818608E-02  0.1130116E+00
         25   -1    0    0    0    0  0.00000000000E+00  0.00000000000E+00  0.99999998245E-14  0.12500000000E+03  0.12500000000E+03 0.  0.
        -13    1    3    3    0    0 -0.43645774005E+01 -0.29908247324E+02 -0.14603249332E+02  0.33568122511E+02  0.10566000000E+00 0.  1.
         23    2    1    0    0    0  0.21626644620E+02  0.15833806737E+02  0.15354349726E+02  0.94110240389E+02  0.88896344679E+02 0.  0.
         13    1    3    3    0    0  0.25991222021E+02  0.45742054061E+02  0.29957599058E+02  0.60542117878E+02  0.10566000000E+00 0. -1.
         22    1    1    0    0    0 -0.21626644620E+02 -0.15833806737E+02 -0.15354349726E+02  0.30889759611E+02  0.00000000000E+00 0. -1.
</event>
<event>
 5    1  0.6835419E-004  0.9118800E+02  0.7818608E-02  0.1130116E+00
         25   -1    0    0    0    0  0.00000000000E+00  0.00000000000E+00  0.99999998245E-14  0.12500000000E+03  0.12500000000E+03 0.  0.
        -13    1    3    3    0    0  0.15930408308E+02 -0.80849228118E+01 -0.42877182830E+02  0.46450057666E+02  0.10566000000E+00 0. -1.
         23    2    1    0    0    0  0.17055757129E+02  0.23718762217E+02 -0.59718455458E+01  0.95181524661E+02  0.90390160777E+02 0.  0.
         13    1    3    3    0    0  0.11253488204E+01  0.31803685028E+02  0.36905337284E+02  0.48731466995E+02  0.10566000000E+00 0.  1.
         22    1    1    0    0    0 -0.17055757129E+02 -0.23718762217E+02  0.59718455458E+01  0.29818475339E+02  0.00000000000E+00 0. -1.
</event>
<event>
 5    1  0.6835419E-004  0.9118800E+02  0.7818608E-02  0.1130116E+00
         25   -1    0    0    0    0  0.00000000000E+00  0.00000000000E+00  0.99999998245E-14  0.12500000000E+03  0.12500000000E+03 0.  0.
        -13    1    3    3    0    0  0.14722731840E+02  0.42341885929E+02 -0.29198571494E+01  0.44923611460E+02  0.10566000000E+00 0.  1.
         23    2    1    0    0    0  0.83255840377E+01  0.24662750749E+01  0.27934708866E+02  0.95746866462E+02  0.91168616396E+02 0.  0.
         13    1    3    3    0    0 -0.63971478023E+01 -0.39875610854E+02  0.30854566016E+02  0.50823255002E+02  0.10566000000E+00 0. -1.
         22    1    1    0    0    0 -0.83255840377E+01 -0.24662750749E+01 -0.27934708866E+02  0.29253133538E+02  0.00000000000E+00 0. -1.
</event>
<event>
 5    1  0.6835419E-004  0.9118800E+02  0.7818608E-02  0.1130116E+00
         25   -1    0    0    0    0  0.00000000000E+00  0.00000000000E+00  0.99999998245E-14  0.12500000000E+03  0.12500000000E+03 0.  0.
        -13    1    3    3    0    0  0.30535371131E+02 -0.15694420746E+02  0.34160841745E+02  0.48432406562E+02  0.10566000000E+00 0.  1.
         23    2    1    0    0    0  0.11514739416E+02  0.17280327613E+02  0.32370103580E+02  0.86541937750E+02  0.77527314139E+02 0.  0.
         13    1    3    3    0    0 -0.19020631715E+02  0.32974748359E+02 -0.17907381654E+01  0.38109531188E+02  0.10566000000E+00 0. -1.
         22    1    1    0    0    0 -0.11514739416E+02 -0.17280327613E+02 -0.32370103580E+02  0.38458062250E+02  0.00000000000E+00 0.  1.
</event>
<event>
 5    1  0.6835419E-004  0.9118800E+02  0.7818608E-02  0.1130116E+00
         25   -1    0    0    0    0  0.00000000000E+00  0.00000000000E+00  0.99999998245E-14  0.12500000000E+03  0.12500000000E+03 0.  0.
        -13    1    3    3    0    0  0.13067334139E+02 -0.13111947851E+02  0.55286519170E+02  0.58303419831E+02  0.10566000000E+00 0.  1.
         23    2    1    0    0    0  0.12113979908E+02  0.90190533343E+01  0.24169420623E+02  0.96499952184E+02  0.92195379744E+02 0.  0.
         13    1    3    3    0    0 -0.95335423010E+00  0.22131001186E+02 -0.31117098548E+02  0.38196532354E+02  0.10566000000E+00 0. -1.
         22    1    1    0    0    0 -0.12113979908E+02 -0.90190533343E+01 -0.24169420623E+02  0.28500047816E+02  0.00000000000E+00 0.  1.
</event>
<event>
 5    1  0.6835419E-004  0.9118800E+02  0.7818608E-02  0.1130116E+00
         25   -1    0    0    0    0  0.00000000000E+00  0.00000000000E+00  0.99999998245E-14  0.12500000000E+03  0.12500000000E+03 0.  0.
        -13    1    3    3    0    0 -0.16790808871E+02  0.27422902284E+02  0.41252572521E+02  0.52304232485E+02  0.10566000000E+00 0.  1.
         23    2    1    0    0    0 -0.27697974667E+02  0.10450347416E+02  0.33951819512E+01  0.95202100372E+02  0.90418610325E+02 0.  0.
         13    1    3    3    0    0 -0.10907165795E+02 -0.16972554868E+02 -0.37857390570E+02  0.42897867887E+02  0.10566000000E+00 0. -1.
         22    1    1    0    0    0  0.27697974667E+02 -0.10450347416E+02 -0.33951819512E+01  0.29797899628E+02  0.00000000000E+00 0. -1.
</event>
<event>
 5    1  0.6835419E-004  0.9118800E+02  0.7818608E-02  0.1130116E+00
         25   -1    0    0    0    0  0.00000000000E+00  0.00000000000E+00  0.99999998245E-14  0.12500000000E+03  0.12500000000E+03 0.  0.
        -13    1    3    3    0    0  0.29550267990E+02 -0.18450938514E+02  0.21049662622E+02  0.40703254548E+02  0.10566000000E+00 0.  1.
         23    2    1    0    0    0 -0.24254222424E+02 -0.68043118638E+01  0.13935549960E+02  0.96211712138E+02  0.91803747388E+02 0.  0.
         13    1    3    3    0    0 -0.53804490414E+02  0.11646626650E+02 -0.71141126628E+01  0.55508457590E+02  0.10566000000E+00 0. -1.
         22    1    1    0    0    0  0.24254222424E+02  0.68043118638E+01 -0.13935549960E+02  0.28788287862E+02  0.00000000000E+00 0.  1.
</event>
<event>
 5    1  0.6835419E-004  0.9118800E+02  0.7818608E-02  0.1130116E+00
         25   -1    0    0    0    0  0.00000000000E+00  0.00000000000E+00  0.99999998245E-14  0.12500000000E+03  0.12500000000E+03 0.  0.
        -13    1    3    3    0    0  0.24652424787E+02  0.20965029036E+02 -0.34222585422E+02  0.47100647632E+02  0.10566000000E+00 0.  1.
         23    2    1    0    0    0 -0.18913077494E+02  0.18230468097E+02 -0.11313020045E+02  0.96398620840E+02  0.92057890536E+02 0.  0.
         13    1    3    3    0    0 -0.43565502281E+02 -0.27345609384E+01  0.22909565378E+02  0.49297973207E+02  0.10566000000E+00 0. -1.
         22    1    1    0    0    0  0.18913077494E+02 -0.18230468097E+02  0.11313020045E+02  0.28601379160E+02  0.00000000000E+00 0.  1.
</event>
<event>
 5    1  0.6835419E-004  0.9118800E+02  0.7818608E-02  0.1130116E+00
         25   -1    0    0    0    0  0.00000000000E+00  0.00000000000E+00  0.99999998245E-14  0.12500000000E+03  0.12500000000E+03 0.  0.
        -13    1    3    3    0    0  0.53775852243E+01 -0.18600669534E+02  0.57795839640E+02  0.60953044006E+02  0.10566000000E+00 0. -1.
         23    2    1    0    0    0  0.77887798121E+01 -0.15677564153E+02  0.22305054776E+02  0.96645695612E+02  0.92392769755E+02 0.  0.
         13    1    3    3    0    0  0.24111945878E+01  0.29231053808E+01 -0.35490784863E+02  0.35692651606E+02  0.10566000000E+00 0.  1.
         22    1    1    0    0    0 -0.77887798121E+01  0.15677564153E+02 -0.22305054776E+02  0.28354304388E+02  0.00000000000E+00 0. -1.
</event>
<event>
 5    1  0.6835419E-004  0.9118800E+02  0.7818608E-02  0.1130116E+00
         25   -1    0    0    0    0  0.00000000000E+00  0.00000000000E+00  0.99999998245E-14  0.12500000000E+03  0.12500000000E+03 0.  0.
        -13    1    3    3    0    0 -0.49625963155E+02  0.13631986336E+02 -0.19949526754E+02  0.55195670594E+02  0.10566000000E+00 0.  1.
         23    2    1    0    0    0 -0.12642144030E+02  0.79593349748E+00 -0.27186642807E+02  0.95007153138E+02  0.90148700958E+02 0.  0.
         13    1    3    3    0    0  0.36983819125E+02 -0.12836052838E+02 -0.72371160521E+01  0.39811482544E+02  0.10566000000E+00 0. -1.
         22    1    1    0    0    0  0.12642144030E+02 -0.79593349748E+00  0.27186642807E+02  0.29992846862E+02  0.00000000000E+00 0.  1.
</event>
<event>
 5    1  0.6835419E-004  0.9118800E+02  0.7818608E-02  0.1130116E+00
         25   -1    0    0    0    0  0.00000000000E+00  0.00000000000E+00  0.99999998245E-14  0.12500000000E+03  0.12500000000E+03 0.  0.
        -13    1    3    3    0    0  0.13601263951E+02  0.51780880057E+01 -0.44480734234E+02  0.46801216422E+02  0.10566000000E+00 0. -1.
         23    2    1    0    0    0  0.44745133387E+01 -0.27422373983E+02 -0.91165307067E+01  0.95757582237E+02  0.91183307459E+02 0.  0.
         13    1    3    3    0    0 -0.91267506127E+01 -0.32600461989E+02  0.35364203528E+02  0.48956365815E+02  0.10566000000E+00 0.  1.
         22    1    1    0    0    0 -0.44745133387E+01  0.27422373983E+02  0.91165307067E+01  0.29242417763E+02  0.00000000000E+00 0.  1.
</event>
<event>
 5    1  0.6835419E-004  0.9118800E+02  0.7818608E-02  0.1130116E+00
         25   -1    0    0    0    0  0.00000000000E+00  0.00000000000E+00  0.99999998245E-14  0.12500000000E+03  0.12500000000E+03 0.  0.
        -13    1    3    3    0    0 -0.49907791473E+01 -0.56745028770E+02  0.15497857439E+01  0.56985253939E+02  0.10566000000E+00 0.  1.
         23    2    1    0    0    0 -0.20478340568E+02 -0.22649328165E+02  0.78032300719E-02  0.94465518514E+02  0.89394516770E+02 0.  0.
         13    1    3    3    0    0 -0.15487561421E+02  0.34095700605E+02 -0.15419825138E+01  0.37480264575E+02  0.10566000000E+00 0. -1.
         22    1    1    0    0    0  0.20478340568E+02  0.22649328165E+02 -0.78032300719E-02  0.30534481486E+02  0.00000000000E+00 0.  1.
</event>
<event>
 5    1  0.6835419E-004  0.9118800E+02  0.7818608E-02  0.1130116E+00
         25   -1    0    0    0    0  0.00000000000E+00  0.00000000000E+00  0.99999998245E-14  0.12500000000E+03  0.12500000000E+03 0.  0.
        -13    1    3    3    0    0 -0.22577661002E+02  0.41253788304E+02  0.41038566141E+02  0.62416351228E+02  0.10566000000E+00 0.  1.
         23    2    1    0    0    0 -0.11121412417E+02  0.17011732483E+02  0.19845127428E+02  0.96593769365E+02  0.92322490983E+02 0.  0.
         13    1    3    3    0    0  0.11456248584E+02 -0.24242055820E+02 -0.21193438713E+02  0.34177418137E+02  0.10566000000E+00 0. -1.
         22    1    1    0    0    0  0.11121412417E+02 -0.17011732483E+02 -0.19845127428E+02  0.28406230635E+02  0.00000000000E+00 0.  1.
</event>
<event>
 5    1  0.6835419E-004  0.9118800E+02  0.7818608E-02  0.1130116E+00
         25   -1    0    0    0    0  0.00000000000E+00  0.00000000000E+00  0.99999998245E-14  0.12500000000E+03  0.12500000000E+03 0.  0.
        -13    1    3    3    0    0  0.37533222275E+02  0.14295886868E+02  0.41476267341E+02  0.57735665514E+02  0.10566000000E+00 0.  1.
         23    2    1    0    0    0  0.19225388673E+02 -0.10667249016E+02  0.17905493571E+02  0.96644886331E+02  0.92391674856E+02 0.  0.
         13    1    3    3    0    0 -0.18307833603E+02 -0.24963135884E+02 -0.23570773770E+02  0.38909220817E+02  0.10566000000E+00 0. -1.
         22    1    1    0    0    0 -0.19225388673E+02  0.10667249016E+02 -0.17905493571E+02  0.28355113669E+02  0.00000000000E+00 0.  1.
</event>
<event>
 5    1  0.6835419E-004  0.9118800E+02  0.7818608E-02  0.1130116E+00
         25   -1    0    0    0    0  0.00000000000E+00  0.00000000000E+00  0.99999998245E-14  0.12500000000E+03  0.12500000000E+03 0.  0.
        -13    1    3    3    0    0 -0.12820729631E+02  0.11082640667E+02  0.34068117121E+02  0.38050542712E+02  0.10566000000E+00 0. -1.
         23    2    1    0    0    0 -0.18807045474E+02  0.74617121534E+01 -0.22321770361E+02  0.94872877008E+02  0.89962321291E+02 0.  0.
         13    1    3    3    0    0 -0.59863158431E+01 -0.36209285133E+01 -0.56389887482E+02  0.56822334297E+02  0.10566000000E+00 0.  1.
         22    1    1    0    0    0  0.18807045474E+02 -0.74617121534E+01  0.22321770361E+02  0.30127122992E+02  0.00000000000E+00 0.  1.
</event>
<event>
 5    1  0.6835419E-004  0.9118800E+02  0.7818608E-02  0.1130116E+00
         25   -1    0    0    0    0  0.00000000000E+00  0.00000000000E+00  0.99999998245E-14  0.12500000000E+03  0.12500000000E+03 0.  0.
        -13    1    3    3    0    0  0.21669067701E+02 -0.50971318690E+02 -0.24928362062E+02  0.60737617859E+02  0.10566000000E+00 0.  1.
         23    2    1    0    0    0  0.20907453796E+01 -0.22354872016E+02 -0.18290750283E+02  0.96040320012E+02  0.91570082467E+02 0.  0.
         13    1    3    3    0    0 -0.19578322321E+02  0.28616446674E+02  0.66376117797E+01  0.35302702153E+02  0.10566000000E+00 0. -1.
         22    1    1    0    0    0 -0.20907453796E+01  0.22354872016E+02  0.18290750283E+02  0.28959679988E+02  0.00000000000E+00 0.  1.
</event>
<event>
 5    1  0.6835419E-004  0.9118800E+02  0.7818608E-02  0.1130116E+00
         25   -1    0    0    0    0  0.00000000000E+00  0.00000000000E+00  0.99999998245E-14  0.12500000000E+03  0.12500000000E+03 0.  0.
        -13    1    3    3    0    0  0.28164005345E+02  0.19400357811E+02  0.16974120214E+02  0.38180060258E+02  0.10566000000E+00 0. -1.
         23    2    1    0    0    0 -0.22265902117E+02 -0.76320796899E+01  0.17937532843E+02  0.95406518927E+02  0.90700770294E+02 0.  0.
         13    1    3    3    0    0 -0.50429907462E+02 -0.27032437501E+02  0.96341262906E+00  0.57226458669E+02  0.10566000000E+00 0.  1.
         22    1    1    0    0    0  0.22265902117E+02  0.76320796899E+01 -0.17937532843E+02  0.29593481073E+02  0.00000000000E+00 0.  1.
</event>
<event>
 5    1  0.6835419E-004  0.9118800E+02  0.7818608E-02  0.1130116E+00
         25   -1    0    0    0    0  0.00000000000E+00  0.00000000000E+00  0.99999998245E-14  0.12500000000E+03  0.12500000000E+03 0.  0.
        -13    1    3    3    0    0 -0.27846623542E+02  0.21437015448E+02  0.13973584510E+02  0.37818676631E+02  0.10566000000E+00 0.  1.
         23    2    1    0    0    0  0.14506949672E+02 -0.60042814837E+01 -0.20678462814E+02  0.99036529329E+02  0.95572654731E+02 0.  0.
         13    1    3    3    0    0  0.42353573214E+02 -0.27441296932E+02 -0.34652047324E+02  0.61217852699E+02  0.10566000000E+00 0. -1.
         22    1    1    0    0    0 -0.14506949672E+02  0.60042814837E+01  0.20678462814E+02  0.25963470671E+02  0.00000000000E+00 0. -1.
</event>
<event>
 5    1  0.6835419E-004  0.9118800E+02  0.7818608E-02  0.1130116E+00
         25   -1    0    0    0    0  0.00000000000E+00  0.00000000000E+00  0.99999998245E-14  0.12500000000E+03  0.12500000000E+03 0.  0.
        -13    1    3    3    0    0 -0.50686356398E+02  0.45532643562E+01  0.24341050028E+02  0.56412204545E+02  0.10566000000E+00 0.  1.
         23    2    1    0    0    0 -0.21249248140E+02 -0.16207863009E+02  0.17436455662E+02  0.93089886307E+02  0.87449823195E+02 0.  0.
         13    1    3    3    0    0  0.29437108257E+02 -0.20761127365E+02 -0.69045943660E+01  0.36677681762E+02  0.10566000000E+00 0. -1.
         22    1    1    0    0    0  0.21249248140E+02  0.16207863009E+02 -0.17436455662E+02  0.31910113693E+02  0.00000000000E+00 0.  1.
</event>
<event>
 5    1  0.6835419E-004  0.9118800E+02  0.7818608E-02  0.1130116E+00
         25   -1    0    0    0    0  0.00000000000E+00  0.00000000000E+00  0.99999998245E-14  0.12500000000E+03  0.12500000000E+03 0.  0.
        -13    1    3    3    0    0 -0.25680079636E+02 -0.18318091150E+02  0.23325734314E+02  0.39231619885E+02  0.10566000000E+00 0.  1.
         23    2    1    0    0    0  0.27370720690E+02 -0.49560676440E+01  0.85548963321E+01  0.95898364155E+02  0.91376096649E+02 0.  0.
         13    1    3    3    0    0  0.53050800326E+02  0.13362023506E+02 -0.14770837982E+02  0.56666744270E+02  0.10566000000E+00 0. -1.
         22    1    1    0    0    0 -0.27370720690E+02  0.49560676440E+01 -0.85548963321E+01  0.29101635845E+02  0.00000000000E+00 0. -1.
</event>
<event>
 5    1  0.6835419E-004  0.9118800E+02  0.7818608E-02  0.1130116E+00
         25   -1    0    0    0    0  0.00000000000E+00  0.00000000000E+00  0.99999998245E-14  0.12500000000E+03  0.12500000000E+03 0.  0.
        -13    1    3    3    0    0 -0.24332699917E+02 -0.40732780938E+02  0.10118011374E+02  0.48514173665E+02  0.10566000000E+00 0. -1.
         23    2    1    0    0    0 -0.16882225557E+02 -0.31980491334E+02 -0.22029915791E+02  0.82655241700E+02  0.70984578784E+02 0.  0.
         13    1    3    3    0    0  0.74504743605E+01  0.87522896046E+01 -0.32147927165E+02  0.34141068035E+02  0.10566000000E+00 0.  1.
         22    1    1    0    0    0  0.16882225557E+02  0.31980491334E+02  0.22029915791E+02  0.42344758300E+02  0.00000000000E+00 0. -1.
</event>
<event>
 5    1  0.6835419E-004  0.9118800E+02  0.7818608E-02  0.1130116E+00
         25   -1    0    0    0    0  0.00000000000E+00  0.00000000000E+00  0.99999998245E-14  0.12500000000E+03  0.12500000000E+03 0.  0.
        -13    1    3    3    0    0 -0.52046451588E+01  0.57822312799E+02  0.94036871411E+01  0.58812827551E+02  0.10566000000E+00 0. -1.
         23    2    1    0    0    0  0.91289592459E+01  0.23830138153E+02  0.13840454451E+02  0.95969471918E+02  0.91473318402E+02 0.  0.
         13    1    3    3    0    0  0.14333604405E+02 -0.33992174646E+02  0.44367673099E+01  0.37156644367E+02  0.10566000000E+00 0.  1.
         22    1    1    0    0    0 -0.91289592459E+01 -0.23830138153E+02 -0.13840454451E+02  0.29030528082E+02  0.00000000000E+00 0. -1.
</event>
<event>
 5    1  0.6835419E-004  0.9118800E+02  0.7818608E-02  0.1130116E+00
         25   -1    0    0    0    0  0.00000000000E+00  0.00000000000E+00  0.99999998245E-14  0.12500000000E+03  0.12500000000E+03 0.  0.
        -13    1    3    3    0    0  0.13659548174E+02  0.16721272591E+02 -0.45081361706E+02  0.49985243329E+02  0.10566000000E+00 0.  1.
         23    2    1    0    0    0  0.63477013796E+01 -0.20024450026E+02 -0.85297272463E+01  0.10232781090E+03  0.99784531492E+02 0.  0.
         13    1    3    3    0    0 -0.73118467942E+01 -0.36745722618E+02  0.36551634460E+02  0.52342567571E+02  0.10566000000E+00 0. -1.
         22    1    1    0    0    0 -0.63477013796E+01  0.20024450026E+02  0.85297272463E+01  0.22672189099E+02  0.00000000000E+00 0. -1.
</event>
<event>
 5    1  0.6835419E-004  0.9118800E+02  0.7818608E-02  0.1130116E+00
         25   -1    0    0    0    0  0.00000000000E+00  0.00000000000E+00  0.99999998245E-14  0.12500000000E+03  0.12500000000E+03 0.  0.
        -13    1    3    3    0    0 -0.52956440580E+01  0.46997638489E+02 -0.18262411029E+02  0.50698606392E+02  0.10566000000E+00 0.  1.
         23    2    1    0    0    0  0.13050179034E+02  0.80239659781E+01 -0.26343494756E+02  0.94525897572E+02  0.89478904737E+02 0.  0.
         13    1    3    3    0    0  0.18345823092E+02 -0.38973672511E+02 -0.80810837275E+01  0.43827291180E+02  0.10566000000E+00 0. -1.
         22    1    1    0    0    0 -0.13050179034E+02 -0.80239659781E+01  0.26343494756E+02  0.30474102428E+02  0.00000000000E+00 0. -1.
</event>
<event>
 5    1  0.6835419E-004  0.9118800E+02  0.7818608E-02  0.1130116E+00
         25   -1    0    0    0    0  0.00000000000E+00  0.00000000000E+00  0.99999998245E-14  0.12500000000E+03  0.12500000000E+03 0.  0.
        -13    1    3    3    0    0 -0.45388561317E+02 -0.15769967689E+02 -0.31591294074E+02  0.57505081555E+02  0.10566000000E+00 0. -1.
         23    2    1    0    0    0 -0.19991014045E+02  0.37562214215E+01  0.27554881163E+01  0.10447336957E+03  0.10243701671E+03 0.  0.
         13    1    3    3    0    0  0.25397547272E+02  0.19526189110E+02  0.34346782190E+02  0.46968288019E+02  0.10566000000E+00 0.  1.
         22    1    1    0    0    0  0.19991014045E+02 -0.37562214215E+01 -0.27554881163E+01  0.20526630426E+02  0.00000000000E+00 0. -1.
</event>
<event>
 5    1  0.6835419E-004  0.9118800E+02  0.7818608E-02  0.1130116E+00
         25   -1    0    0    0    0  0.00000000000E+00  0.00000000000E+00  0.99999998245E-14  0.12500000000E+03  0.12500000000E+03 0.  0.
        -13    1    3    3    0    0 -0.11581638783E+02 -0.48878157224E+02  0.36028199158E+02  0.61816267350E+02  0.10566000000E+00 0.  1.
         23    2    1    0    0    0 -0.10243511210E+02 -0.24958800379E+02  0.12977302917E+02  0.95062036988E+02  0.90224770696E+02 0.  0.
         13    1    3    3    0    0  0.13381275734E+01  0.23919356845E+02 -0.23050896241E+02  0.33245769638E+02  0.10566000000E+00 0. -1.
         22    1    1    0    0    0  0.10243511210E+02  0.24958800379E+02 -0.12977302917E+02  0.29937963012E+02  0.00000000000E+00 0.  1.
</event>
<event>
 5    1  0.6835419E-004  0.9118800E+02  0.7818608E-02  0.1130116E+00
         25   -1    0    0    0    0  0.00000000000E+00  0.00000000000E+00  0.99999998245E-14  0.12500000000E+03  0.12500000000E+03 0.  0.
        -13    1    3    3    0    0  0.18427838037E+02 -0.24639332772E+02 -0.35131521567E+02  0.46700288070E+02  0.10566000000E+00 0. -1.
         23    2    1    0    0    0 -0.13616703662E+02 -0.33075545959E+02 -0.11399520297E+02  0.87458617206E+02  0.78991482462E+02 0.  0.
         13    1    3    3    0    0 -0.32044541699E+02 -0.84362131865E+01  0.23732001270E+02  0.40758329136E+02  0.10566000000E+00 0.  1.
         22    1    1    0    0    0  0.13616703662E+02  0.33075545959E+02  0.11399520297E+02  0.37541382794E+02  0.00000000000E+00 0.  1.
</event>
<event>
 5    1  0.6835419E-004  0.9118800E+02  0.7818608E-02  0.1130116E+00
         25   -1    0    0    0    0  0.00000000000E+00  0.00000000000E+00  0.99999998245E-14  0.12500000000E+03  0.12500000000E+03 0.  0.
        -13    1    3    3    0    0 -0.36787510028E+02  0.10331162462E+02 -0.12044633586E+02  0.40064175695E+02  0.10566000000E+00 0. -1.
         23    2    1    0    0    0  0.19522188534E+02  0.79900377582E+01 -0.18695258844E+02  0.96813669061E+02  0.92619745548E+02 0.  0.
         13    1    3    3    0    0  0.56309698562E+02 -0.23411247035E+01 -0.66506252578E+01  0.56749493366E+02  0.10566000000E+00 0.  1.
         22    1    1    0    0    0 -0.19522188534E+02 -0.79900377582E+01  0.18695258844E+02  0.28186330939E+02  0.00000000000E+00 0.  1.
</event>
<event>
 5    1  0.6835419E-004  0.9118800E+02  0.7818608E-02  0.1130116E+00
         25   -1    0    0    0    0  0.00000000000E+00  0.00000000000E+00  0.99999998245E-14  0.12500000000E+03  0.12500000000E+03 0.  0.
        -13    1    3    3    0    0 -0.41112191281E+00 -0.15801244820E+02 -0.33386804333E+02  0.36939656559E+02  0.10566000000E+00 0. -1.
         23    2    1    0    0    0 -0.24525651243E+02  0.12934743198E+02  0.11101022414E+02  0.95132829911E+02  0.90322796003E+02 0.  0.
         13    1    3    3    0    0 -0.24114529330E+02  0.28735988018E+02  0.44487826747E+02  0.58193173353E+02  0.10566000000E+00 0.  1.
         22    1    1    0    0    0  0.24525651243E+02 -0.12934743198E+02 -0.11101022414E+02  0.29867170089E+02  0.00000000000E+00 0.  1.
</event>
<event>
 5    1  0.6835419E-004  0.9118800E+02  0.7818608E-02  0.1130116E+00
         25   -1    0    0    0    0  0.00000000000E+00  0.00000000000E+00  0.99999998245E-14  0.12500000000E+03  0.12500000000E+03 0.  0.
        -13    1    3    3    0    0  0.48626403084E+01  0.34215696752E+01 -0.33077547130E+02  0.33607851732E+02  0.10566000000E+00 0. -1.
         23    2    1    0    0    0  0.13304784878E+02 -0.23547166044E+01  0.27137091978E+02  0.94685255205E+02  0.89701247491E+02 0.  0.
         13    1    3    3    0    0  0.84421445695E+01 -0.57762862797E+01  0.60214639108E+02  0.61077403474E+02  0.10566000000E+00 0.  1.
         22    1    1    0    0    0 -0.13304784878E+02  0.23547166044E+01 -0.27137091978E+02  0.30314744795E+02  0.00000000000E+00 0.  1.
</event>
<event>
 5    1  0.6835419E-004  0.9118800E+02  0.7818608E-02  0.1130116E+00
         25   -1    0    0    0    0  0.00000000000E+00  0.00000000000E+00  0.99999998245E-14  0.12500000000E+03  0.12500000000E+03 0.  0.
        -13    1    3    3    0    0 -0.33448056657E+02 -0.48046822068E+02  0.19863060238E+02  0.61820885881E+02  0.10566000000E+00 0. -1.
         23    2    1    0    0    0 -0.10619361027E+02 -0.26547301184E+02  0.10365453383E+02  0.94586636940E+02  0.89563716063E+02 0.  0.
         13    1    3    3    0    0  0.22828695631E+02  0.21499520884E+02 -0.94976068557E+01  0.32765751059E+02  0.10566000000E+00 0.  1.
         22    1    1    0    0    0  0.10619361027E+02  0.26547301184E+02 -0.10365453383E+02  0.30413363060E+02  0.00000000000E+00 0. -1.
</event>
<event>
 5    1  0.6835419E-004  0.9118800E+02  0.7818608E-02  0.1130116E+00
         25   -1    0    0    0    0  0.00000000000E+00  0.00000000000E+00  0.99999998245E-14  0.12500000000E+03  0.12500000000E+03 0.  0.
        -13    1    3    3    0    0 -0.36075186168E+02 -0.11614709745E+00  0.24320597524E+02  0.43507874864E+02  0.10566000000E+00 0.  1.
         23    2    1    0    0    0  0.13585566136E+02  0.15588471053E+02  0.20736115135E+02  0.95715968381E+02  0.91126242626E+02 0.  0.
         13    1    3    3    0    0  0.49660752304E+02  0.15704618151E+02 -0.35844823895E+01  0.52208093517E+02  0.10566000000E+00 0. -1.
         22    1    1    0    0    0 -0.13585566136E+02 -0.15588471053E+02 -0.20736115135E+02  0.29284031619E+02  0.00000000000E+00 0.  1.
</event>
<event>
 5    1  0.6835419E-004  0.9118800E+02  0.7818608E-02  0.1130116E+00
         25   -1    0    0    0    0  0.00000000000E+00  0.00000000000E+00  0.99999998245E-14  0.12500000000E+03  0.12500000000E+03 0.  0.
        -13    1    3    3    0    0 -0.46839437892E+02 -0.10697210131E+02 -0.13425589610E+01  0.48064299383E+02  0.10566000000E+00 0. -1.
         23    2    1    0    0    0 -0.18680637350E+02  0.23346810140E+02 -0.10732429588E+02  0.93231701330E+02  0.87652297930E+02 0.  0.
         13    1    3    3    0    0  0.28158800542E+02  0.34044020271E+02 -0.93898706270E+01  0.45167401947E+02  0.10566000000E+00 0.  1.
         22    1    1    0    0    0  0.18680637350E+02 -0.23346810140E+02  0.10732429588E+02  0.31768298670E+02  0.00000000000E+00 0.  1.
</event>
<event>
 5    1  0.6835419E-004  0.9118800E+02  0.7818608E-02  0.1130116E+00
         25   -1    0    0    0    0  0.00000000000E+00  0.00000000000E+00  0.99999998245E-14  0.12500000000E+03  0.12500000000E+03 0.  0.
        -13    1    3    3    0    0 -0.59758945747E+02  0.12873251246E+01  0.46122213311E+01  0.59950584254E+02  0.10566000000E+00 0. -1.
         23    2    1    0    0    0 -0.28726808650E+02  0.10785508652E+01 -0.10407169745E+02  0.94427103682E+02  0.89340785314E+02 0.  0.
         13    1    3    3    0    0  0.31032137098E+02 -0.20877425936E+00 -0.15019391076E+02  0.34476519428E+02  0.10566000000E+00 0.  1.
         22    1    1    0    0    0  0.28726808650E+02 -0.10785508652E+01  0.10407169745E+02  0.30572896318E+02  0.00000000000E+00 0. -1.
</event>
<event>
 5    1  0.6835419E-004  0.9118800E+02  0.7818608E-02  0.1130116E+00
         25   -1    0    0    0    0  0.00000000000E+00  0.00000000000E+00  0.99999998245E-14  0.12500000000E+03  0.12500000000E+03 0.  0.
        -13    1    3    3    0    0 -0.31382737017E+02  0.71418819292E+01 -0.10166926647E+02  0.33752929082E+02  0.10566000000E+00 0.  1.
         23    2    1    0    0    0  0.26240593279E+02 -0.84905305716E+01  0.82111519723E+01  0.96223605825E+02  0.91819940406E+02 0.  0.
         13    1    3    3    0    0  0.57623330295E+02 -0.15632412501E+02  0.18378078619E+02  0.62470676743E+02  0.10566000000E+00 0. -1.
         22    1    1    0    0    0 -0.26240593279E+02  0.84905305716E+01 -0.82111519723E+01  0.28776394175E+02  0.00000000000E+00 0. -1.
</event>
<event>
 5    1  0.6835419E-004  0.9118800E+02  0.7818608E-02  0.1130116E+00
         25   -1    0    0    0    0  0.00000000000E+00  0.00000000000E+00  0.99999998245E-14  0.12500000000E+03  0.12500000000E+03 0.  0.
        -13    1    3    3    0    0  0.19041076073E+02  0.11267233491E+02  0.55692790534E+02  0.59926715328E+02  0.10566000000E+00 0.  1.
         23    2    1    0    0    0  0.14184548939E+02  0.16774018049E+02  0.23977769664E+02  0.92480735737E+02  0.86574730345E+02 0.  0.
         13    1    3    3    0    0 -0.48565271337E+01  0.55067845588E+01 -0.31715020870E+02  0.32554020409E+02  0.10566000000E+00 0. -1.
         22    1    1    0    0    0 -0.14184548939E+02 -0.16774018049E+02 -0.23977769664E+02  0.32519264263E+02  0.00000000000E+00 0.  1.
</event>
<event>
 5    1  0.6835419E-004  0.9118800E+02  0.7818608E-02  0.1130116E+00
         25   -1    0    0    0    0  0.00000000000E+00  0.00000000000E+00  0.99999998245E-14  0.12500000000E+03  0.12500000000E+03 0.  0.
        -13    1    3    3    0    0  0.12805824003E+02 -0.36752511913E+02 -0.24045600804E+01  0.38993965347E+02  0.10566000000E+00 0. -1.
         23    2    1    0    0    0  0.16358668666E+02  0.12889670217E+02  0.22240111189E+02  0.94530799411E+02  0.89485752234E+02 0.  0.
         13    1    3    3    0    0  0.35528446624E+01  0.49642182130E+02  0.24644671269E+02  0.55536834064E+02  0.10566000000E+00 0.  1.
         22    1    1    0    0    0 -0.16358668666E+02 -0.12889670217E+02 -0.22240111189E+02  0.30469200589E+02  0.00000000000E+00 0.  1.
</event>
<event>
 5    1  0.6835419E-004  0.9118800E+02  0.7818608E-02  0.1130116E+00
         25   -1    0    0    0    0  0.00000000000E+00  0.00000000000E+00  0.99999998245E-14  0.12500000000E+03  0.12500000000E+03 0.  0.
        -13    1    3    3    0    0  0.56255644172E+01 -0.33826458176E+02  0.38071735314E+02  0.51238115125E+02  0.10566000000E+00 0. -1.
         23    2    1    0    0    0  0.27319693492E+02 -0.18821884293E+02  0.87270340104E+01  0.90695625593E+02  0.83957765563E+02 0.  0.
         13    1    3    3    0    0  0.21694129075E+02  0.15004573883E+02 -0.29344701303E+02  0.39457510468E+02  0.10566000000E+00 0.  1.
         22    1    1    0    0    0 -0.27319693492E+02  0.18821884293E+02 -0.87270340104E+01  0.34304374407E+02  0.00000000000E+00 0. -1.
</event>
<event>
 5    1  0.6835419E-004  0.9118800E+02  0.7818608E-02  0.1130116E+00
         25   -1    0    0    0    0  0.00000000000E+00  0.00000000000E+00  0.99999998245E-14  0.12500000000E+03  0.12500000000E+03 0.  0.
        -13    1    3    3    0    0 -0.63272151987E+00 -0.18003950425E+02 -0.54091907905E+02  0.57013053174E+02  0.10566000000E+00 0.  1.
         23    2    1    0    0    0  0.15294626096E+02  0.18047027578E+01 -0.24920388885E+02  0.95704807192E+02  0.91110931276E+02 0.  0.
         13    1    3    3    0    0  0.15927347616E+02  0.19808653183E+02  0.29171519020E+02  0.38691754018E+02  0.10566000000E+00 0. -1.
         22    1    1    0    0    0 -0.15294626096E+02 -0.18047027578E+01  0.24920388885E+02  0.29295192808E+02  0.00000000000E+00 0.  1.
</event>
<event>
 5    1  0.6835419E-004  0.9118800E+02  0.7818608E-02  0.1130116E+00
         25   -1    0    0    0    0  0.00000000000E+00  0.00000000000E+00  0.99999998245E-14  0.12500000000E+03  0.12500000000E+03 0.  0.
        -13    1    3    3    0    0 -0.32183223148E+02 -0.12201289109E+02 -0.25737823757E+02  0.42977645863E+02  0.10566000000E+00 0.  1.
         23    2    1    0    0    0  0.12848171711E+02 -0.26231828325E+02 -0.21551460535E+01  0.95711282239E+02  0.91119814309E+02 0.  0.
         13    1    3    3    0    0  0.45031394860E+02 -0.14030539215E+02  0.23582677704E+02  0.52733636376E+02  0.10566000000E+00 0. -1.
         22    1    1    0    0    0 -0.12848171711E+02  0.26231828325E+02  0.21551460535E+01  0.29288717761E+02  0.00000000000E+00 0. -1.
</event>
<event>
 5    1  0.6835419E-004  0.9118800E+02  0.7818608E-02  0.1130116E+00
         25   -1    0    0    0    0  0.00000000000E+00  0.00000000000E+00  0.99999998245E-14  0.12500000000E+03  0.12500000000E+03 0.  0.
        -13    1    3    3    0    0  0.49817885154E+02  0.11212771437E+02  0.16948923427E+02  0.53803578820E+02  0.10566000000E+00 0.  1.
         23    2    1    0    0    0  0.16415064436E+02  0.13139096144E+02 -0.14289366299E+02  0.99578037504E+02  0.96278291302E+02 0.  0.
         13    1    3    3    0    0 -0.33402820718E+02  0.19263247062E+01 -0.31238289726E+02  0.45774458684E+02  0.10566000000E+00 0. -1.
         22    1    1    0    0    0 -0.16415064436E+02 -0.13139096144E+02  0.14289366299E+02  0.25421962496E+02  0.00000000000E+00 0. -1.
</event>
<event>
 5    1  0.6835419E-004  0.9118800E+02  0.7818608E-02  0.1130116E+00
         25   -1    0    0    0    0  0.00000000000E+00  0.00000000000E+00  0.99999998245E-14  0.12500000000E+03  0.12500000000E+03 0.  0.
        -13    1    3    3    0    0  0.32511950014E+02 -0.56862662505E+01  0.51973836842E+02  0.61568266158E+02  0.10566000000E+00 0. -1.
         23    2    1    0    0    0  0.20892614019E+02  0.35894513242E+00  0.20196575621E+02  0.95939170194E+02  0.91431901154E+02 0.  0.
         13    1    3    3    0    0 -0.11619335995E+02  0.60452113829E+01 -0.31777261220E+02  0.34370904037E+02  0.10566000000E+00 0.  1.
         22    1    1    0    0    0 -0.20892614019E+02 -0.35894513242E+00 -0.20196575621E+02  0.29060829806E+02  0.00000000000E+00 0. -1.
</event>
<event>
 5    1  0.6835419E-004  0.9118800E+02  0.7818608E-02  0.1130116E+00
         25   -1    0    0    0    0  0.00000000000E+00  0.00000000000E+00  0.99999998245E-14  0.12500000000E+03  0.12500000000E+03 0.  0.
        -13    1    3    3    0    0 -0.13786964850E+02  0.26240746635E+02  0.32765395913E+02  0.44184154593E+02  0.10566000000E+00 0. -1.
         23    2    1    0    0    0 -0.20766829895E+02 -0.18304156656E+02  0.58135776398E+01  0.96713942309E+02  0.92485055967E+02 0.  0.
         13    1    3    3    0    0 -0.69798650442E+01 -0.44544903291E+02 -0.26951818273E+02  0.52529787716E+02  0.10566000000E+00 0.  1.
         22    1    1    0    0    0  0.20766829895E+02  0.18304156656E+02 -0.58135776398E+01  0.28286057691E+02  0.00000000000E+00 0.  1.
</event>
<event>
 5    1  0.6835419E-004  0.9118800E+02  0.7818608E-02  0.1130116E+00
         25   -1    0    0    0    0  0.00000000000E+00  0.00000000000E+00  0.99999998245E-14  0.12500000000E+03  0.12500000000E+03 0.  0.
        -13    1    3    3    0    0 -0.22109551185E+02  0.10803360521E+02  0.36893378316E+02  0.44347236438E+02  0.10566000000E+00 0.  1.
         23    2    1    0    0    0  0.23969862202E+02  0.89910022764E+01  0.12756129641E+02  0.96397355728E+02  0.92056172700E+02 0.  0.
         13    1    3    3    0    0  0.46079413387E+02 -0.18123582444E+01 -0.24137248674E+02  0.52050119290E+02  0.10566000000E+00 0. -1.
         22    1    1    0    0    0 -0.23969862202E+02 -0.89910022764E+01 -0.12756129641E+02  0.28602644272E+02  0.00000000000E+00 0. -1.
</event>
<event>
 5    1  0.6835419E-004  0.9118800E+02  0.7818608E-02  0.1130116E+00
         25   -1    0    0    0    0  0.00000000000E+00  0.00000000000E+00  0.99999998245E-14  0.12500000000E+03  0.12500000000E+03 0.  0.
        -13    1    3    3    0    0  0.16006933775E+02 -0.25301454195E+02  0.26693960662E+02  0.40111896155E+02  0.10566000000E+00 0. -1.
         23    2    1    0    0    0 -0.16771036136E+02  0.18900530964E+02  0.11743494735E+02  0.97135912138E+02  0.93053629884E+02 0.  0.
         13    1    3    3    0    0 -0.32777969910E+02  0.44201985159E+02 -0.14950465927E+02  0.57024015984E+02  0.10566000000E+00 0.  1.
         22    1    1    0    0    0  0.16771036136E+02 -0.18900530964E+02 -0.11743494735E+02  0.27864087862E+02  0.00000000000E+00 0.  1.
</event>
<event>
 5    1  0.6835419E-004  0.9118800E+02  0.7818608E-02  0.1130116E+00
         25   -1    0    0    0    0  0.00000000000E+00  0.00000000000E+00  0.99999998245E-14  0.12500000000E+03  0.12500000000E+03 0.  0.
        -13    1    3    3    0    0 -0.47903438724E+02  0.13425295820E+02  0.23704023480E+02  0.55107802556E+02  0.10566000000E+00 0. -1.
         23    2    1    0    0    0 -0.20170594778E+02 -0.15171746101E+02  0.14114923382E+02  0.96081738719E+02  0.91626604650E+02 0.  0.
         13    1    3    3    0    0  0.27732843946E+02 -0.28597041921E+02 -0.95891000984E+01  0.40973936163E+02  0.10566000000E+00 0.  1.
         22    1    1    0    0    0  0.20170594778E+02  0.15171746101E+02 -0.14114923382E+02  0.28918261281E+02  0.00000000000E+00 0. -1.
</event>
<event>
 5    1  0.6835419E-004  0.9118800E+02  0.7818608E-02  0.1130116E+00
         25   -1    0    0    0    0  0.00000000000E+00  0.00000000000E+00  0.99999998245E-14  0.12500000000E+03  0.12500000000E+03 0.  0.
        -13    1    3    3    0    0  0.26530178605E+02  0.26689432965E+02 -0.79438085537E+01  0.38461558304E+02  0.10566000000E+00 0.  1.
         23    2    1    0    0    0 -0.53418126308E+01 -0.62102538636E+01  0.27453112731E+02  0.96350818269E+02  0.91992959335E+02 0.  0.
         13    1    3    3    0    0 -0.31871991236E+02 -0.32899686829E+02  0.35396921285E+02  0.57889259965E+02  0.10566000000E+00 0. -1.
         22    1    1    0    0    0  0.53418126308E+01  0.62102538636E+01 -0.27453112731E+02  0.28649181731E+02  0.00000000000E+00 0. -1.
</event>
<event>
 5    1  0.6835419E-004  0.9118800E+02  0.7818608E-02  0.1130116E+00
         25   -1    0    0    0    0  0.00000000000E+00  0.00000000000E+00  0.99999998245E-14  0.12500000000E+03  0.12500000000E+03 0.  0.
        -13    1    3    3    0    0 -0.10482333877E+01  0.25130911946E+02  0.23054675146E+02  0.34120239428E+02  0.10566000000E+00 0. -1.
         23    2    1    0    0    0 -0.10722036320E+02 -0.26072298792E+02 -0.91301365504E+01  0.95367480354E+02  0.90646953001E+02 0.  0.
         13    1    3    3    0    0 -0.96738029323E+01 -0.51203210738E+02 -0.32184811696E+02  0.61247240926E+02  0.10566000000E+00 0.  1.
         22    1    1    0    0    0  0.10722036320E+02  0.26072298792E+02  0.91301365504E+01  0.29632519646E+02  0.00000000000E+00 0.  1.
</event>
<event>
 5    1  0.6835419E-004  0.9118800E+02  0.7818608E-02  0.1130116E+00
         25   -1    0    0    0    0  0.00000000000E+00  0.00000000000E+00  0.99999998245E-14  0.12500000000E+03  0.12500000000E+03 0.  0.
        -13    1    3    3    0    0 -0.12029201128E+02  0.47135624471E+02  0.58304966206E+01  0.48994638778E+02  0.10566000000E+00 0.  1.
         23    2    1    0    0    0 -0.24165225922E+02  0.28300574161E+01  0.15783843236E+02  0.95998326322E+02  0.91512739990E+02 0.  0.
         13    1    3    3    0    0 -0.12136024794E+02 -0.44305567055E+02  0.99533466152E+01  0.47003687544E+02  0.10566000000E+00 0. -1.
         22    1    1    0    0    0  0.24165225922E+02 -0.28300574161E+01 -0.15783843236E+02  0.29001673678E+02  0.00000000000E+00 0.  1.
</event>
<event>
 5    1  0.6835419E-004  0.9118800E+02  0.7818608E-02  0.1130116E+00
         25   -1    0    0    0    0  0.00000000000E+00  0.00000000000E+00  0.99999998245E-14  0.12500000000E+03  0.12500000000E+03 0.  0.
        -13    1    3    3    0    0 -0.10522325297E+02  0.21859542326E+00  0.30618517214E+02  0.32377026949E+02  0.10566000000E+00 0. -1.
         23    2    1    0    0    0  0.21641626517E+02 -0.12999398558E+02 -0.19305866383E+02  0.93218545691E+02  0.87633534807E+02 0.  0.
         13    1    3    3    0    0  0.32163951814E+02 -0.13217993982E+02 -0.49924383598E+02  0.60841518742E+02  0.10566000000E+00 0.  1.
         22    1    1    0    0    0 -0.21641626517E+02  0.12999398558E+02  0.19305866383E+02  0.31781454309E+02  0.00000000000E+00 0.  1.
</event>
<event>
 5    1  0.6835419E-004  0.9118800E+02  0.7818608E-02  0.1130116E+00
         25   -1    0    0    0    0  0.00000000000E+00  0.00000000000E+00  0.99999998245E-14  0.12500000000E+03  0.12500000000E+03 0.  0.
        -13    1    3    3    0    0 -0.27703732704E+02  0.37692104828E+02 -0.13556587021E+02  0.48703016208E+02  0.10566000000E+00 0.  1.
         23    2    1    0    0    0 -0.20951800850E+02 -0.80910738431E+01 -0.19364921822E+02  0.95344585116E+02  0.90615375511E+02 0.  0.
         13    1    3    3    0    0  0.67519318534E+01 -0.45783178671E+02 -0.58083348010E+01  0.46641568908E+02  0.10566000000E+00 0. -1.
         22    1    1    0    0    0  0.20951800850E+02  0.80910738431E+01  0.19364921822E+02  0.29655414884E+02  0.00000000000E+00 0.  1.
</event>
<event>
 5    1  0.6835419E-004  0.9118800E+02  0.7818608E-02  0.1130116E+00
         25   -1    0    0    0    0  0.00000000000E+00  0.00000000000E+00  0.99999998245E-14  0.12500000000E+03  0.12500000000E+03 0.  0.
        -13    1    3    3    0    0 -0.40616329421E+02  0.15100255407E+02 -0.34183427042E+01  0.43467230875E+02  0.10566000000E+00 0.  1.
         23    2    1    0    0    0  0.45665521157E+01  0.64535524633E+01 -0.28194650116E+02  0.95717923011E+02  0.91128923799E+02 0.  0.
         13    1    3    3    0    0  0.45182881537E+02 -0.86467029440E+01 -0.24776307412E+02  0.52250692137E+02  0.10566000000E+00 0. -1.
         22    1    1    0    0    0 -0.45665521157E+01 -0.64535524633E+01  0.28194650116E+02  0.29282076989E+02  0.00000000000E+00 0. -1.
</event>
<event>
 5    1  0.6835419E-004  0.9118800E+02  0.7818608E-02  0.1130116E+00
         25   -1    0    0    0    0  0.00000000000E+00  0.00000000000E+00  0.99999998245E-14  0.12500000000E+03  0.12500000000E+03 0.  0.
        -13    1    3    3    0    0  0.23418928806E+02 -0.26420355921E+02  0.21091453952E+02  0.41125928893E+02  0.10566000000E+00 0.  1.
         23    2    1    0    0    0 -0.26372935337E+02 -0.13043305996E+02  0.10501931979E+02  0.93759799539E+02  0.88402205203E+02 0.  0.
         13    1    3    3    0    0 -0.49791864143E+02  0.13377049926E+02 -0.10589521974E+02  0.52633870646E+02  0.10566000000E+00 0. -1.
         22    1    1    0    0    0  0.26372935337E+02  0.13043305996E+02 -0.10501931979E+02  0.31240200461E+02  0.00000000000E+00 0. -1.
</event>
<event>
 5    1  0.6835419E-004  0.9118800E+02  0.7818608E-02  0.1130116E+00
         25   -1    0    0    0    0  0.00000000000E+00  0.00000000000E+00  0.99999998245E-14  0.12500000000E+03  0.12500000000E+03 0.  0.
        -13    1    3    3    0    0 -0.42053592593E+01 -0.13005723260E+02 -0.39659073207E+02  0.41948624956E+02  0.10566000000E+00 0.  1.
         23    2    1    0    0    0  0.17893331249E+02 -0.21484139737E+02  0.86401611434E+01  0.95735824837E+02  0.91153476122E+02 0.  0.
         13    1    3    3    0    0  0.22098690508E+02 -0.84784164772E+01  0.48299234350E+02  0.53787199881E+02  0.10566000000E+00 0. -1.
         22    1    1    0    0    0 -0.17893331249E+02  0.21484139737E+02 -0.86401611434E+01  0.29264175163E+02  0.00000000000E+00 0.  1.
</event>
<event>
 5    1  0.6835419E-004  0.9118800E+02  0.7818608E-02  0.1130116E+00
         25   -1    0    0    0    0  0.00000000000E+00  0.00000000000E+00  0.99999998245E-14  0.12500000000E+03  0.12500000000E+03 0.  0.
        -13    1    3    3    0    0  0.13291811449E+00  0.25415728987E+02 -0.42253366435E+02  0.49308570110E+02  0.10566000000E+00 0.  1.
         23    2    1    0    0    0  0.17529804174E+02  0.23755789113E+02  0.47502365437E+00  0.95472771918E+02  0.90792031475E+02 0.  0.
         13    1    3    3    0    0  0.17396886060E+02 -0.16599398740E+01  0.42728390089E+02  0.46164201808E+02  0.10566000000E+00 0. -1.
         22    1    1    0    0    0 -0.17529804174E+02 -0.23755789113E+02 -0.47502365437E+00  0.29527228082E+02  0.00000000000E+00 0. -1.
</event>
<event>
 5    1  0.6835419E-004  0.9118800E+02  0.7818608E-02  0.1130116E+00
         25   -1    0    0    0    0  0.00000000000E+00  0.00000000000E+00  0.99999998245E-14  0.12500000000E+03  0.12500000000E+03 0.  0.
        -13    1    3    3    0    0 -0.63336341609E+01 -0.21734399133E+02  0.47311926228E+02  0.52449295084E+02  0.10566000000E+00 0.  1.
         23    2    1    0    0    0  0.11389242206E+01 -0.29159078849E+02  0.58377042673E+01  0.95240500360E+02  0.90471681149E+02 0.  0.
         13    1    3    3    0    0  0.74725583815E+01 -0.74246797162E+01 -0.41474221961E+02  0.42791205276E+02  0.10566000000E+00 0. -1.
         22    1    1    0    0    0 -0.11389242206E+01  0.29159078849E+02 -0.58377042673E+01  0.29759499640E+02  0.00000000000E+00 0.  1.
</event>
<event>
 5    1  0.6835419E-004  0.9118800E+02  0.7818608E-02  0.1130116E+00
         25   -1    0    0    0    0  0.00000000000E+00  0.00000000000E+00  0.99999998245E-14  0.12500000000E+03  0.12500000000E+03 0.  0.
        -13    1    3    3    0    0 -0.13150971219E+02  0.40132795248E+02  0.60034366621E+01  0.42657258634E+02  0.10566000000E+00 0. -1.
         23    2    1    0    0    0  0.15628327668E+02 -0.10690718169E+02  0.13783612678E+02  0.10157940951E+03  0.98842563586E+02 0.  0.
         13    1    3    3    0    0  0.28779298887E+02 -0.50823513416E+02  0.77801760155E+01  0.58922150871E+02  0.10566000000E+00 0.  1.
         22    1    1    0    0    0 -0.15628327668E+02  0.10690718169E+02 -0.13783612678E+02  0.23420590495E+02  0.00000000000E+00 0.  1.
</event>
<event>
 5    1  0.6835419E-004  0.9118800E+02  0.7818608E-02  0.1130116E+00
         25   -1    0    0    0    0  0.00000000000E+00  0.00000000000E+00  0.99999998245E-14  0.12500000000E+03  0.12500000000E+03 0.  0.
        -13    1    3    3    0    0  0.30244759951E+02 -0.18487875984E+02 -0.31231004542E+01  0.35585277621E+02  0.10566000000E+00 0. -1.
         23    2    1    0    0    0 -0.22459237491E+02  0.98528375657E+01 -0.14515671805E+02  0.96500868702E+02  0.92196622365E+02 0.  0.
         13    1    3    3    0    0 -0.52703997441E+02  0.28340713549E+02 -0.11392571351E+02  0.60915591082E+02  0.10566000000E+00 0.  1.
         22    1    1    0    0    0  0.22459237491E+02 -0.98528375657E+01  0.14515671805E+02  0.28499131298E+02  0.00000000000E+00 0.  1.
</event>
<event>
 5    1  0.6835419E-004  0.9118800E+02  0.7818608E-02  0.1130116E+00
         25   -1    0    0    0    0  0.00000000000E+00  0.00000000000E+00  0.99999998245E-14  0.12500000000E+03  0.12500000000E+03 0.  0.
        -13    1    3    3    0    0  0.49757013773E+01 -0.55723547361E+02 -0.21693005706E+01  0.55987394686E+02  0.10566000000E+00 0.  1.
         23    2    1    0    0    0 -0.79536318653E+01 -0.23058880906E+02  0.16286120670E+02  0.95670663578E+02  0.91064075762E+02 0.  0.
         13    1    3    3    0    0 -0.12929333243E+02  0.32664666455E+02  0.18455421240E+02  0.39683268892E+02  0.10566000000E+00 0. -1.
         22    1    1    0    0    0  0.79536318653E+01  0.23058880906E+02 -0.16286120670E+02  0.29329336422E+02  0.00000000000E+00 0.  1.
</event>
<event>
 5    1  0.6835419E-004  0.9118800E+02  0.7818608E-02  0.1130116E+00
         25   -1    0    0    0    0  0.00000000000E+00  0.00000000000E+00  0.99999998245E-14  0.12500000000E+03  0.12500000000E+03 0.  0.
        -13    1    3    3    0    0  0.11909126202E+02  0.39696296967E+02  0.24848567778E+02  0.48322725134E+02  0.10566000000E+00 0.  1.
         23    2    1    0    0    0  0.58082141640E+01 -0.83524987170E+01  0.26322575377E+02  0.96779837685E+02  0.92574075320E+02 0.  0.
         13    1    3    3    0    0 -0.61009120382E+01 -0.48048795684E+02  0.14740075986E+01  0.48457112551E+02  0.10566000000E+00 0. -1.
         22    1    1    0    0    0 -0.58082141640E+01  0.83524987170E+01 -0.26322575377E+02  0.28220162315E+02  0.00000000000E+00 0. -1.
</event>
<event>
 5    1  0.6835419E-004  0.9118800E+02  0.7818608E-02  0.1130116E+00
         25   -1    0    0    0    0  0.00000000000E+00  0.00000000000E+00  0.99999998245E-14  0.12500000000E+03  0.12500000000E+03 0.  0.
        -13    1    3    3    0    0 -0.40233085970E+02 -0.15334330319E+02  0.34313045991E+02  0.55056690622E+02  0.10566000000E+00 0. -1.
         23    2    1    0    0    0 -0.12224308469E+02  0.10523679808E+02  0.26511814232E+02  0.93966826651E+02  0.88694456776E+02 0.  0.
         13    1    3    3    0    0  0.28008777501E+02  0.25858010127E+02 -0.78012317598E+01  0.38910136029E+02  0.10566000000E+00 0.  1.
         22    1    1    0    0    0  0.12224308469E+02 -0.10523679808E+02 -0.26511814232E+02  0.31033173349E+02  0.00000000000E+00 0. -1.
</event>
<event>
 5    1  0.6835419E-004  0.9118800E+02  0.7818608E-02  0.1130116E+00
         25   -1    0    0    0    0  0.00000000000E+00  0.00000000000E+00  0.99999998245E-14  0.12500000000E+03  0.12500000000E+03 0.  0.
        -13    1    3    3    0    0 -0.12134332783E+02  0.16848750513E+02  0.86422405289E+01  0.22490484906E+02  0.10566000000E+00 0. -1.
         23    2    1    0    0    0 -0.15386102967E+02 -0.40919721797E+02  0.90708396991E+01  0.80352089306E+02  0.66805855480E+02 0.  0.
         13    1    3    3    0    0 -0.32517701842E+01 -0.57768472310E+02  0.42859917021E+00  0.57861604399E+02  0.10566000000E+00 0.  1.
         22    1    1    0    0    0  0.15386102967E+02  0.40919721797E+02 -0.90708396991E+01  0.44647910694E+02  0.00000000000E+00 0.  1.
</event>
<event>
 5    1  0.6835419E-004  0.9118800E+02  0.7818608E-02  0.1130116E+00
         25   -1    0    0    0    0  0.00000000000E+00  0.00000000000E+00  0.99999998245E-14  0.12500000000E+03  0.12500000000E+03 0.  0.
        -13    1    3    3    0    0 -0.51045099222E+02 -0.50457327195E+01  0.33722483372E+02  0.61386306470E+02  0.10566000000E+00 0. -1.
         23    2    1    0    0    0 -0.27670532338E+02 -0.66652765309E+01  0.97330527314E+01  0.94919830676E+02  0.90027538393E+02 0.  0.
         13    1    3    3    0    0  0.23374566885E+02 -0.16195438113E+01 -0.23989430640E+02  0.33533524206E+02  0.10566000000E+00 0.  1.
         22    1    1    0    0    0  0.27670532338E+02  0.66652765309E+01 -0.97330527314E+01  0.30080169324E+02  0.00000000000E+00 0. -1.
</event>
<event>
 5    1  0.6835419E-004  0.9118800E+02  0.7818608E-02  0.1130116E+00
         25   -1    0    0    0    0  0.00000000000E+00  0.00000000000E+00  0.99999998245E-14  0.12500000000E+03  0.12500000000E+03 0.  0.
        -13    1    3    3    0    0 -0.36137858324E+02 -0.28832155898E+02 -0.93769792020E+01  0.47171780982E+02  0.10566000000E+00 0.  1.
         23    2    1    0    0    0  0.22962628790E+01 -0.65738415029E+01 -0.28597781320E+02  0.95566663258E+02  0.90921206627E+02 0.  0.
         13    1    3    3    0    0  0.38434121204E+02  0.22258314395E+02 -0.19220802118E+02  0.48394882276E+02  0.10566000000E+00 0. -1.
         22    1    1    0    0    0 -0.22962628790E+01  0.65738415029E+01  0.28597781320E+02  0.29433336742E+02  0.00000000000E+00 0. -1.
</event>
<event>
 5    1  0.6835419E-004  0.9118800E+02  0.7818608E-02  0.1130116E+00
         25   -1    0    0    0    0  0.00000000000E+00  0.00000000000E+00  0.99999998245E-14  0.12500000000E+03  0.12500000000E+03 0.  0.
        -13    1    3    3    0    0  0.90172537092E+01  0.10612049171E+02  0.34379519045E+02  0.37092977043E+02  0.10566000000E+00 0. -1.
         23    2    1    0    0    0 -0.20110112620E+02 -0.15938312824E+02 -0.10898210845E+02  0.97121380148E+02  0.93034106848E+02 0.  0.
         13    1    3    3    0    0 -0.29127366329E+02 -0.26550361995E+02 -0.45277729890E+02  0.60028403105E+02  0.10566000000E+00 0.  1.
         22    1    1    0    0    0  0.20110112620E+02  0.15938312824E+02  0.10898210845E+02  0.27878619852E+02  0.00000000000E+00 0.  1.
</event>
<event>
 5    1  0.6835419E-004  0.9118800E+02  0.7818608E-02  0.1130116E+00
         25   -1    0    0    0    0  0.00000000000E+00  0.00000000000E+00  0.99999998245E-14  0.12500000000E+03  0.12500000000E+03 0.  0.
        -13    1    3    3    0    0 -0.47034730535E+02  0.36783644362E+02  0.17726440438E+02  0.62285955268E+02  0.10566000000E+00 0. -1.
         23    2    1    0    0    0 -0.23753390943E+02  0.14420260989E+02  0.65269256878E+01  0.96455854064E+02  0.92135571393E+02 0.  0.
         13    1    3    3    0    0  0.23281339591E+02 -0.22363383372E+02 -0.11199514750E+02  0.34169898796E+02  0.10566000000E+00 0.  1.
         22    1    1    0    0    0  0.23753390943E+02 -0.14420260989E+02 -0.65269256878E+01  0.28544145936E+02  0.00000000000E+00 0. -1.
</event>
<event>
 5    1  0.6835419E-004  0.9118800E+02  0.7818608E-02  0.1130116E+00
         25   -1    0    0    0    0  0.00000000000E+00  0.00000000000E+00  0.99999998245E-14  0.12500000000E+03  0.12500000000E+03 0.  0.
        -13    1    3    3    0    0 -0.10089078587E+02 -0.56533350668E+02  0.12047504346E+02  0.58676765159E+02  0.10566000000E+00 0.  1.
         23    2    1    0    0    0  0.99757338922E+01 -0.29195356539E+02  0.18331073852E+01  0.94092971789E+02  0.88872059430E+02 0.  0.
         13    1    3    3    0    0  0.20064812479E+02  0.27337994129E+02 -0.10214396960E+02  0.35416206631E+02  0.10566000000E+00 0. -1.
         22    1    1    0    0    0 -0.99757338922E+01  0.29195356539E+02 -0.18331073852E+01  0.30907028211E+02  0.00000000000E+00 0.  1.
</event>
<event>
 5    1  0.6835419E-004  0.9118800E+02  0.7818608E-02  0.1130116E+00
         25   -1    0    0    0    0  0.00000000000E+00  0.00000000000E+00  0.99999998245E-14  0.12500000000E+03  0.12500000000E+03 0.  0.
        -13    1    3    3    0    0 -0.35100100741E+02 -0.14416482429E+02 -0.48251284337E+02  0.61384441366E+02  0.10566000000E+00 0.  1.
         23    2    1    0    0    0 -0.67152723571E+01 -0.43938379218E+01 -0.22882286769E+02  0.10075129401E+03  0.97789690162E+02 0.  0.
         13    1    3    3    0    0  0.28384828384E+02  0.10022644507E+02  0.25368997567E+02  0.39366852642E+02  0.10566000000E+00 0. -1.
         22    1    1    0    0    0  0.67152723571E+01  0.43938379218E+01  0.22882286769E+02  0.24248705992E+02  0.00000000000E+00 0.  1.
</event>
<event>
 5    1  0.6835419E-004  0.9118800E+02  0.7818608E-02  0.1130116E+00
         25   -1    0    0    0    0  0.00000000000E+00  0.00000000000E+00  0.99999998245E-14  0.12500000000E+03  0.12500000000E+03 0.  0.
        -13    1    3    3    0    0  0.48299482698E+02  0.20008500247E+02  0.30003199587E+02  0.60277551879E+02  0.10566000000E+00 0.  1.
         23    2    1    0    0    0  0.10978281993E+02  0.64857452428E+01  0.20111243826E+02  0.10118719472E+03  0.98345303299E+02 0.  0.
         13    1    3    3    0    0 -0.37321200705E+02 -0.13522755004E+02 -0.98919557607E+01  0.40909642846E+02  0.10566000000E+00 0. -1.
         22    1    1    0    0    0 -0.10978281993E+02 -0.64857452428E+01 -0.20111243826E+02  0.23812805276E+02  0.00000000000E+00 0.  1.
</event>
<event>
 5    1  0.6835419E-004  0.9118800E+02  0.7818608E-02  0.1130116E+00
         25   -1    0    0    0    0  0.00000000000E+00  0.00000000000E+00  0.99999998245E-14  0.12500000000E+03  0.12500000000E+03 0.  0.
        -13    1    3    3    0    0 -0.50625433980E+01  0.38929457911E+02  0.31085528141E+02  0.50074477159E+02  0.10566000000E+00 0.  1.
         23    2    1    0    0    0 -0.29917983492E+01  0.23974304139E+02 -0.13623082822E+02  0.97263624933E+02  0.93225030079E+02 0.  0.
         13    1    3    3    0    0  0.20707450488E+01 -0.14955153772E+02 -0.44708610963E+02  0.47189147774E+02  0.10566000000E+00 0. -1.
         22    1    1    0    0    0  0.29917983492E+01 -0.23974304139E+02  0.13623082822E+02  0.27736375067E+02  0.00000000000E+00 0.  1.
</event>
<event>
 5    1  0.6835419E-004  0.9118800E+02  0.7818608E-02  0.1130116E+00
         25   -1    0    0    0    0  0.00000000000E+00  0.00000000000E+00  0.99999998245E-14  0.12500000000E+03  0.12500000000E+03 0.  0.
        -13    1    3    3    0    0 -0.25081335718E+01  0.29548003847E+02  0.17537779040E+02  0.34452287632E+02  0.10566000000E+00 0.  1.
         23    2    1    0    0    0  0.88630224303E+01 -0.26714916615E+02 -0.55308611306E+01  0.96314980195E+02  0.91944249678E+02 0.  0.
         13    1    3    3    0    0  0.11371156002E+02 -0.56262920462E+02 -0.23068640171E+02  0.61862692563E+02  0.10566000000E+00 0. -1.
         22    1    1    0    0    0 -0.88630224303E+01  0.26714916615E+02  0.55308611306E+01  0.28685019805E+02  0.00000000000E+00 0. -1.
</event>
<event>
 5    1  0.6835419E-004  0.9118800E+02  0.7818608E-02  0.1130116E+00
         25   -1    0    0    0    0  0.00000000000E+00  0.00000000000E+00  0.99999998245E-14  0.12500000000E+03  0.12500000000E+03 0.  0.
        -13    1    3    3    0    0 -0.33106013730E+02 -0.25246060608E+02  0.11838346826E+02  0.43284285150E+02  0.10566000000E+00 0.  1.
         23    2    1    0    0    0 -0.25781062316E+02  0.19874868563E+02  0.15106986113E+02  0.89112751514E+02  0.81567075946E+02 0.  0.
         13    1    3    3    0    0  0.73249514146E+01  0.45120929170E+02  0.32686392874E+01  0.45828466364E+02  0.10566000000E+00 0. -1.
         22    1    1    0    0    0  0.25781062316E+02 -0.19874868563E+02 -0.15106986113E+02  0.35887248486E+02  0.00000000000E+00 0.  1.
</event>
<event>
 5    1  0.6835419E-004  0.9118800E+02  0.7818608E-02  0.1130116E+00
         25   -1    0    0    0    0  0.00000000000E+00  0.00000000000E+00  0.99999998245E-14  0.12500000000E+03  0.12500000000E+03 0.  0.
        -13    1    3    3    0    0 -0.26611932904E+02  0.51857555404E+02 -0.11733880759E+02  0.59456674538E+02  0.10566000000E+00 0.  1.
         23    2    1    0    0    0 -0.68270392585E+01  0.21590712226E+02 -0.17895804263E+02  0.96137790630E+02  0.91703040613E+02 0.  0.
         13    1    3    3    0    0  0.19784893646E+02 -0.30266843178E+02 -0.61619235040E+01  0.36681116093E+02  0.10566000000E+00 0. -1.
         22    1    1    0    0    0  0.68270392585E+01 -0.21590712226E+02  0.17895804263E+02  0.28862209370E+02  0.00000000000E+00 0.  1.
</event>
<event>
 5    1  0.6835419E-004  0.9118800E+02  0.7818608E-02  0.1130116E+00
         25   -1    0    0    0    0  0.00000000000E+00  0.00000000000E+00  0.99999998245E-14  0.12500000000E+03  0.12500000000E+03 0.  0.
        -13    1    3    3    0    0  0.38002428405E+02  0.20342954486E+02  0.36926853695E+02  0.56759352091E+02  0.10566000000E+00 0. -1.
         23    2    1    0    0    0  0.60135492086E+01  0.24291636122E+02  0.13876270491E+02  0.96385366640E+02  0.92039891678E+02 0.  0.
         13    1    3    3    0    0 -0.31988879197E+02  0.39486816356E+01 -0.23050583204E+02  0.39626014549E+02  0.10566000000E+00 0.  1.
         22    1    1    0    0    0 -0.60135492086E+01 -0.24291636122E+02 -0.13876270491E+02  0.28614633360E+02  0.00000000000E+00 0. -1.
</event>
<event>
 5    1  0.6835419E-004  0.9118800E+02  0.7818608E-02  0.1130116E+00
         25   -1    0    0    0    0  0.00000000000E+00  0.00000000000E+00  0.99999998245E-14  0.12500000000E+03  0.12500000000E+03 0.  0.
        -13    1    3    3    0    0 -0.21154139639E+02 -0.37664252410E+02  0.16600866771E+02  0.46278434233E+02  0.10566000000E+00 0.  1.
         23    2    1    0    0    0 -0.42392432895E+02 -0.22982438579E+02  0.36700401806E+00  0.76777126364E+02  0.59743464839E+02 0.  0.
         13    1    3    3    0    0 -0.21238293256E+02  0.14681813831E+02 -0.16233862753E+02  0.30498692131E+02  0.10566000000E+00 0. -1.
         22    1    1    0    0    0  0.42392432895E+02  0.22982438579E+02 -0.36700401806E+00  0.48222873636E+02  0.00000000000E+00 0.  1.
</event>
<event>
 5    1  0.6835419E-004  0.9118800E+02  0.7818608E-02  0.1130116E+00
         25   -1    0    0    0    0  0.00000000000E+00  0.00000000000E+00  0.99999998245E-14  0.12500000000E+03  0.12500000000E+03 0.  0.
        -13    1    3    3    0    0 -0.15046406869E+02  0.39449054330E+02  0.22194981209E+02  0.47699587022E+02  0.10566000000E+00 0.  1.
         23    2    1    0    0    0  0.19185404444E+00  0.55929310037E+01  0.36933074066E+02  0.87645353098E+02  0.79286431844E+02 0.  0.
         13    1    3    3    0    0  0.15238260913E+02 -0.33856123326E+02  0.14738092857E+02  0.39945766076E+02  0.10566000000E+00 0. -1.
         22    1    1    0    0    0 -0.19185404444E+00 -0.55929310037E+01 -0.36933074066E+02  0.37354646902E+02  0.00000000000E+00 0.  1.
</event>
<event>
 5    1  0.6835419E-004  0.9118800E+02  0.7818608E-02  0.1130116E+00
         25   -1    0    0    0    0  0.00000000000E+00  0.00000000000E+00  0.99999998245E-14  0.12500000000E+03  0.12500000000E+03 0.  0.
        -13    1    3    3    0    0  0.20507298003E+02  0.43866705662E+02  0.17018897693E+02  0.51327294686E+02  0.10566000000E+00 0.  1.
         23    2    1    0    0    0 -0.16180305931E+02  0.22517281631E+02  0.14146806246E+02  0.93871839132E+02  0.88560486578E+02 0.  0.
         13    1    3    3    0    0 -0.36687603933E+02 -0.21349424031E+02 -0.28720914471E+01  0.42544544446E+02  0.10566000000E+00 0. -1.
         22    1    1    0    0    0  0.16180305931E+02 -0.22517281631E+02 -0.14146806246E+02  0.31128160868E+02  0.00000000000E+00 0. -1.
</event>
<event>
 5    1  0.6835419E-004  0.9118800E+02  0.7818608E-02  0.1130116E+00
         25   -1    0    0    0    0  0.00000000000E+00  0.00000000000E+00  0.99999998245E-14  0.12500000000E+03  0.12500000000E+03 0.  0.
        -13    1    3    3    0    0  0.30358700284E+02 -0.80947957262E+01  0.51216547711E+02  0.60085957796E+02  0.10566000000E+00 0.  1.
         23    2    1    0    0    0  0.68244141161E+01  0.54566605976E+01  0.27513176735E+02  0.96132671289E+02  0.91696062195E+02 0.  0.
         13    1    3    3    0    0 -0.23534286168E+02  0.13551456324E+02 -0.23703370977E+02  0.36046713493E+02  0.10566000000E+00 0. -1.
         22    1    1    0    0    0 -0.68244141161E+01 -0.54566605976E+01 -0.27513176735E+02  0.28867328711E+02  0.00000000000E+00 0.  1.
</event>
<event>
 5    1  0.6835419E-004  0.9118800E+02  0.7818608E-02  0.1130116E+00
         25   -1    0    0    0    0  0.00000000000E+00  0.00000000000E+00  0.99999998245E-14  0.12500000000E+03  0.12500000000E+03 0.  0.
        -13    1    3    3    0    0 -0.32674449376E+02 -0.27933275696E+02 -0.16506059732E+02  0.46047244272E+02  0.10566000000E+00 0.  1.
         23    2    1    0    0    0  0.13937677330E+02 -0.26236625660E+02 -0.74343827340E+00  0.95281788818E+02  0.90528709283E+02 0.  0.
         13    1    3    3    0    0  0.46612126706E+02  0.16966500359E+01  0.15762621458E+02  0.49234544546E+02  0.10566000000E+00 0. -1.
         22    1    1    0    0    0 -0.13937677330E+02  0.26236625660E+02  0.74343827340E+00  0.29718211182E+02  0.00000000000E+00 0.  1.
</event>
<event>
 5    1  0.6835419E-004  0.9118800E+02  0.7818608E-02  0.1130116E+00
         25   -1    0    0    0    0  0.00000000000E+00  0.00000000000E+00  0.99999998245E-14  0.12500000000E+03  0.12500000000E+03 0.  0.
        -13    1    3    3    0    0  0.26875588937E+02 -0.25084229443E+02  0.10656958603E+02  0.38276595697E+02  0.10566000000E+00 0.  1.
         23    2    1    0    0    0 -0.17878730522E+02  0.12931805732E+02  0.16727628520E+02  0.97310757315E+02  0.93288205732E+02 0.  0.
         13    1    3    3    0    0 -0.44754319459E+02  0.38016035175E+02  0.60706699172E+01  0.59034161618E+02  0.10566000000E+00 0. -1.
         22    1    1    0    0    0  0.17878730522E+02 -0.12931805732E+02 -0.16727628520E+02  0.27689242685E+02  0.00000000000E+00 0. -1.
</event>
<event>
 5    1  0.6835419E-004  0.9118800E+02  0.7818608E-02  0.1130116E+00
         25   -1    0    0    0    0  0.00000000000E+00  0.00000000000E+00  0.99999998245E-14  0.12500000000E+03  0.12500000000E+03 0.  0.
        -13    1    3    3    0    0 -0.94542331021E+01 -0.36779371961E+02 -0.42409546233E-01  0.37975224660E+02  0.10566000000E+00 0.  1.
         23    2    1    0    0    0 -0.11166767851E+02  0.23730379570E+02  0.31008844223E+01  0.98590851907E+02  0.94987962273E+02 0.  0.
         13    1    3    3    0    0 -0.17125347488E+01  0.60509751531E+02  0.31432939685E+01  0.60615627247E+02  0.10566000000E+00 0. -1.
         22    1    1    0    0    0  0.11166767851E+02 -0.23730379570E+02 -0.31008844223E+01  0.26409148093E+02  0.00000000000E+00 0. -1.
</event>
<event>
 5    1  0.6835419E-004  0.9118800E+02  0.7818608E-02  0.1130116E+00
         25   -1    0    0    0    0  0.00000000000E+00  0.00000000000E+00  0.99999998245E-14  0.12500000000E+03  0.12500000000E+03 0.  0.
        -13    1    3    3    0    0 -0.32320715551E+02 -0.50126268217E+02  0.31955370641E+00  0.59643815251E+02  0.10566000000E+00 0.  1.
         23    2    1    0    0    0 -0.80776520778E+01 -0.25079918722E+02 -0.11220030222E+02  0.96361915840E+02  0.92008037475E+02 0.  0.
         13    1    3    3    0    0  0.24243063473E+02  0.25046349495E+02 -0.11539583929E+02  0.36718100589E+02  0.10566000000E+00 0. -1.
         22    1    1    0    0    0  0.80776520778E+01  0.25079918722E+02  0.11220030222E+02  0.28638084160E+02  0.00000000000E+00 0.  1.
</event>
<event>
 5    1  0.6835419E-004  0.9118800E+02  0.7818608E-02  0.1130116E+00
         25   -1    0    0    0    0  0.00000000000E+00  0.00000000000E+00  0.99999998245E-14  0.12500000000E+03  0.12500000000E+03 0.  0.
        -13    1    3    3    0    0  0.12786958437E+02  0.33411566802E+02  0.22508878271E+00  0.35775703086E+02  0.10566000000E+00 0. -1.
         23    2    1    0    0    0 -0.10146983352E+02 -0.16012839070E+02  0.23313444876E+02  0.94951888608E+02  0.90072038680E+02 0.  0.
         13    1    3    3    0    0 -0.22933941790E+02 -0.49424405873E+02  0.23088356093E+02  0.59176185522E+02  0.10566000000E+00 0.  1.
         22    1    1    0    0    0  0.10146983352E+02  0.16012839070E+02 -0.23313444876E+02  0.30048111392E+02  0.00000000000E+00 0.  1.
</event>
<event>
 5    1  0.6835419E-004  0.9118800E+02  0.7818608E-02  0.1130116E+00
         25   -1    0    0    0    0  0.00000000000E+00  0.00000000000E+00  0.99999998245E-14  0.12500000000E+03  0.12500000000E+03 0.  0.
        -13    1    3    3    0    0 -0.24283948879E+02 -0.54619904432E+02  0.14979762568E+02  0.61623441838E+02  0.10566000000E+00 0. -1.
         23    2    1    0    0    0 -0.10912946945E+02 -0.27093944745E+02 -0.21512334512E+00  0.95790061093E+02  0.91227820720E+02 0.  0.
         13    1    3    3    0    0  0.13371001934E+02  0.27525959687E+02 -0.15194885913E+02  0.34166619256E+02  0.10566000000E+00 0.  1.
         22    1    1    0    0    0  0.10912946945E+02  0.27093944745E+02  0.21512334512E+00  0.29209938907E+02  0.00000000000E+00 0. -1.
</event>
<event>
 5    1  0.6835419E-004  0.9118800E+02  0.7818608E-02  0.1130116E+00
         25   -1    0    0    0    0  0.00000000000E+00  0.00000000000E+00  0.99999998245E-14  0.12500000000E+03  0.12500000000E+03 0.  0.
        -13    1    3    3    0    0 -0.99541890135E+01 -0.38433935835E+02  0.39272690600E+02  0.55844504597E+02  0.10566000000E+00 0.  1.
         23    2    1    0    0    0 -0.21816257649E+02 -0.19956128649E+02  0.74474655737E+01  0.94509658711E+02  0.89456216540E+02 0.  0.
         13    1    3    3    0    0 -0.11862068635E+02  0.18477807186E+02 -0.31825225026E+02  0.38665154114E+02  0.10566000000E+00 0. -1.
         22    1    1    0    0    0  0.21816257649E+02  0.19956128649E+02 -0.74474655737E+01  0.30490341289E+02  0.00000000000E+00 0. -1.
</event>
<event>
 5    1  0.6835419E-004  0.9118800E+02  0.7818608E-02  0.1130116E+00
         25   -1    0    0    0    0  0.00000000000E+00  0.00000000000E+00  0.99999998245E-14  0.12500000000E+03  0.12500000000E+03 0.  0.
        -13    1    3    3    0    0  0.75512875291E+01  0.36474494862E+02  0.13510251936E+02  0.39622579298E+02  0.10566000000E+00 0.  1.
         23    2    1    0    0    0 -0.73049926730E+01  0.82638813607E+00 -0.27841556447E+02  0.96204199947E+02  0.91793518217E+02 0.  0.
         13    1    3    3    0    0 -0.14856280202E+02 -0.35648106726E+02 -0.41351808384E+02  0.56581620649E+02  0.10566000000E+00 0. -1.
         22    1    1    0    0    0  0.73049926730E+01 -0.82638813607E+00  0.27841556447E+02  0.28795800053E+02  0.00000000000E+00 0. -1.
</event>
<event>
 5    1  0.6835419E-004  0.9118800E+02  0.7818608E-02  0.1130116E+00
         25   -1    0    0    0    0  0.00000000000E+00  0.00000000000E+00  0.99999998245E-14  0.12500000000E+03  0.12500000000E+03 0.  0.
        -13    1    3    3    0    0 -0.23857236945E+02 -0.31306913828E+01  0.27542383505E+02  0.36572708901E+02  0.10566000000E+00 0.  1.
         23    2    1    0    0    0  0.28526754882E+02  0.14787892791E+01 -0.10225534612E+01  0.96416645099E+02  0.92082361366E+02 0.  0.
         13    1    3    3    0    0  0.52383991827E+02  0.46094806619E+01 -0.28564936966E+02  0.59843936198E+02  0.10566000000E+00 0. -1.
         22    1    1    0    0    0 -0.28526754882E+02 -0.14787892791E+01  0.10225534612E+01  0.28583354901E+02  0.00000000000E+00 0. -1.
</event>
<event>
 5    1  0.6835419E-004  0.9118800E+02  0.7818608E-02  0.1130116E+00
         25   -1    0    0    0    0  0.00000000000E+00  0.00000000000E+00  0.99999998245E-14  0.12500000000E+03  0.12500000000E+03 0.  0.
        -13    1    3    3    0    0  0.26422430704E+02 -0.62800731147E+01  0.21112846660E+02  0.34399820069E+02  0.10566000000E+00 0. -1.
         23    2    1    0    0    0 -0.20395790847E+02 -0.19737292171E+02 -0.12910877297E+02  0.93819240883E+02  0.88486214864E+02 0.  0.
         13    1    3    3    0    0 -0.46818221552E+02 -0.13457219056E+02 -0.34023723957E+02  0.59419420814E+02  0.10566000000E+00 0.  1.
         22    1    1    0    0    0  0.20395790847E+02  0.19737292171E+02  0.12910877297E+02  0.31180759117E+02  0.00000000000E+00 0.  1.
</event>
<event>
 5    1  0.6835419E-004  0.9118800E+02  0.7818608E-02  0.1130116E+00
         25   -1    0    0    0    0  0.00000000000E+00  0.00000000000E+00  0.99999998245E-14  0.12500000000E+03  0.12500000000E+03 0.  0.
        -13    1    3    3    0    0  0.11459445114E+02 -0.23443550803E+02  0.24755052921E+02  0.35968635861E+02  0.10566000000E+00 0.  1.
         23    2    1    0    0    0 -0.14824094963E+02  0.25696872859E+02  0.63074236234E+01  0.94670696365E+02  0.89680957239E+02 0.  0.
         13    1    3    3    0    0 -0.26283540076E+02  0.49140423662E+02 -0.18447629298E+02  0.58702060504E+02  0.10566000000E+00 0. -1.
         22    1    1    0    0    0  0.14824094963E+02 -0.25696872859E+02 -0.63074236234E+01  0.30329303635E+02  0.00000000000E+00 0. -1.
</event>
<event>
 5    1  0.6835419E-004  0.9118800E+02  0.7818608E-02  0.1130116E+00
         25   -1    0    0    0    0  0.00000000000E+00  0.00000000000E+00  0.99999998245E-14  0.12500000000E+03  0.12500000000E+03 0.  0.
        -13    1    3    3    0    0 -0.38830327993E+02 -0.13729767221E+02  0.34498278235E+02  0.53725629314E+02  0.10566000000E+00 0. -1.
         23    2    1    0    0    0 -0.29761088424E+02 -0.35733926990E+01 -0.41839868317E+01  0.94734553276E+02  0.89769918787E+02 0.  0.
         13    1    3    3    0    0  0.90692395685E+01  0.10156374522E+02 -0.38682265067E+02  0.41008923962E+02  0.10566000000E+00 0.  1.
         22    1    1    0    0    0  0.29761088424E+02  0.35733926990E+01  0.41839868317E+01  0.30265446724E+02  0.00000000000E+00 0. -1.
</event>
<event>
 5    1  0.6835419E-004  0.9118800E+02  0.7818608E-02  0.1130116E+00
         25   -1    0    0    0    0  0.00000000000E+00  0.00000000000E+00  0.99999998245E-14  0.12500000000E+03  0.12500000000E+03 0.  0.
        -13    1    3    3    0    0  0.17929662346E+01  0.53934732905E+02 -0.16805904904E+02  0.56520967305E+02  0.10566000000E+00 0.  1.
         23    2    1    0    0    0 -0.18306374111E+02  0.23640932853E+02 -0.97137135047E+01  0.93561595631E+02  0.88121500825E+02 0.  0.
         13    1    3    3    0    0 -0.20099340345E+02 -0.30293800052E+02  0.70921913993E+01  0.37040628326E+02  0.10566000000E+00 0. -1.
         22    1    1    0    0    0  0.18306374111E+02 -0.23640932853E+02  0.97137135047E+01  0.31438404369E+02  0.00000000000E+00 0.  1.
</event>
<event>
 5    1  0.6835419E-004  0.9118800E+02  0.7818608E-02  0.1130116E+00
         25   -1    0    0    0    0  0.00000000000E+00  0.00000000000E+00  0.99999998245E-14  0.12500000000E+03  0.12500000000E+03 0.  0.
        -13    1    3    3    0    0  0.24532869133E+02  0.15100883970E+02  0.18716905683E+02  0.34354506065E+02  0.10566000000E+00 0.  1.
         23    2    1    0    0    0 -0.24152933661E+02 -0.32913006420E+01 -0.15011631003E+02  0.96372287382E+02  0.92022126935E+02 0.  0.
         13    1    3    3    0    0 -0.48685802794E+02 -0.18392184612E+02 -0.33728536686E+02  0.62017781317E+02  0.10566000000E+00 0. -1.
         22    1    1    0    0    0  0.24152933661E+02  0.32913006420E+01  0.15011631003E+02  0.28627712618E+02  0.00000000000E+00 0. -1.
</event>
<event>
 5    1  0.6835419E-004  0.9118800E+02  0.7818608E-02  0.1130116E+00
         25   -1    0    0    0    0  0.00000000000E+00  0.00000000000E+00  0.99999998245E-14  0.12500000000E+03  0.12500000000E+03 0.  0.
        -13    1    3    3    0    0 -0.21291852785E+02  0.22878333207E+02 -0.12687720917E+02  0.33730558126E+02  0.10566000000E+00 0. -1.
         23    2    1    0    0    0  0.23863658085E+02 -0.14864516751E+02  0.74199803656E+01  0.95922789954E+02  0.91409504367E+02 0.  0.
         13    1    3    3    0    0  0.45155510870E+02 -0.37742849958E+02  0.20107701283E+02  0.62192231828E+02  0.10566000000E+00 0.  1.
         22    1    1    0    0    0 -0.23863658085E+02  0.14864516751E+02 -0.74199803656E+01  0.29077210046E+02  0.00000000000E+00 0.  1.
</event>
<event>
 5    1  0.6835419E-004  0.9118800E+02  0.7818608E-02  0.1130116E+00
         25   -1    0    0    0    0  0.00000000000E+00  0.00000000000E+00  0.99999998245E-14  0.12500000000E+03  0.12500000000E+03 0.  0.
        -13    1    3    3    0    0  0.25821033228E+02  0.16429724198E+02  0.32376309078E+02  0.44552195768E+02  0.10566000000E+00 0. -1.
         23    2    1    0    0    0  0.91468914751E+01  0.22478208844E+02 -0.15902158523E+02  0.95985966461E+02  0.91495855727E+02 0.  0.
         13    1    3    3    0    0 -0.16674141753E+02  0.60484846467E+01 -0.48278467602E+02  0.51433770693E+02  0.10566000000E+00 0.  1.
         22    1    1    0    0    0 -0.91468914751E+01 -0.22478208844E+02  0.15902158523E+02  0.29014033539E+02  0.00000000000E+00 0. -1.
</event>
<event>
 5    1  0.6835419E-004  0.9118800E+02  0.7818608E-02  0.1130116E+00
         25   -1    0    0    0    0  0.00000000000E+00  0.00000000000E+00  0.99999998245E-14  0.12500000000E+03  0.12500000000E+03 0.  0.
        -13    1    3    3    0    0  0.22630203802E+02 -0.27768766234E+02  0.95528200954E+01  0.37074223364E+02  0.10566000000E+00 0. -1.
         23    2    1    0    0    0  0.29067012373E+02  0.15352219752E+02 -0.16866699863E+02  0.88053181140E+02  0.79926812053E+02 0.  0.
         13    1    3    3    0    0  0.64368085713E+01  0.43120985987E+02 -0.26419519958E+02  0.50978957776E+02  0.10566000000E+00 0.  1.
         22    1    1    0    0    0 -0.29067012373E+02 -0.15352219752E+02  0.16866699863E+02  0.36946818860E+02  0.00000000000E+00 0.  1.
</event>
<event>
 5    1  0.6835419E-004  0.9118800E+02  0.7818608E-02  0.1130116E+00
         25   -1    0    0    0    0  0.00000000000E+00  0.00000000000E+00  0.99999998245E-14  0.12500000000E+03  0.12500000000E+03 0.  0.
        -13    1    3    3    0    0 -0.37715544163E+00  0.16833446467E+02  0.60166855108E+02  0.62478546588E+02  0.10566000000E+00 0. -1.
         23    2    1    0    0    0 -0.11471478336E+01  0.83988157521E+01  0.27714028256E+02  0.96018567731E+02  0.91540384163E+02 0.  0.
         13    1    3    3    0    0 -0.76999239195E+00 -0.84346307146E+01 -0.32452826851E+02  0.33540021143E+02  0.10566000000E+00 0.  1.
         22    1    1    0    0    0  0.11471478336E+01 -0.83988157521E+01 -0.27714028256E+02  0.28981432269E+02  0.00000000000E+00 0. -1.
</event>
<event>
 4    1  0.6835419E-004  0.9118800E+02  0.7818608E-02  0.1130116E+00
         25   -1    0    0    0    0  0.00000000000E+00  0.00000000000E+00  0.99999998245E-14  0.12500000000E+03  0.12500000000E+03 0.  0.
        -13    1    1    0    0    0 -0.20592479407E+02 -0.15323952177E+02 -0.37132835051E+02  0.45141248559E+02  0.10566000000E+00 0.  1.
         13    1    1    0    0    0 -0.23602842958E+02 -0.87252337538E+00  0.11723053928E+02  0.26368478344E+02  0.10566000000E+00 0. -1.
         22    1    1    0    0    0  0.44195322365E+02  0.16196475553E+02  0.25409781123E+02  0.53490273097E+02  0.00000000000E+00 0.  1.
</event>
<event>
 5    1  0.6835419E-004  0.9118800E+02  0.7818608E-02  0.1130116E+00
         25   -1    0    0    0    0  0.00000000000E+00  0.00000000000E+00  0.99999998245E-14  0.12500000000E+03  0.12500000000E+03 0.  0.
        -13    1    3    3    0    0  0.32486413420E+02 -0.19354082677E+02 -0.17053635232E+02  0.41482348196E+02  0.10566000000E+00 0. -1.
         23    2    1    0    0    0  0.15164704147E+02  0.21845836222E+02  0.13058710452E+02  0.95373344253E+02  0.90655038819E+02 0.  0.
         13    1    3    3    0    0 -0.17321709274E+02  0.41199918899E+02  0.30112345684E+02  0.53890996057E+02  0.10566000000E+00 0.  1.
         22    1    1    0    0    0 -0.15164704147E+02 -0.21845836222E+02 -0.13058710452E+02  0.29626655747E+02  0.00000000000E+00 0.  1.
</event>
<event>
 5    1  0.6835419E-004  0.9118800E+02  0.7818608E-02  0.1130116E+00
         25   -1    0    0    0    0  0.00000000000E+00  0.00000000000E+00  0.99999998245E-14  0.12500000000E+03  0.12500000000E+03 0.  0.
        -13    1    3    3    0    0 -0.16728977446E+01 -0.47092081406E+02 -0.16248944279E+02  0.49844779789E+02  0.10566000000E+00 0. -1.
         23    2    1    0    0    0 -0.12393754442E+02 -0.14242259625E+01 -0.24530298822E+02  0.97479659722E+02  0.93514249879E+02 0.  0.
         13    1    3    3    0    0 -0.10720856698E+02  0.45667855443E+02 -0.82813545426E+01  0.47634879933E+02  0.10566000000E+00 0.  1.
         22    1    1    0    0    0  0.12393754442E+02  0.14242259625E+01  0.24530298822E+02  0.27520340278E+02  0.00000000000E+00 0.  1.
</event>
<event>
 5    1  0.6835419E-004  0.9118800E+02  0.7818608E-02  0.1130116E+00
         25   -1    0    0    0    0  0.00000000000E+00  0.00000000000E+00  0.99999998245E-14  0.12500000000E+03  0.12500000000E+03 0.  0.
        -13    1    3    3    0    0 -0.48662209410E+02 -0.53208237408E+01  0.21747294239E+02  0.53565639739E+02  0.10566000000E+00 0.  1.
         23    2    1    0    0    0 -0.10402180585E+02 -0.22565858118E+02  0.14726436695E+02  0.96115899680E+02  0.91673196301E+02 0.  0.
         13    1    3    3    0    0  0.38260028825E+02 -0.17245034377E+02 -0.70208575440E+01  0.42550259941E+02  0.10566000000E+00 0. -1.
         22    1    1    0    0    0  0.10402180585E+02  0.22565858118E+02 -0.14726436695E+02  0.28884100320E+02  0.00000000000E+00 0. -1.
</event>
<event>
 5    1  0.6835419E-004  0.9118800E+02  0.7818608E-02  0.1130116E+00
         25   -1    0    0    0    0  0.00000000000E+00  0.00000000000E+00  0.99999998245E-14  0.12500000000E+03  0.12500000000E+03 0.  0.
        -13    1    3    3    0    0  0.29448465488E+02  0.27062296490E+01 -0.47686222093E+02  0.56111698781E+02  0.10566000000E+00 0.  1.
         23    2    1    0    0    0 -0.37581086423E+01 -0.69604852506E+01 -0.27993397169E+02  0.95910448258E+02  0.91392625875E+02 0.  0.
         13    1    3    3    0    0 -0.33206574131E+02 -0.96667148995E+01  0.19692824923E+02  0.39798749477E+02  0.10566000000E+00 0. -1.
         22    1    1    0    0    0  0.37581086423E+01  0.69604852506E+01  0.27993397169E+02  0.29089551742E+02  0.00000000000E+00 0.  1.
</event>
<event>
 5    1  0.6835419E-004  0.9118800E+02  0.7818608E-02  0.1130116E+00
         25   -1    0    0    0    0  0.00000000000E+00  0.00000000000E+00  0.99999998245E-14  0.12500000000E+03  0.12500000000E+03 0.  0.
        -13    1    3    3    0    0 -0.23060267497E+02 -0.25423035502E+02 -0.16651824569E+02  0.38149719484E+02  0.10566000000E+00 0. -1.
         23    2    1    0    0    0 -0.91946530415E+01  0.27294286789E+02  0.28828583863E+01  0.96054696264E+02  0.91589705022E+02 0.  0.
         13    1    3    3    0    0  0.13865614456E+02  0.52717322291E+02  0.19534682955E+02  0.57904976781E+02  0.10566000000E+00 0.  1.
         22    1    1    0    0    0  0.91946530415E+01 -0.27294286789E+02 -0.28828583863E+01  0.28945303736E+02  0.00000000000E+00 0.  1.
</event>
<event>
 5    1  0.6835419E-004  0.9118800E+02  0.7818608E-02  0.1130116E+00
         25   -1    0    0    0    0  0.00000000000E+00  0.00000000000E+00  0.99999998245E-14  0.12500000000E+03  0.12500000000E+03 0.  0.
        -13    1    3    3    0    0 -0.77874730332E+01  0.38388632894E+02  0.10577383754E+01  0.39184969647E+02  0.10566000000E+00 0.  1.
         23    2    1    0    0    0 -0.11561777023E+02 -0.13905681472E+02  0.22760510414E+02  0.95929680095E+02  0.91418925960E+02 0.  0.
         13    1    3    3    0    0 -0.37743039894E+01 -0.52294314366E+02  0.21702772038E+02  0.56744710448E+02  0.10566000000E+00 0. -1.
         22    1    1    0    0    0  0.11561777023E+02  0.13905681472E+02 -0.22760510414E+02  0.29070319905E+02  0.00000000000E+00 0. -1.
</event>
<event>
 5    1  0.6835419E-004  0.9118800E+02  0.7818608E-02  0.1130116E+00
         25   -1    0    0    0    0  0.00000000000E+00  0.00000000000E+00  0.99999998245E-14  0.12500000000E+03  0.12500000000E+03 0.  0.
        -13    1    3    3    0    0  0.16015361988E+01 -0.30093712035E+02 -0.45797370929E+02  0.54823414435E+02  0.10566000000E+00 0. -1.
         23    2    1    0    0    0  0.14673044530E+02 -0.20627842308E+02 -0.43334653878E+01  0.99317612332E+02  0.95939580377E+02 0.  0.
         13    1    3    3    0    0  0.13071508332E+02  0.94658697264E+01  0.41463905541E+02  0.44494197897E+02  0.10566000000E+00 0.  1.
         22    1    1    0    0    0 -0.14673044530E+02  0.20627842308E+02  0.43334653878E+01  0.25682387668E+02  0.00000000000E+00 0. -1.
</event>
<event>
 5    1  0.6835419E-004  0.9118800E+02  0.7818608E-02  0.1130116E+00
         25   -1    0    0    0    0  0.00000000000E+00  0.00000000000E+00  0.99999998245E-14  0.12500000000E+03  0.12500000000E+03 0.  0.
        -13    1    3    3    0    0 -0.20313006994E+02  0.30397744112E+02 -0.20091760951E+02  0.41717276067E+02  0.10566000000E+00 0.  1.
         23    2    1    0    0    0 -0.11318438921E+02 -0.22654340301E+02 -0.14504870319E+02  0.95815801244E+02  0.91263082958E+02 0.  0.
         13    1    3    3    0    0  0.89945680731E+01 -0.53052084413E+02  0.55868906330E+01  0.54098525177E+02  0.10566000000E+00 0. -1.
         22    1    1    0    0    0  0.11318438921E+02  0.22654340301E+02  0.14504870319E+02  0.29184198756E+02  0.00000000000E+00 0. -1.
</event>
<event>
 5    1  0.6835419E-004  0.9118800E+02  0.7818608E-02  0.1130116E+00
         25   -1    0    0    0    0  0.00000000000E+00  0.00000000000E+00  0.99999998245E-14  0.12500000000E+03  0.12500000000E+03 0.  0.
        -13    1    3    3    0    0 -0.23821992319E+02  0.72417740101E+01 -0.55867335271E+02  0.61164539753E+02  0.10566000000E+00 0.  1.
         23    2    1    0    0    0 -0.22995542335E+01  0.52289058742E+01 -0.27948457779E+02  0.96473771744E+02  0.92159877039E+02 0.  0.
         13    1    3    3    0    0  0.21522438086E+02 -0.20128681359E+01  0.27918877492E+02  0.35309231990E+02  0.10566000000E+00 0. -1.
         22    1    1    0    0    0  0.22995542335E+01 -0.52289058742E+01  0.27948457779E+02  0.28526228256E+02  0.00000000000E+00 0.  1.
</event>
<event>
 5    1  0.6835419E-004  0.9118800E+02  0.7818608E-02  0.1130116E+00
         25   -1    0    0    0    0  0.00000000000E+00  0.00000000000E+00  0.99999998245E-14  0.12500000000E+03  0.12500000000E+03 0.  0.
        -13    1    3    3    0    0  0.10586314287E+02  0.33952516320E+02 -0.59951959585E+01  0.36066562815E+02  0.10566000000E+00 0.  1.
         23    2    1    0    0    0  0.11764495089E+01 -0.26423816536E+02 -0.84843858250E+01  0.97222546614E+02  0.93169934279E+02 0.  0.
         13    1    3    3    0    0 -0.94098647779E+01 -0.60376332856E+02 -0.24891898665E+01  0.61155983800E+02  0.10566000000E+00 0. -1.
         22    1    1    0    0    0 -0.11764495089E+01  0.26423816536E+02  0.84843858250E+01  0.27777453386E+02  0.00000000000E+00 0. -1.
</event>
<event>
 5    1  0.6835419E-004  0.9118800E+02  0.7818608E-02  0.1130116E+00
         25   -1    0    0    0    0  0.00000000000E+00  0.00000000000E+00  0.99999998245E-14  0.12500000000E+03  0.12500000000E+03 0.  0.
        -13    1    3    3    0    0  0.46340004482E+02 -0.22656999952E+02  0.20329488002E+02  0.55443979914E+02  0.10566000000E+00 0.  1.
         23    2    1    0    0    0  0.13154380174E+02 -0.27678328437E+02  0.65733179738E+00  0.94347762432E+02  0.89229706981E+02 0.  0.
         13    1    3    3    0    0 -0.33185624308E+02 -0.50213284856E+01 -0.19672156204E+02  0.38903782518E+02  0.10566000000E+00 0. -1.
         22    1    1    0    0    0 -0.13154380174E+02  0.27678328437E+02 -0.65733179738E+00  0.30652237568E+02  0.00000000000E+00 0.  1.
</event>
<event>
 5    1  0.6835419E-004  0.9118800E+02  0.7818608E-02  0.1130116E+00
         25   -1    0    0    0    0  0.00000000000E+00  0.00000000000E+00  0.99999998245E-14  0.12500000000E+03  0.12500000000E+03 0.  0.
        -13    1    3    3    0    0 -0.17469550251E+02 -0.11522409483E+02  0.36217084132E+02  0.41828691748E+02  0.10566000000E+00 0.  1.
         23    2    1    0    0    0  0.25678588031E+02  0.85023078207E+01  0.98727574829E+01  0.96205027142E+02  0.91794644646E+02 0.  0.
         13    1    3    3    0    0  0.43148138282E+02  0.20024717304E+02 -0.26344326649E+02  0.54376335395E+02  0.10566000000E+00 0. -1.
         22    1    1    0    0    0 -0.25678588031E+02 -0.85023078207E+01 -0.98727574829E+01  0.28794972858E+02  0.00000000000E+00 0. -1.
</event>
<event>
 5    1  0.6835419E-004  0.9118800E+02  0.7818608E-02  0.1130116E+00
         25   -1    0    0    0    0  0.00000000000E+00  0.00000000000E+00  0.99999998245E-14  0.12500000000E+03  0.12500000000E+03 0.  0.
        -13    1    3    3    0    0  0.37750048162E+02  0.11418433409E+02 -0.86628571318E+01  0.40379487559E+02  0.10566000000E+00 0. -1.
         23    2    1    0    0    0 -0.79665016637E+01 -0.13117108203E+02 -0.25765607095E+02  0.95010165300E+02  0.90152877520E+02 0.  0.
         13    1    3    3    0    0 -0.45716549826E+02 -0.24535541611E+02 -0.17102749963E+02  0.54630677742E+02  0.10566000000E+00 0.  1.
         22    1    1    0    0    0  0.79665016637E+01  0.13117108203E+02  0.25765607095E+02  0.29989834700E+02  0.00000000000E+00 0.  1.
</event>
<event>
 5    1  0.6835419E-004  0.9118800E+02  0.7818608E-02  0.1130116E+00
         25   -1    0    0    0    0  0.00000000000E+00  0.00000000000E+00  0.99999998245E-14  0.12500000000E+03  0.12500000000E+03 0.  0.
        -13    1    3    3    0    0 -0.23322659994E+02 -0.10164137915E+02 -0.31965292685E+02  0.40853974950E+02  0.10566000000E+00 0. -1.
         23    2    1    0    0    0  0.20944420667E+02  0.16053722057E+02 -0.10943124305E+02  0.96431788321E+02  0.92102915699E+02 0.  0.
         13    1    3    3    0    0  0.44267080661E+02  0.26217859972E+02  0.21022168380E+02  0.55577813372E+02  0.10566000000E+00 0.  1.
         22    1    1    0    0    0 -0.20944420667E+02 -0.16053722057E+02  0.10943124305E+02  0.28568211679E+02  0.00000000000E+00 0.  1.
</event>
<event>
 5    1  0.6835419E-004  0.9118800E+02  0.7818608E-02  0.1130116E+00
         25   -1    0    0    0    0  0.00000000000E+00  0.00000000000E+00  0.99999998245E-14  0.12500000000E+03  0.12500000000E+03 0.  0.
        -13    1    3    3    0    0 -0.40544200918E+02  0.27854574106E+01 -0.22856327693E+02  0.46626321759E+02  0.10566000000E+00 0.  1.
         23    2    1    0    0    0 -0.10237362066E+01 -0.24934644754E+02  0.17294126321E-01  0.10004434245E+03  0.96881812595E+02 0.  0.
         13    1    3    3    0    0  0.39520464712E+02 -0.27720102165E+02  0.22873621820E+02  0.53418020688E+02  0.10566000000E+00 0. -1.
         22    1    1    0    0    0  0.10237362066E+01  0.24934644754E+02 -0.17294126321E-01  0.24955657553E+02  0.00000000000E+00 0.  1.
</event>
<event>
 5    1  0.6835419E-004  0.9118800E+02  0.7818608E-02  0.1130116E+00
         25   -1    0    0    0    0  0.00000000000E+00  0.00000000000E+00  0.99999998245E-14  0.12500000000E+03  0.12500000000E+03 0.  0.
        -13    1    3    3    0    0  0.23879543977E+02  0.42752257286E+02  0.10890064116E+02  0.50165653430E+02  0.10566000000E+00 0. -1.
         23    2    1    0    0    0  0.16349313252E+02  0.17576394716E+01  0.25776776404E+02  0.94424985003E+02  0.89337820942E+02 0.  0.
         13    1    3    3    0    0 -0.75302307251E+01 -0.40994617814E+02  0.14886712287E+02  0.44259331573E+02  0.10566000000E+00 0.  1.
         22    1    1    0    0    0 -0.16349313252E+02 -0.17576394716E+01 -0.25776776404E+02  0.30575014997E+02  0.00000000000E+00 0. -1.
</event>
<event>
 5    1  0.6835419E-004  0.9118800E+02  0.7818608E-02  0.1130116E+00
         25   -1    0    0    0    0  0.00000000000E+00  0.00000000000E+00  0.99999998245E-14  0.12500000000E+03  0.12500000000E+03 0.  0.
        -13    1    3    3    0    0 -0.23160668118E+02  0.32585920380E+02 -0.52224221251E+01  0.40318030849E+02  0.10566000000E+00 0.  1.
         23    2    1    0    0    0  0.43674156091E+01 -0.85833187184E+01 -0.28409784001E+02  0.95002274982E+02  0.90141936663E+02 0.  0.
         13    1    3    3    0    0  0.27528083727E+02 -0.41169239098E+02 -0.23187361875E+02  0.54684244133E+02  0.10566000000E+00 0. -1.
         22    1    1    0    0    0 -0.43674156091E+01  0.85833187184E+01  0.28409784001E+02  0.29997725018E+02  0.00000000000E+00 0. -1.
</event>
<event>
 5    1  0.6835419E-004  0.9118800E+02  0.7818608E-02  0.1130116E+00
         25   -1    0    0    0    0  0.00000000000E+00  0.00000000000E+00  0.99999998245E-14  0.12500000000E+03  0.12500000000E+03 0.  0.
        -13    1    3    3    0    0  0.99056510258E+01 -0.22013861067E+02  0.50404893235E+02  0.55887354808E+02  0.10566000000E+00 0. -1.
         23    2    1    0    0    0 -0.12366860354E+02  0.28102802755E+01  0.21581859162E+02  0.99967749699E+02  0.96782939740E+02 0.  0.
         13    1    3    3    0    0 -0.22272511380E+02  0.24824141343E+02 -0.28823034073E+02  0.44080394891E+02  0.10566000000E+00 0.  1.
         22    1    1    0    0    0  0.12366860354E+02 -0.28102802755E+01 -0.21581859162E+02  0.25032250301E+02  0.00000000000E+00 0.  1.
</event>
<event>
 5    1  0.6835419E-004  0.9118800E+02  0.7818608E-02  0.1130116E+00
         25   -1    0    0    0    0  0.00000000000E+00  0.00000000000E+00  0.99999998245E-14  0.12500000000E+03  0.12500000000E+03 0.  0.
        -13    1    3    3    0    0  0.20349424302E+02  0.31588579175E+01 -0.19835390290E+02  0.28592504695E+02  0.10566000000E+00 0. -1.
         23    2    1    0    0    0 -0.32525731845E+02  0.13082576254E+01  0.11961555430E+02  0.90319838836E+02  0.83396401056E+02 0.  0.
         13    1    3    3    0    0 -0.52875156147E+02 -0.18506002921E+01  0.31796945720E+02  0.61727334141E+02  0.10566000000E+00 0.  1.
         22    1    1    0    0    0  0.32525731845E+02 -0.13082576254E+01 -0.11961555430E+02  0.34680161164E+02  0.00000000000E+00 0.  1.
</event>
<event>
 5    1  0.6835419E-004  0.9118800E+02  0.7818608E-02  0.1130116E+00
         25   -1    0    0    0    0  0.00000000000E+00  0.00000000000E+00  0.99999998245E-14  0.12500000000E+03  0.12500000000E+03 0.  0.
        -13    1    3    3    0    0 -0.44064318593E+02 -0.39612279940E+02  0.47272906079E+01  0.59440351073E+02  0.10566000000E+00 0. -1.
         23    2    1    0    0    0 -0.22321433904E+02 -0.29419412148E+02 -0.88483255057E+01  0.87025783920E+02  0.78303550239E+02 0.  0.
         13    1    3    3    0    0  0.21742884690E+02  0.10192867792E+02 -0.13575616114E+02  0.27585432847E+02  0.10566000000E+00 0.  1.
         22    1    1    0    0    0  0.22321433904E+02  0.29419412148E+02  0.88483255057E+01  0.37974216080E+02  0.00000000000E+00 0. -1.
</event>
<event>
 5    1  0.6835419E-004  0.9118800E+02  0.7818608E-02  0.1130116E+00
         25   -1    0    0    0    0  0.00000000000E+00  0.00000000000E+00  0.99999998245E-14  0.12500000000E+03  0.12500000000E+03 0.  0.
        -13    1    3    3    0    0 -0.37756691510E+02 -0.39317334082E+01 -0.15760048069E+02  0.41102512825E+02  0.10566000000E+00 0. -1.
         23    2    1    0    0    0 -0.24577731305E+01 -0.35770780488E+01 -0.40537346480E+02  0.84230984856E+02  0.73707165283E+02 0.  0.
         13    1    3    3    0    0  0.35298918379E+02  0.35465535942E+00 -0.24777298411E+02  0.43128472031E+02  0.10566000000E+00 0.  1.
         22    1    1    0    0    0  0.24577731305E+01  0.35770780488E+01  0.40537346480E+02  0.40769015144E+02  0.00000000000E+00 0.  1.
</event>
<event>
 5    1  0.6835419E-004  0.9118800E+02  0.7818608E-02  0.1130116E+00
         25   -1    0    0    0    0  0.00000000000E+00  0.00000000000E+00  0.99999998245E-14  0.12500000000E+03  0.12500000000E+03 0.  0.
        -13    1    3    3    0    0 -0.58284986980E+01  0.42514456341E+02  0.24660426806E+01  0.42983053935E+02  0.10566000000E+00 0.  1.
         23    2    1    0    0    0 -0.13910373687E+02 -0.43376107962E+01  0.25359919212E+02  0.95752113479E+02  0.91175810222E+02 0.  0.
         13    1    3    3    0    0 -0.80818749887E+01 -0.46852067138E+02  0.22893876531E+02  0.52769059543E+02  0.10566000000E+00 0. -1.
         22    1    1    0    0    0  0.13910373687E+02  0.43376107962E+01 -0.25359919212E+02  0.29247886521E+02  0.00000000000E+00 0. -1.
</event>
<event>
 5    1  0.6835419E-004  0.9118800E+02  0.7818608E-02  0.1130116E+00
         25   -1    0    0    0    0  0.00000000000E+00  0.00000000000E+00  0.99999998245E-14  0.12500000000E+03  0.12500000000E+03 0.  0.
        -13    1    3    3    0    0  0.42411246990E+02 -0.19717808114E+02  0.32861614897E+02  0.57161199478E+02  0.10566000000E+00 0.  1.
         23    2    1    0    0    0  0.20428364239E+02  0.74706629532E+01  0.22675364250E+02  0.93578653524E+02  0.88145694059E+02 0.  0.
         13    1    3    3    0    0 -0.21982882751E+02  0.27188471067E+02 -0.10186250646E+02  0.36417454047E+02  0.10566000000E+00 0. -1.
         22    1    1    0    0    0 -0.20428364239E+02 -0.74706629532E+01 -0.22675364250E+02  0.31421346476E+02  0.00000000000E+00 0.  1.
</event>
<event>
 5    1  0.6835419E-004  0.9118800E+02  0.7818608E-02  0.1130116E+00
         25   -1    0    0    0    0  0.00000000000E+00  0.00000000000E+00  0.99999998245E-14  0.12500000000E+03  0.12500000000E+03 0.  0.
        -13    1    3    3    0    0 -0.14497801555E+02 -0.40957757087E+02 -0.10241543305E+01  0.43460144635E+02  0.10566000000E+00 0.  1.
         23    2    1    0    0    0  0.25407116760E+02 -0.17225223595E+02  0.12557709873E+02  0.91834867900E+02  0.85637123813E+02 0.  0.
         13    1    3    3    0    0  0.39904918315E+02  0.23732533492E+02  0.13581864203E+02  0.48374723265E+02  0.10566000000E+00 0. -1.
         22    1    1    0    0    0 -0.25407116760E+02  0.17225223595E+02 -0.12557709873E+02  0.33165132100E+02  0.00000000000E+00 0. -1.
</event>
<event>
 5    1  0.6835419E-004  0.9118800E+02  0.7818608E-02  0.1130116E+00
         25   -1    0    0    0    0  0.00000000000E+00  0.00000000000E+00  0.99999998245E-14  0.12500000000E+03  0.12500000000E+03 0.  0.
        -13    1    3    3    0    0  0.47662658913E+02  0.35807350148E+02  0.17762845810E+02  0.62204704280E+02  0.10566000000E+00 0.  1.
         23    2    1    0    0    0  0.24143019388E+02  0.12960478033E+02  0.92145728153E+01  0.96090352334E+02  0.91638354872E+02 0.  0.
         13    1    3    3    0    0 -0.23519639525E+02 -0.22846872115E+02 -0.85482729947E+01  0.33885648054E+02  0.10566000000E+00 0. -1.
         22    1    1    0    0    0 -0.24143019388E+02 -0.12960478033E+02 -0.92145728153E+01  0.28909647666E+02  0.00000000000E+00 0.  1.
</event>
<event>
 5    1  0.6835419E-004  0.9118800E+02  0.7818608E-02  0.1130116E+00
         25   -1    0    0    0    0  0.00000000000E+00  0.00000000000E+00  0.99999998245E-14  0.12500000000E+03  0.12500000000E+03 0.  0.
        -13    1    3    3    0    0  0.93797150483E+01 -0.52184393529E+02  0.25017746803E+02  0.58626690181E+02  0.10566000000E+00 0.  1.
         23    2    1    0    0    0 -0.40043051268E+01 -0.28597875031E+02 -0.85813144671E+00  0.96110394509E+02  0.91665689477E+02 0.  0.
         13    1    3    3    0    0 -0.13384020175E+02  0.23586518498E+02 -0.25875878250E+02  0.37483704328E+02  0.10566000000E+00 0. -1.
         22    1    1    0    0    0  0.40043051268E+01  0.28597875031E+02  0.85813144671E+00  0.28889605491E+02  0.00000000000E+00 0.  1.
</event>
<event>
 5    1  0.6835419E-004  0.9118800E+02  0.7818608E-02  0.1130116E+00
         25   -1    0    0    0    0  0.00000000000E+00  0.00000000000E+00  0.99999998245E-14  0.12500000000E+03  0.12500000000E+03 0.  0.
        -13    1    3    3    0    0  0.40681896322E+02 -0.67090252577E+01  0.95557936180E+00  0.41242599388E+02  0.10566000000E+00 0. -1.
         23    2    1    0    0    0 -0.11133219689E+02  0.17389341866E+02  0.14248130157E+02  0.99913210565E+02  0.96712474073E+02 0.  0.
         13    1    3    3    0    0 -0.51815116012E+02  0.24098367123E+02  0.13292550795E+02  0.58670611178E+02  0.10566000000E+00 0.  1.
         22    1    1    0    0    0  0.11133219689E+02 -0.17389341866E+02 -0.14248130157E+02  0.25086789435E+02  0.00000000000E+00 0.  1.
</event>
<event>
 5    1  0.6835419E-004  0.9118800E+02  0.7818608E-02  0.1130116E+00
         25   -1    0    0    0    0  0.00000000000E+00  0.00000000000E+00  0.99999998245E-14  0.12500000000E+03  0.12500000000E+03 0.  0.
        -13    1    3    3    0    0 -0.25425827980E+02 -0.11877381553E+02  0.26989355089E+02  0.38935605469E+02  0.10566000000E+00 0. -1.
         23    2    1    0    0    0 -0.79121562350E+01  0.15075760515E+02 -0.21786103924E+02  0.97350133896E+02  0.93340952823E+02 0.  0.
         13    1    3    3    0    0  0.17513671745E+02  0.26953142069E+02 -0.48775459013E+02  0.58414528427E+02  0.10566000000E+00 0.  1.
         22    1    1    0    0    0  0.79121562350E+01 -0.15075760515E+02  0.21786103924E+02  0.27649866104E+02  0.00000000000E+00 0.  1.
</event>
<event>
 5    1  0.6835419E-004  0.9118800E+02  0.7818608E-02  0.1130116E+00
         25   -1    0    0    0    0  0.00000000000E+00  0.00000000000E+00  0.99999998245E-14  0.12500000000E+03  0.12500000000E+03 0.  0.
        -13    1    3    3    0    0  0.22704115008E+02 -0.56647558569E+02 -0.96272655720E+01  0.61782830435E+02  0.10566000000E+00 0. -1.
         23    2    1    0    0    0  0.11414180022E+02 -0.17801349186E+02  0.16796288908E+01  0.10378696882E+03  0.10159597534E+03 0.  0.
         13    1    3    3    0    0 -0.11289934986E+02  0.38846209383E+02  0.11306894463E+02  0.42004138389E+02  0.10566000000E+00 0.  1.
         22    1    1    0    0    0 -0.11414180022E+02  0.17801349186E+02 -0.16796288908E+01  0.21213031175E+02  0.00000000000E+00 0. -1.
</event>
<event>
 5    1  0.6835419E-004  0.9118800E+02  0.7818608E-02  0.1130116E+00
         25   -1    0    0    0    0  0.00000000000E+00  0.00000000000E+00  0.99999998245E-14  0.12500000000E+03  0.12500000000E+03 0.  0.
        -13    1    3    3    0    0  0.20093633136E+02 -0.34260266778E+02 -0.37225056577E+02  0.54435613100E+02  0.10566000000E+00 0. -1.
         23    2    1    0    0    0  0.28381926796E+02 -0.10913311111E+02 -0.64992214767E+01  0.93905402272E+02  0.88607847102E+02 0.  0.
         13    1    3    3    0    0  0.82882936591E+01  0.23346955667E+02  0.30725835100E+02  0.39469789173E+02  0.10566000000E+00 0.  1.
         22    1    1    0    0    0 -0.28381926796E+02  0.10913311111E+02  0.64992214767E+01  0.31094597728E+02  0.00000000000E+00 0. -1.
</event>
<event>
 5    1  0.6835419E-004  0.9118800E+02  0.7818608E-02  0.1130116E+00
         25   -1    0    0    0    0  0.00000000000E+00  0.00000000000E+00  0.99999998245E-14  0.12500000000E+03  0.12500000000E+03 0.  0.
        -13    1    3    3    0    0 -0.60105879803E+02  0.34296456803E+01  0.15495748508E+02  0.62165976564E+02  0.10566000000E+00 0. -1.
         23    2    1    0    0    0 -0.30633447658E+02 -0.27841497759E+01  0.84801789396E+01  0.93092743141E+02  0.87453906633E+02 0.  0.
         13    1    3    3    0    0  0.29472432145E+02 -0.62137954562E+01 -0.70155695680E+01  0.30926766577E+02  0.10566000000E+00 0.  1.
         22    1    1    0    0    0  0.30633447658E+02  0.27841497759E+01 -0.84801789396E+01  0.31907256859E+02  0.00000000000E+00 0. -1.
</event>
<event>
 5    1  0.6835419E-004  0.9118800E+02  0.7818608E-02  0.1130116E+00
         25   -1    0    0    0    0  0.00000000000E+00  0.00000000000E+00  0.99999998245E-14  0.12500000000E+03  0.12500000000E+03 0.  0.
        -13    1    3    3    0    0  0.56737449277E+02  0.16585593531E+02 -0.15805393597E+02  0.61188574865E+02  0.10566000000E+00 0. -1.
         23    2    1    0    0    0  0.31334611486E+02  0.13101436254E+02 -0.53433559402E+00  0.91032500484E+02  0.84457830430E+02 0.  0.
         13    1    3    3    0    0 -0.25402837791E+02 -0.34841572770E+01  0.15271058003E+02  0.29843925619E+02  0.10566000000E+00 0.  1.
         22    1    1    0    0    0 -0.31334611486E+02 -0.13101436254E+02  0.53433559402E+00  0.33967499516E+02  0.00000000000E+00 0. -1.
</event>
<event>
 5    1  0.6835419E-004  0.9118800E+02  0.7818608E-02  0.1130116E+00
         25   -1    0    0    0    0  0.00000000000E+00  0.00000000000E+00  0.99999998245E-14  0.12500000000E+03  0.12500000000E+03 0.  0.
        -13    1    3    3    0    0  0.23798878715E+02  0.13550614881E+02 -0.20544894296E+02  0.34236086771E+02  0.10566000000E+00 0. -1.
         23    2    1    0    0    0 -0.20569563786E+01 -0.16649038694E+02  0.25127063702E+02  0.94787570616E+02  0.89843712379E+02 0.  0.
         13    1    3    3    0    0 -0.25855835093E+02 -0.30199653575E+02  0.45671957998E+02  0.60551483845E+02  0.10566000000E+00 0.  1.
         22    1    1    0    0    0  0.20569563786E+01  0.16649038694E+02 -0.25127063702E+02  0.30212429384E+02  0.00000000000E+00 0.  1.
</event>
<event>
 5    1  0.6835419E-004  0.9118800E+02  0.7818608E-02  0.1130116E+00
         25   -1    0    0    0    0  0.00000000000E+00  0.00000000000E+00  0.99999998245E-14  0.12500000000E+03  0.12500000000E+03 0.  0.
        -13    1    3    3    0    0 -0.34402206339E+02 -0.40038658295E+02  0.33225333109E+02  0.62374192446E+02  0.10566000000E+00 0. -1.
         23    2    1    0    0    0 -0.16186117612E+02 -0.23017836450E+02  0.16860292504E+02  0.92196331585E+02  0.86163117957E+02 0.  0.
         13    1    3    3    0    0  0.18216088727E+02  0.17020821845E+02 -0.16365040605E+02  0.29822139139E+02  0.10566000000E+00 0.  1.
         22    1    1    0    0    0  0.16186117612E+02  0.23017836450E+02 -0.16860292504E+02  0.32803668415E+02  0.00000000000E+00 0. -1.
</event>
<event>
 5    1  0.6835419E-004  0.9118800E+02  0.7818608E-02  0.1130116E+00
         25   -1    0    0    0    0  0.00000000000E+00  0.00000000000E+00  0.99999998245E-14  0.12500000000E+03  0.12500000000E+03 0.  0.
        -13    1    3    3    0    0  0.50590357780E+02  0.15609566321E+01 -0.29383120392E+02  0.58525206654E+02  0.10566000000E+00 0. -1.
         23    2    1    0    0    0  0.18370147048E+02 -0.11235323905E+02 -0.22473001087E+02  0.93875562918E+02  0.88565742415E+02 0.  0.
         13    1    3    3    0    0 -0.32220210732E+02 -0.12796280537E+02  0.69101193047E+01  0.35350356264E+02  0.10566000000E+00 0.  1.
         22    1    1    0    0    0 -0.18370147048E+02  0.11235323905E+02  0.22473001087E+02  0.31124437082E+02  0.00000000000E+00 0. -1.
</event>
<event>
 5    1  0.6835419E-004  0.9118800E+02  0.7818608E-02  0.1130116E+00
         25   -1    0    0    0    0  0.00000000000E+00  0.00000000000E+00  0.99999998245E-14  0.12500000000E+03  0.12500000000E+03 0.  0.
        -13    1    3    3    0    0  0.42537706330E+02 -0.26371283207E+02 -0.84598502171E+01  0.50759051090E+02  0.10566000000E+00 0.  1.
         23    2    1    0    0    0  0.62178427252E+01  0.37195489799E+00 -0.25330652188E+02  0.98914719498E+02  0.95413205975E+02 0.  0.
         13    1    3    3    0    0 -0.36319863605E+02  0.26743238105E+02 -0.16870801971E+02  0.48155668408E+02  0.10566000000E+00 0. -1.
         22    1    1    0    0    0 -0.62178427252E+01 -0.37195489799E+00  0.25330652188E+02  0.26085280502E+02  0.00000000000E+00 0. -1.
</event>
<event>
 5    1  0.6835419E-004  0.9118800E+02  0.7818608E-02  0.1130116E+00
         25   -1    0    0    0    0  0.00000000000E+00  0.00000000000E+00  0.99999998245E-14  0.12500000000E+03  0.12500000000E+03 0.  0.
        -13    1    3    3    0    0  0.52443128844E+02 -0.22897153733E+02 -0.13243963521E+02  0.58736489049E+02  0.10566000000E+00 0. -1.
         23    2    1    0    0    0  0.29101600580E+02 -0.39723559626E+01  0.67921684313E+01  0.94853419428E+02  0.89935281492E+02 0.  0.
         13    1    3    3    0    0 -0.23341528264E+02  0.18924797770E+02  0.20036131953E+02  0.36116930379E+02  0.10566000000E+00 0.  1.
         22    1    1    0    0    0 -0.29101600580E+02  0.39723559626E+01 -0.67921684313E+01  0.30146580572E+02  0.00000000000E+00 0.  1.
</event>
<event>
 5    1  0.6835419E-004  0.9118800E+02  0.7818608E-02  0.1130116E+00
         25   -1    0    0    0    0  0.00000000000E+00  0.00000000000E+00  0.99999998245E-14  0.12500000000E+03  0.12500000000E+03 0.  0.
        -13    1    3    3    0    0 -0.52780148310E+00  0.24110710105E+02  0.27607565315E+02  0.36657792389E+02  0.10566000000E+00 0. -1.
         23    2    1    0    0    0 -0.15989586157E+02 -0.22786868495E+02 -0.61719129305E+01  0.96486831981E+02  0.92177589441E+02 0.  0.
         13    1    3    3    0    0 -0.15461784674E+02 -0.46897578600E+02 -0.33779478246E+02  0.59829039591E+02  0.10566000000E+00 0.  1.
         22    1    1    0    0    0  0.15989586157E+02  0.22786868495E+02  0.61719129305E+01  0.28513168019E+02  0.00000000000E+00 0.  1.
</event>
<event>
 5    1  0.6835419E-004  0.9118800E+02  0.7818608E-02  0.1130116E+00
         25   -1    0    0    0    0  0.00000000000E+00  0.00000000000E+00  0.99999998245E-14  0.12500000000E+03  0.12500000000E+03 0.  0.
        -13    1    3    3    0    0 -0.28116935331E+02  0.15188882366E+02  0.19679735732E+01  0.32017936910E+02  0.10566000000E+00 0. -1.
         23    2    1    0    0    0  0.28577258982E+02 -0.82667722077E+01 -0.80403630819E+01  0.94183661928E+02  0.88999525179E+02 0.  0.
         13    1    3    3    0    0  0.56694194314E+02 -0.23455654574E+02 -0.10008336655E+02  0.62165725018E+02  0.10566000000E+00 0.  1.
         22    1    1    0    0    0 -0.28577258982E+02  0.82667722077E+01  0.80403630819E+01  0.30816338072E+02  0.00000000000E+00 0.  1.
</event>
<event>
 5    1  0.6835419E-004  0.9118800E+02  0.7818608E-02  0.1130116E+00
         25   -1    0    0    0    0  0.00000000000E+00  0.00000000000E+00  0.99999998245E-14  0.12500000000E+03  0.12500000000E+03 0.  0.
        -13    1    3    3    0    0  0.23611231177E+02  0.44441360061E+02  0.63797016980E+01  0.50727078366E+02  0.10566000000E+00 0.  1.
         23    2    1    0    0    0  0.27989580636E+02  0.25056062544E+00  0.99878221126E+01  0.95280713411E+02  0.90527224374E+02 0.  0.
         13    1    3    3    0    0  0.43783494582E+01 -0.44190799436E+02  0.36081204146E+01  0.44553635045E+02  0.10566000000E+00 0. -1.
         22    1    1    0    0    0 -0.27989580636E+02 -0.25056062544E+00 -0.99878221126E+01  0.29719286589E+02  0.00000000000E+00 0.  1.
</event>
<event>
 5    1  0.6835419E-004  0.9118800E+02  0.7818608E-02  0.1130116E+00
         25   -1    0    0    0    0  0.00000000000E+00  0.00000000000E+00  0.99999998245E-14  0.12500000000E+03  0.12500000000E+03 0.  0.
        -13    1    3    3    0    0  0.39556766870E+02 -0.15386711161E+02 -0.25270160492E+02  0.49397174625E+02  0.10566000000E+00 0.  1.
         23    2    1    0    0    0  0.18974261877E+02 -0.16493468624E+02  0.15769780856E+02  0.95322683590E+02  0.90585158263E+02 0.  0.
         13    1    3    3    0    0 -0.20582504993E+02 -0.11067574632E+01  0.41039941348E+02  0.45925508966E+02  0.10566000000E+00 0. -1.
         22    1    1    0    0    0 -0.18974261877E+02  0.16493468624E+02 -0.15769780856E+02  0.29677316410E+02  0.00000000000E+00 0.  1.
</event>
<event>
 5    1  0.6835419E-004  0.9118800E+02  0.7818608E-02  0.1130116E+00
         25   -1    0    0    0    0  0.00000000000E+00  0.00000000000E+00  0.99999998245E-14  0.12500000000E+03  0.12500000000E+03 0.  0.
        -13    1    3    3    0    0 -0.38149909857E+02  0.68984723005E+01  0.40675277748E+02  0.56191582342E+02  0.10566000000E+00 0.  1.
         23    2    1    0    0    0 -0.21023419020E+02  0.19156687056E+02  0.73350588290E+01  0.95627123153E+02  0.91004289944E+02 0.  0.
         13    1    3    3    0    0  0.17126490838E+02  0.12258214756E+02 -0.33340218919E+02  0.39435540811E+02  0.10566000000E+00 0. -1.
         22    1    1    0    0    0  0.21023419020E+02 -0.19156687056E+02 -0.73350588290E+01  0.29372876847E+02  0.00000000000E+00 0.  1.
</event>
<event>
 5    1  0.6835419E-004  0.9118800E+02  0.7818608E-02  0.1130116E+00
         25   -1    0    0    0    0  0.00000000000E+00  0.00000000000E+00  0.99999998245E-14  0.12500000000E+03  0.12500000000E+03 0.  0.
        -13    1    3    3    0    0 -0.25853681137E+02  0.10155032941E+02  0.18394400284E+02  0.33315201458E+02  0.10566000000E+00 0.  1.
         23    2    1    0    0    0  0.25426742451E+02 -0.22649418241E+01 -0.14645847526E+02  0.95569572839E+02  0.90925206679E+02 0.  0.
         13    1    3    3    0    0  0.51280423588E+02 -0.12419974765E+02 -0.33040247810E+02  0.62254371380E+02  0.10566000000E+00 0. -1.
         22    1    1    0    0    0 -0.25426742451E+02  0.22649418241E+01  0.14645847526E+02  0.29430427161E+02  0.00000000000E+00 0. -1.
</event>
<event>
 5    1  0.6835419E-004  0.9118800E+02  0.7818608E-02  0.1130116E+00
         25   -1    0    0    0    0  0.00000000000E+00  0.00000000000E+00  0.99999998245E-14  0.12500000000E+03  0.12500000000E+03 0.  0.
        -13    1    3    3    0    0  0.45906420680E+02 -0.34816457032E+02 -0.51317120793E+01  0.57844021063E+02  0.10566000000E+00 0.  1.
         23    2    1    0    0    0  0.33072201242E+02 -0.94339002140E+01 -0.14337504903E+02  0.87739658951E+02  0.79434971755E+02 0.  0.
         13    1    3    3    0    0 -0.12834219438E+02  0.25382556818E+02 -0.92057928237E+01  0.29895637888E+02  0.10566000000E+00 0. -1.
         22    1    1    0    0    0 -0.33072201242E+02  0.94339002140E+01  0.14337504903E+02  0.37260341049E+02  0.00000000000E+00 0.  1.
</event>
<event>
 5    1  0.6835419E-004  0.9118800E+02  0.7818608E-02  0.1130116E+00
         25   -1    0    0    0    0  0.00000000000E+00  0.00000000000E+00  0.99999998245E-14  0.12500000000E+03  0.12500000000E+03 0.  0.
        -13    1    3    3    0    0  0.22066365281E+02  0.11833281861E+02  0.22176343183E+02  0.33447756238E+02  0.10566000000E+00 0.  1.
         23    2    1    0    0    0 -0.17255171463E+01 -0.36895001872E+01 -0.30998379486E+02  0.93735173888E+02  0.88367377872E+02 0.  0.
         13    1    3    3    0    0 -0.23791882427E+02 -0.15522782048E+02 -0.53174722669E+02  0.60287417650E+02  0.10566000000E+00 0. -1.
         22    1    1    0    0    0  0.17255171463E+01  0.36895001872E+01  0.30998379486E+02  0.31264826112E+02  0.00000000000E+00 0. -1.
</event>
<event>
 5    1  0.6835419E-004  0.9118800E+02  0.7818608E-02  0.1130116E+00
         25   -1    0    0    0    0  0.00000000000E+00  0.00000000000E+00  0.99999998245E-14  0.12500000000E+03  0.12500000000E+03 0.  0.
        -13    1    3    3    0    0  0.25495558457E+02  0.27372559328E+02  0.78182579309E+01  0.38215400381E+02  0.10566000000E+00 0. -1.
         23    2    1    0    0    0  0.92572079553E+01 -0.25779018412E+02 -0.88113528261E+01  0.96226859260E+02  0.91824369396E+02 0.  0.
         13    1    3    3    0    0 -0.16238350501E+02 -0.53151577740E+02 -0.16629610757E+02  0.58011458879E+02  0.10566000000E+00 0.  1.
         22    1    1    0    0    0 -0.92572079553E+01  0.25779018412E+02  0.88113528261E+01  0.28773140740E+02  0.00000000000E+00 0.  1.
</event>
<event>
 5    1  0.6835419E-004  0.9118800E+02  0.7818608E-02  0.1130116E+00
         25   -1    0    0    0    0  0.00000000000E+00  0.00000000000E+00  0.99999998245E-14  0.12500000000E+03  0.12500000000E+03 0.  0.
        -13    1    3    3    0    0 -0.11379185089E+02 -0.38354029214E+01  0.18413626231E+02  0.21983379264E+02  0.10566000000E+00 0. -1.
         23    2    1    0    0    0 -0.78619159073E+01 -0.47188978559E+00 -0.41835873018E+02  0.82429203991E+02  0.70585416325E+02 0.  0.
         13    1    3    3    0    0  0.35172691814E+01  0.33635131358E+01 -0.60249499249E+02  0.60445824727E+02  0.10566000000E+00 0.  1.
         22    1    1    0    0    0  0.78619159073E+01  0.47188978559E+00  0.41835873018E+02  0.42570796009E+02  0.00000000000E+00 0.  1.
</event>
<event>
 5    1  0.6835419E-004  0.9118800E+02  0.7818608E-02  0.1130116E+00
         25   -1    0    0    0    0  0.00000000000E+00  0.00000000000E+00  0.99999998245E-14  0.12500000000E+03  0.12500000000E+03 0.  0.
        -13    1    3    3    0    0  0.50820813951E+00 -0.44188646083E+02 -0.10335583034E+02  0.45384250119E+02  0.10566000000E+00 0.  1.
         23    2    1    0    0    0 -0.20162060859E+02 -0.72581501312E+01  0.18577584922E+02  0.96639532745E+02  0.92384431514E+02 0.  0.
         13    1    3    3    0    0 -0.20670268999E+02  0.36930495952E+02  0.28913167955E+02  0.51255282625E+02  0.10566000000E+00 0. -1.
         22    1    1    0    0    0  0.20162060859E+02  0.72581501312E+01 -0.18577584922E+02  0.28360467255E+02  0.00000000000E+00 0. -1.
</event>
<event>
 5    1  0.6835419E-004  0.9118800E+02  0.7818608E-02  0.1130116E+00
         25   -1    0    0    0    0  0.00000000000E+00  0.00000000000E+00  0.99999998245E-14  0.12500000000E+03  0.12500000000E+03 0.  0.
        -13    1    3    3    0    0 -0.35415975984E+01  0.36701310590E+02 -0.61171322183E+01  0.37375922506E+02  0.10566000000E+00 0. -1.
         23    2    1    0    0    0 -0.24280601183E+00 -0.19956949694E+02 -0.20979015359E+02  0.96043862805E+02  0.91574918516E+02 0.  0.
         13    1    3    3    0    0  0.32987915866E+01 -0.56658260284E+02 -0.14861883141E+02  0.58667940298E+02  0.10566000000E+00 0.  1.
         22    1    1    0    0    0  0.24280601183E+00  0.19956949694E+02  0.20979015359E+02  0.28956137195E+02  0.00000000000E+00 0.  1.
</event>
<event>
 5    1  0.6835419E-004  0.9118800E+02  0.7818608E-02  0.1130116E+00
         25   -1    0    0    0    0  0.00000000000E+00  0.00000000000E+00  0.99999998245E-14  0.12500000000E+03  0.12500000000E+03 0.  0.
        -13    1    3    3    0    0  0.23455269889E+02 -0.10632844057E+02 -0.44597970890E+02  0.51499487666E+02  0.10566000000E+00 0.  1.
         23    2    1    0    0    0  0.22879413766E+02 -0.18499322613E+02 -0.12590695144E+01  0.95550419911E+02  0.90898872257E+02 0.  0.
         13    1    3    3    0    0 -0.57585612317E+00 -0.78664785554E+01  0.43338901376E+02  0.44050932245E+02  0.10566000000E+00 0. -1.
         22    1    1    0    0    0 -0.22879413766E+02  0.18499322613E+02  0.12590695144E+01  0.29449580089E+02  0.00000000000E+00 0.  1.
</event>
<event>
 5    1  0.6835419E-004  0.9118800E+02  0.7818608E-02  0.1130116E+00
         25   -1    0    0    0    0  0.00000000000E+00  0.00000000000E+00  0.99999998245E-14  0.12500000000E+03  0.12500000000E+03 0.  0.
        -13    1    3    3    0    0 -0.99898153252E+01  0.13754614484E+02  0.15134752803E+02  0.22760881712E+02  0.10566000000E+00 0. -1.
         23    2    1    0    0    0  0.42485558308E+02  0.21812045745E+02  0.10860140212E+02  0.76023162110E+02  0.58144565761E+02 0.  0.
         13    1    3    3    0    0  0.52475373633E+02  0.80574312604E+01 -0.42746125914E+01  0.53262280399E+02  0.10566000000E+00 0.  1.
         22    1    1    0    0    0 -0.42485558308E+02 -0.21812045745E+02 -0.10860140212E+02  0.48976837890E+02  0.00000000000E+00 0. -1.
</event>
<event>
 5    1  0.6835419E-004  0.9118800E+02  0.7818608E-02  0.1130116E+00
         25   -1    0    0    0    0  0.00000000000E+00  0.00000000000E+00  0.99999998245E-14  0.12500000000E+03  0.12500000000E+03 0.  0.
        -13    1    3    3    0    0 -0.14934872659E+02  0.40193670056E+02 -0.18652818587E+02  0.46760243148E+02  0.10566000000E+00 0.  1.
         23    2    1    0    0    0 -0.78399880178E+01  0.15402985985E+02  0.23291146459E+02  0.95996639975E+02  0.91510436529E+02 0.  0.
         13    1    3    3    0    0  0.70948846415E+01 -0.24790684072E+02  0.41943965045E+02  0.49236396828E+02  0.10566000000E+00 0. -1.
         22    1    1    0    0    0  0.78399880178E+01 -0.15402985985E+02 -0.23291146459E+02  0.29003360025E+02  0.00000000000E+00 0. -1.
</event>
<event>
 5    1  0.6835419E-004  0.9118800E+02  0.7818608E-02  0.1130116E+00
         25   -1    0    0    0    0  0.00000000000E+00  0.00000000000E+00  0.99999998245E-14  0.12500000000E+03  0.12500000000E+03 0.  0.
        -13    1    3    3    0    0  0.30867425384E+02 -0.11814405830E+02 -0.52016780459E+02  0.61629008984E+02  0.10566000000E+00 0.  1.
         23    2    1    0    0    0  0.13751884401E+02  0.17759874501E+01 -0.25330556667E+02  0.96122577035E+02  0.91682300685E+02 0.  0.
         13    1    3    3    0    0 -0.17115540983E+02  0.13590393280E+02  0.26686223792E+02  0.34493568052E+02  0.10566000000E+00 0. -1.
         22    1    1    0    0    0 -0.13751884401E+02 -0.17759874501E+01  0.25330556667E+02  0.28877422965E+02  0.00000000000E+00 0.  1.
</event>
<event>
 5    1  0.6835419E-004  0.9118800E+02  0.7818608E-02  0.1130116E+00
         25   -1    0    0    0    0  0.00000000000E+00  0.00000000000E+00  0.99999998245E-14  0.12500000000E+03  0.12500000000E+03 0.  0.
        -13    1    3    3    0    0 -0.71018442401E+01 -0.58841316315E+02 -0.37835004305E+01  0.59389079273E+02  0.10566000000E+00 0. -1.
         23    2    1    0    0    0  0.87604003831E+01 -0.28004921254E+02  0.51733364210E+01  0.95204301669E+02  0.90421653476E+02 0.  0.
         13    1    3    3    0    0  0.15862244623E+02  0.30836395061E+02  0.89568368515E+01  0.35815222396E+02  0.10566000000E+00 0.  1.
         22    1    1    0    0    0 -0.87604003831E+01  0.28004921254E+02 -0.51733364210E+01  0.29795698331E+02  0.00000000000E+00 0. -1.
</event>
<event>
 5    1  0.6835419E-004  0.9118800E+02  0.7818608E-02  0.1130116E+00
         25   -1    0    0    0    0  0.00000000000E+00  0.00000000000E+00  0.99999998245E-14  0.12500000000E+03  0.12500000000E+03 0.  0.
        -13    1    3    3    0    0  0.28233584544E+02  0.45847160665E+02  0.84492623865E+01  0.54502281018E+02  0.10566000000E+00 0. -1.
         23    2    1    0    0    0 -0.29523341406E+01  0.30086227495E+02 -0.88608821290E+01  0.93497419250E+02  0.88030419814E+02 0.  0.
         13    1    3    3    0    0 -0.31185918685E+02 -0.15760933170E+02 -0.17310144516E+02  0.38995138232E+02  0.10566000000E+00 0.  1.
         22    1    1    0    0    0  0.29523341406E+01 -0.30086227495E+02  0.88608821290E+01  0.31502580750E+02  0.00000000000E+00 0. -1.
</event>
<event>
 5    1  0.6835419E-004  0.9118800E+02  0.7818608E-02  0.1130116E+00
         25   -1    0    0    0    0  0.00000000000E+00  0.00000000000E+00  0.99999998245E-14  0.12500000000E+03  0.12500000000E+03 0.  0.
        -13    1    3    3    0    0  0.22795303015E+02  0.29647292039E+02 -0.17814398223E+01  0.37440251824E+02  0.10566000000E+00 0.  1.
         23    2    1    0    0    0 -0.24124916990E+02  0.14605702333E+01  0.17157632307E+02  0.95360006215E+02  0.90636645755E+02 0.  0.
         13    1    3    3    0    0 -0.46920220005E+02 -0.28186721806E+02  0.18939072130E+02  0.57919754390E+02  0.10566000000E+00 0. -1.
         22    1    1    0    0    0  0.24124916990E+02 -0.14605702333E+01 -0.17157632307E+02  0.29639993785E+02  0.00000000000E+00 0. -1.
</event>
<event>
 5    1  0.6835419E-004  0.9118800E+02  0.7818608E-02  0.1130116E+00
         25   -1    0    0    0    0  0.00000000000E+00  0.00000000000E+00  0.99999998245E-14  0.12500000000E+03  0.12500000000E+03 0.  0.
        -13    1    3    3    0    0  0.38958568968E+02  0.20045285471E+02  0.75631061529E+01  0.44461166250E+02  0.10566000000E+00 0.  1.
         23    2    1    0    0    0  0.68623366456E+01 -0.20868796642E+02  0.16886424985E+02  0.97291703656E+02  0.93262671600E+02 0.  0.
         13    1    3    3    0    0 -0.32096232322E+02 -0.40914082113E+02  0.93233188318E+01  0.52830537405E+02  0.10566000000E+00 0. -1.
         22    1    1    0    0    0 -0.68623366456E+01  0.20868796642E+02 -0.16886424985E+02  0.27708296344E+02  0.00000000000E+00 0. -1.
</event>
<event>
 5    1  0.6835419E-004  0.9118800E+02  0.7818608E-02  0.1130116E+00
         25   -1    0    0    0    0  0.00000000000E+00  0.00000000000E+00  0.99999998245E-14  0.12500000000E+03  0.12500000000E+03 0.  0.
        -13    1    3    3    0    0  0.33914289192E+02 -0.59160691257E+01  0.15492198975E+02  0.37751798347E+02  0.10566000000E+00 0.  1.
         23    2    1    0    0    0 -0.35450063772E+01 -0.85372983833E+01 -0.28176705721E+02  0.95345670145E+02  0.90616872249E+02 0.  0.
         13    1    3    3    0    0 -0.37459295569E+02 -0.26212292576E+01 -0.43668904695E+02  0.57593871798E+02  0.10566000000E+00 0. -1.
         22    1    1    0    0    0  0.35450063772E+01  0.85372983833E+01  0.28176705721E+02  0.29654329855E+02  0.00000000000E+00 0. -1.
</event>
<event>
 4    1  0.6835419E-004  0.9118800E+02  0.7818608E-02  0.1130116E+00
         25   -1    0    0    0    0  0.00000000000E+00  0.00000000000E+00  0.99999998245E-14  0.12500000000E+03  0.12500000000E+03 0.  0.
        -13    1    1    0    0    0 -0.54459994963E+01  0.30883126139E+02 -0.47572275429E+02  0.56978583206E+02  0.10566000000E+00 0.  1.
         13    1    1    0    0    0  0.12201291090E+02  0.41098220335E+01  0.10703757115E+02  0.16743468034E+02  0.10566000000E+00 0. -1.
         22    1    1    0    0    0 -0.67552915934E+01 -0.34992948173E+02  0.36868518314E+02  0.51277948760E+02  0.00000000000E+00 0.  1.
</event>
<event>
 5    1  0.6835419E-004  0.9118800E+02  0.7818608E-02  0.1130116E+00
         25   -1    0    0    0    0  0.00000000000E+00  0.00000000000E+00  0.99999998245E-14  0.12500000000E+03  0.12500000000E+03 0.  0.
        -13    1    3    3    0    0 -0.49069322712E+01  0.49040628423E+02  0.25044035353E+02  0.55283596946E+02  0.10566000000E+00 0. -1.
         23    2    1    0    0    0 -0.20253354074E+02  0.21653093064E+02  0.14870748396E+00  0.95350768907E+02  0.90623905382E+02 0.  0.
         13    1    3    3    0    0 -0.15346421803E+02 -0.27387535359E+02 -0.24895327869E+02  0.40067171961E+02  0.10566000000E+00 0.  1.
         22    1    1    0    0    0  0.20253354074E+02 -0.21653093064E+02 -0.14870748396E+00  0.29649231093E+02  0.00000000000E+00 0. -1.
</event>
<event>
 5    1  0.6835419E-004  0.9118800E+02  0.7818608E-02  0.1130116E+00
         25   -1    0    0    0    0  0.00000000000E+00  0.00000000000E+00  0.99999998245E-14  0.12500000000E+03  0.12500000000E+03 0.  0.
        -13    1    3    3    0    0 -0.17134974689E+02  0.33220583789E+02  0.56736054622E+01  0.37807611772E+02  0.10566000000E+00 0. -1.
         23    2    1    0    0    0  0.12629605956E+02 -0.10341905644E+02  0.25960731684E+02  0.94333706639E+02  0.89210014346E+02 0.  0.
         13    1    3    3    0    0  0.29764580645E+02 -0.43562489433E+02  0.20287126222E+02  0.56526094867E+02  0.10566000000E+00 0.  1.
         22    1    1    0    0    0 -0.12629605956E+02  0.10341905644E+02 -0.25960731684E+02  0.30666293361E+02  0.00000000000E+00 0.  1.
</event>
<event>
 5    1  0.6835419E-004  0.9118800E+02  0.7818608E-02  0.1130116E+00
         25   -1    0    0    0    0  0.00000000000E+00  0.00000000000E+00  0.99999998245E-14  0.12500000000E+03  0.12500000000E+03 0.  0.
        -13    1    3    3    0    0 -0.16964064067E+01  0.34768354176E+02  0.23786980112E+02  0.42160975246E+02  0.10566000000E+00 0.  1.
         23    2    1    0    0    0  0.29538179427E+02  0.31993522785E+00 -0.21069795576E+01  0.95385041528E+02  0.90671166211E+02 0.  0.
         13    1    3    3    0    0  0.31234585834E+02 -0.34448418948E+02 -0.25893959670E+02  0.53224066282E+02  0.10566000000E+00 0. -1.
         22    1    1    0    0    0 -0.29538179427E+02 -0.31993522785E+00  0.21069795576E+01  0.29614958472E+02  0.00000000000E+00 0. -1.
</event>
<event>
 5    1  0.6835419E-004  0.9118800E+02  0.7818608E-02  0.1130116E+00
         25   -1    0    0    0    0  0.00000000000E+00  0.00000000000E+00  0.99999998245E-14  0.12500000000E+03  0.12500000000E+03 0.  0.
        -13    1    3    3    0    0 -0.42873334592E+02  0.80452697302E+00  0.64059378097E+01  0.43356859733E+02  0.10566000000E+00 0. -1.
         23    2    1    0    0    0 -0.33693004589E+01 -0.18754537599E+02 -0.22075194446E+02  0.95838397233E+02  0.91294026684E+02 0.  0.
         13    1    3    3    0    0  0.39504034133E+02 -0.19559064572E+02 -0.28481132255E+02  0.52481537499E+02  0.10566000000E+00 0.  1.
         22    1    1    0    0    0  0.33693004589E+01  0.18754537599E+02  0.22075194446E+02  0.29161602767E+02  0.00000000000E+00 0.  1.
</event>
<event>
 5    1  0.6835419E-004  0.9118800E+02  0.7818608E-02  0.1130116E+00
         25   -1    0    0    0    0  0.00000000000E+00  0.00000000000E+00  0.99999998245E-14  0.12500000000E+03  0.12500000000E+03 0.  0.
        -13    1    3    3    0    0  0.91486780500E+01  0.28408952745E+02 -0.35623506616E+02  0.46473780713E+02  0.10566000000E+00 0. -1.
         23    2    1    0    0    0  0.20095172731E+02  0.21454548244E+02  0.10035021955E+02  0.93938524293E+02  0.88654560364E+02 0.  0.
         13    1    3    3    0    0  0.10946494681E+02 -0.69544045007E+01  0.45658528571E+02  0.47464743580E+02  0.10566000000E+00 0.  1.
         22    1    1    0    0    0 -0.20095172731E+02 -0.21454548244E+02 -0.10035021955E+02  0.31061475707E+02  0.00000000000E+00 0.  1.
</event>
<event>
 5    1  0.6835419E-004  0.9118800E+02  0.7818608E-02  0.1130116E+00
         25   -1    0    0    0    0  0.00000000000E+00  0.00000000000E+00  0.99999998245E-14  0.12500000000E+03  0.12500000000E+03 0.  0.
        -13    1    3    3    0    0  0.25300923986E+02 -0.35925701195E+02 -0.15746012198E+02  0.46676983890E+02  0.10566000000E+00 0. -1.
         23    2    1    0    0    0  0.23573832334E+02  0.10037945722E+02  0.76214064635E+01  0.98268524887E+02  0.94562842712E+02 0.  0.
         13    1    3    3    0    0 -0.17270916526E+01  0.45963646917E+02  0.23367418662E+02  0.51591540997E+02  0.10566000000E+00 0.  1.
         22    1    1    0    0    0 -0.23573832334E+02 -0.10037945722E+02 -0.76214064635E+01  0.26731475113E+02  0.00000000000E+00 0. -1.
</event>
<event>
 5    1  0.6835419E-004  0.9118800E+02  0.7818608E-02  0.1130116E+00
         25   -1    0    0    0    0  0.00000000000E+00  0.00000000000E+00  0.99999998245E-14  0.12500000000E+03  0.12500000000E+03 0.  0.
        -13    1    3    3    0    0  0.15441788769E+02 -0.38471203758E+02  0.14729123310E+02  0.43993642683E+02  0.10566000000E+00 0. -1.
         23    2    1    0    0    0  0.25403096607E+02  0.59781661665E+01 -0.11415647342E+02  0.96515393768E+02  0.92216313319E+02 0.  0.
         13    1    3    3    0    0  0.99613078372E+01  0.44449369925E+02 -0.26144770652E+02  0.52521751085E+02  0.10566000000E+00 0.  1.
         22    1    1    0    0    0 -0.25403096607E+02 -0.59781661665E+01  0.11415647342E+02  0.28484606232E+02  0.00000000000E+00 0.  1.
</event>
<event>
 5    1  0.6835419E-004  0.9118800E+02  0.7818608E-02  0.1130116E+00
         25   -1    0    0    0    0  0.00000000000E+00  0.00000000000E+00  0.99999998245E-14  0.12500000000E+03  0.12500000000E+03 0.  0.
        -13    1    3    3    0    0  0.45740592651E+02  0.49567331013E+01  0.17930481400E+02  0.49378986891E+02  0.10566000000E+00 0.  1.
         23    2    1    0    0    0  0.95530237353E+01  0.27241484753E+02 -0.14656913915E+01  0.96094861957E+02  0.91644506050E+02 0.  0.
         13    1    3    3    0    0 -0.36187568915E+02  0.22284751652E+02 -0.19396172791E+02  0.46715875066E+02  0.10566000000E+00 0. -1.
         22    1    1    0    0    0 -0.95530237353E+01 -0.27241484753E+02  0.14656913915E+01  0.28905138043E+02  0.00000000000E+00 0. -1.
</event>
<event>
 5    1  0.6835419E-004  0.9118800E+02  0.7818608E-02  0.1130116E+00
         25   -1    0    0    0    0  0.00000000000E+00  0.00000000000E+00  0.99999998245E-14  0.12500000000E+03  0.12500000000E+03 0.  0.
        -13    1    3    3    0    0  0.28791734148E+02  0.24330670683E+02 -0.17728274064E+02  0.41656312324E+02  0.10566000000E+00 0.  1.
         23    2    1    0    0    0 -0.11593523912E+02  0.19972620543E+02  0.17973930824E+02  0.95736070713E+02  0.91153813295E+02 0.  0.
         13    1    3    3    0    0 -0.40385258059E+02 -0.43580501403E+01  0.35702204888E+02  0.54079758389E+02  0.10566000000E+00 0. -1.
         22    1    1    0    0    0  0.11593523912E+02 -0.19972620543E+02 -0.17973930824E+02  0.29263929287E+02  0.00000000000E+00 0. -1.
</event>
<event>
 5    1  0.6835419E-004  0.9118800E+02  0.7818608E-02  0.1130116E+00
         25   -1    0    0    0    0  0.00000000000E+00  0.00000000000E+00  0.99999998245E-14  0.12500000000E+03  0.12500000000E+03 0.  0.
        -13    1    3    3    0    0 -0.27955985087E+02  0.35575100352E+02 -0.40048006098E+02  0.60423330128E+02  0.10566000000E+00 0. -1.
         23    2    1    0    0    0 -0.20340679676E+02  0.77032962845E+01 -0.17968132609E+02  0.96787630146E+02  0.92584596648E+02 0.  0.
         13    1    3    3    0    0  0.76153054110E+01 -0.27871804068E+02  0.22079873489E+02  0.36364300018E+02  0.10566000000E+00 0.  1.
         22    1    1    0    0    0  0.20340679676E+02 -0.77032962845E+01  0.17968132609E+02  0.28212369854E+02  0.00000000000E+00 0. -1.
</event>
<event>
 5    1  0.6835419E-004  0.9118800E+02  0.7818608E-02  0.1130116E+00
         25   -1    0    0    0    0  0.00000000000E+00  0.00000000000E+00  0.99999998245E-14  0.12500000000E+03  0.12500000000E+03 0.  0.
        -13    1    3    3    0    0  0.60924499677E+02  0.78202346197E+01  0.93902061126E+00  0.61431617708E+02  0.10566000000E+00 0. -1.
         23    2    1    0    0    0  0.27562880481E+02 -0.11430066371E+01 -0.62445427908E+01  0.96715496129E+02  0.92487156039E+02 0.  0.
         13    1    3    3    0    0 -0.33361619196E+02 -0.89632412568E+01 -0.71835634020E+01  0.35283878421E+02  0.10566000000E+00 0.  1.
         22    1    1    0    0    0 -0.27562880481E+02  0.11430066371E+01  0.62445427908E+01  0.28284503871E+02  0.00000000000E+00 0. -1.
</event>
<event>
 5    1  0.6835419E-004  0.9118800E+02  0.7818608E-02  0.1130116E+00
         25   -1    0    0    0    0  0.00000000000E+00  0.00000000000E+00  0.99999998245E-14  0.12500000000E+03  0.12500000000E+03 0.  0.
        -13    1    3    3    0    0 -0.35477510719E+02 -0.48727082215E+01  0.13252574061E+02  0.38184276025E+02  0.10566000000E+00 0.  1.
         23    2    1    0    0    0  0.82429607205E+01 -0.18151964448E+02 -0.21565834406E+02  0.95631216770E+02  0.91009912606E+02 0.  0.
         13    1    3    3    0    0  0.43720471440E+02 -0.13279256227E+02 -0.34818408467E+02  0.57446940746E+02  0.10566000000E+00 0. -1.
         22    1    1    0    0    0 -0.82429607205E+01  0.18151964448E+02  0.21565834406E+02  0.29368783230E+02  0.00000000000E+00 0. -1.
</event>
<event>
 5    1  0.6835419E-004  0.9118800E+02  0.7818608E-02  0.1130116E+00
         25   -1    0    0    0    0  0.00000000000E+00  0.00000000000E+00  0.99999998245E-14  0.12500000000E+03  0.12500000000E+03 0.  0.
        -13    1    3    3    0    0  0.52094094365E+01 -0.23032736443E+02  0.10554731635E+02  0.25866163586E+02  0.10566000000E+00 0. -1.
         23    2    1    0    0    0  0.21233885467E+02  0.46269795776E+01 -0.36362436133E+02  0.82638300394E+02  0.70954739788E+02 0.  0.
         13    1    3    3    0    0  0.16024476030E+02  0.27659716020E+02 -0.46917167768E+02  0.56772136808E+02  0.10566000000E+00 0.  1.
         22    1    1    0    0    0 -0.21233885467E+02 -0.46269795776E+01  0.36362436133E+02  0.42361699606E+02  0.00000000000E+00 0.  1.
</event>
<event>
 5    1  0.6835419E-004  0.9118800E+02  0.7818608E-02  0.1130116E+00
         25   -1    0    0    0    0  0.00000000000E+00  0.00000000000E+00  0.99999998245E-14  0.12500000000E+03  0.12500000000E+03 0.  0.
        -13    1    3    3    0    0 -0.11251900401E+02  0.20977776696E+01  0.55965449517E+02  0.57123976030E+02  0.10566000000E+00 0. -1.
         23    2    1    0    0    0  0.38727877331E+01  0.16524829075E+02  0.19563997226E+02  0.99099836907E+02  0.95655419224E+02 0.  0.
         13    1    3    3    0    0  0.15124688134E+02  0.14427051405E+02 -0.36401452292E+02  0.41975860877E+02  0.10566000000E+00 0.  1.
         22    1    1    0    0    0 -0.38727877331E+01 -0.16524829075E+02 -0.19563997226E+02  0.25900163093E+02  0.00000000000E+00 0. -1.
</event>
<event>
 5    1  0.6835419E-004  0.9118800E+02  0.7818608E-02  0.1130116E+00
         25   -1    0    0    0    0  0.00000000000E+00  0.00000000000E+00  0.99999998245E-14  0.12500000000E+03  0.12500000000E+03 0.  0.
        -13    1    3    3    0    0 -0.17182620598E+02  0.39491951968E+02  0.48075380585E+01  0.43335670147E+02  0.10566000000E+00 0. -1.
         23    2    1    0    0    0 -0.26209705374E+02 -0.10169207182E+02 -0.86718457437E+01  0.95579559162E+02  0.90938934404E+02 0.  0.
         13    1    3    3    0    0 -0.90270847758E+01 -0.49661159150E+02 -0.13479383802E+02  0.52243889015E+02  0.10566000000E+00 0.  1.
         22    1    1    0    0    0  0.26209705374E+02  0.10169207182E+02  0.86718457437E+01  0.29420440838E+02  0.00000000000E+00 0.  1.
</event>
<event>
 5    1  0.6835419E-004  0.9118800E+02  0.7818608E-02  0.1130116E+00
         25   -1    0    0    0    0  0.00000000000E+00  0.00000000000E+00  0.99999998245E-14  0.12500000000E+03  0.12500000000E+03 0.  0.
        -13    1    3    3    0    0  0.36706370812E+02  0.24094750059E+02 -0.42415186508E+02  0.61048946339E+02  0.10566000000E+00 0. -1.
         23    2    1    0    0    0  0.25072564848E+02  0.92627037856E+01 -0.14910089477E+02  0.94393759498E+02  0.89294120045E+02 0.  0.
         13    1    3    3    0    0 -0.11633805964E+02 -0.14832046273E+02  0.27505097032E+02  0.33344813159E+02  0.10566000000E+00 0.  1.
         22    1    1    0    0    0 -0.25072564848E+02 -0.92627037856E+01  0.14910089477E+02  0.30606240502E+02  0.00000000000E+00 0. -1.
</event>
<event>
 5    1  0.6835419E-004  0.9118800E+02  0.7818608E-02  0.1130116E+00
         25   -1    0    0    0    0  0.00000000000E+00  0.00000000000E+00  0.99999998245E-14  0.12500000000E+03  0.12500000000E+03 0.  0.
        -13    1    3    3    0    0 -0.16664872053E+02  0.18479708013E+02  0.40790735690E+02  0.47781930172E+02  0.10566000000E+00 0. -1.
         23    2    1    0    0    0 -0.13263871731E+02 -0.23218721811E+01 -0.13446102190E+02  0.10597057416E+03  0.10424799058E+03 0.  0.
         13    1    3    3    0    0  0.34010003215E+01 -0.20801580195E+02 -0.54236837880E+02  0.58188643987E+02  0.10566000000E+00 0.  1.
         22    1    1    0    0    0  0.13263871731E+02  0.23218721811E+01  0.13446102190E+02  0.19029425841E+02  0.00000000000E+00 0.  1.
</event>
<event>
 5    1  0.6835419E-004  0.9118800E+02  0.7818608E-02  0.1130116E+00
         25   -1    0    0    0    0  0.00000000000E+00  0.00000000000E+00  0.99999998245E-14  0.12500000000E+03  0.12500000000E+03 0.  0.
        -13    1    3    3    0    0 -0.29346774106E+02 -0.28848285942E+02  0.18216967242E+02  0.45003619985E+02  0.10566000000E+00 0.  1.
         23    2    1    0    0    0 -0.58636748971E+01 -0.95176652636E+01 -0.24863244212E+02  0.97739230603E+02  0.93860575594E+02 0.  0.
         13    1    3    3    0    0  0.23483099209E+02  0.19330620679E+02 -0.43080211454E+02  0.52735610618E+02  0.10566000000E+00 0. -1.
         22    1    1    0    0    0  0.58636748971E+01  0.95176652636E+01  0.24863244212E+02  0.27260769397E+02  0.00000000000E+00 0. -1.
</event>
<event>
 5    1  0.6835419E-004  0.9118800E+02  0.7818608E-02  0.1130116E+00
         25   -1    0    0    0    0  0.00000000000E+00  0.00000000000E+00  0.99999998245E-14  0.12500000000E+03  0.12500000000E+03 0.  0.
        -13    1    3    3    0    0 -0.79526866686E+01 -0.53014415805E+02 -0.11519946613E+02  0.54831504104E+02  0.10566000000E+00 0.  1.
         23    2    1    0    0    0  0.17173427342E+02 -0.25508495736E+02  0.12769303412E+01  0.94222727338E+02  0.89054375718E+02 0.  0.
         13    1    3    3    0    0  0.25126114010E+02  0.27505920068E+02  0.12796876954E+02  0.39391223234E+02  0.10566000000E+00 0. -1.
         22    1    1    0    0    0 -0.17173427342E+02  0.25508495736E+02 -0.12769303412E+01  0.30777272662E+02  0.00000000000E+00 0.  1.
</event>
<event>
 5    1  0.6835419E-004  0.9118800E+02  0.7818608E-02  0.1130116E+00
         25   -1    0    0    0    0  0.00000000000E+00  0.00000000000E+00  0.99999998245E-14  0.12500000000E+03  0.12500000000E+03 0.  0.
        -13    1    3    3    0    0  0.18453792497E+02 -0.17962038526E+02  0.14220954233E+02  0.29418089484E+02  0.10566000000E+00 0.  1.
         23    2    1    0    0    0 -0.26120040717E+02 -0.21932620065E+02 -0.19736749549E+02  0.85593964514E+02  0.75983492474E+02 0.  0.
         13    1    3    3    0    0 -0.44573833215E+02 -0.39705815386E+01 -0.33957703782E+02  0.56175875030E+02  0.10566000000E+00 0. -1.
         22    1    1    0    0    0  0.26120040717E+02  0.21932620065E+02  0.19736749549E+02  0.39406035486E+02  0.00000000000E+00 0. -1.
</event>
<event>
 5    1  0.6835419E-004  0.9118800E+02  0.7818608E-02  0.1130116E+00
         25   -1    0    0    0    0  0.00000000000E+00  0.00000000000E+00  0.99999998245E-14  0.12500000000E+03  0.12500000000E+03 0.  0.
        -13    1    3    3    0    0  0.15833673689E+02  0.52646868927E+02  0.18389416187E+02  0.57970508209E+02  0.10566000000E+00 0. -1.
         23    2    1    0    0    0  0.95166221683E+01  0.12599015726E+02  0.21148661650E+02  0.98607440739E+02  0.95009789942E+02 0.  0.
         13    1    3    3    0    0 -0.63170515209E+01 -0.40047853201E+02  0.27592454634E+01  0.40636932530E+02  0.10566000000E+00 0.  1.
         22    1    1    0    0    0 -0.95166221683E+01 -0.12599015726E+02 -0.21148661650E+02  0.26392559261E+02  0.00000000000E+00 0. -1.
</event>
<event>
 5    1  0.6835419E-004  0.9118800E+02  0.7818608E-02  0.1130116E+00
         25   -1    0    0    0    0  0.00000000000E+00  0.00000000000E+00  0.99999998245E-14  0.12500000000E+03  0.12500000000E+03 0.  0.
        -13    1    3    3    0    0 -0.29097370607E+02 -0.27671101221E+02 -0.42002119859E+02  0.58107968952E+02  0.10566000000E+00 0. -1.
         23    2    1    0    0    0 -0.31090185943E+00 -0.71276940737E+01 -0.27935089367E+02  0.96168248393E+02  0.91744548057E+02 0.  0.
         13    1    3    3    0    0  0.28786468748E+02  0.20543407147E+02  0.14067030492E+02  0.38060279440E+02  0.10566000000E+00 0.  1.
         22    1    1    0    0    0  0.31090185943E+00  0.71276940737E+01  0.27935089367E+02  0.28831751607E+02  0.00000000000E+00 0. -1.
</event>
<event>
 5    1  0.6835419E-004  0.9118800E+02  0.7818608E-02  0.1130116E+00
         25   -1    0    0    0    0  0.00000000000E+00  0.00000000000E+00  0.99999998245E-14  0.12500000000E+03  0.12500000000E+03 0.  0.
        -13    1    3    3    0    0  0.14153669136E+02  0.40506431776E+02 -0.65771302935E+00  0.42913181142E+02  0.10566000000E+00 0.  1.
         23    2    1    0    0    0  0.11132210348E+02 -0.17398396005E+02 -0.10664957291E+02  0.10175410564E+03  0.99063244490E+02 0.  0.
         13    1    3    3    0    0 -0.30214587877E+01 -0.57904827781E+02 -0.10007244262E+02  0.58840924494E+02  0.10566000000E+00 0. -1.
         22    1    1    0    0    0 -0.11132210348E+02  0.17398396005E+02  0.10664957291E+02  0.23245894364E+02  0.00000000000E+00 0. -1.
</event>
<event>
 5    1  0.6835419E-004  0.9118800E+02  0.7818608E-02  0.1130116E+00
         25   -1    0    0    0    0  0.00000000000E+00  0.00000000000E+00  0.99999998245E-14  0.12500000000E+03  0.12500000000E+03 0.  0.
        -13    1    3    3    0    0  0.38841996298E+02 -0.15212096012E+02  0.34121721287E+02  0.53892592897E+02  0.10566000000E+00 0.  1.
         23    2    1    0    0    0  0.74679272302E+01 -0.26166642615E+02  0.67037809360E+01  0.96974943324E+02  0.92837146827E+02 0.  0.
         13    1    3    3    0    0 -0.31374069068E+02 -0.10954546603E+02 -0.27417940351E+02  0.43082350427E+02  0.10566000000E+00 0. -1.
         22    1    1    0    0    0 -0.74679272302E+01  0.26166642615E+02 -0.67037809360E+01  0.28025056676E+02  0.00000000000E+00 0. -1.
</event>
<event>
 5    1  0.6835419E-004  0.9118800E+02  0.7818608E-02  0.1130116E+00
         25   -1    0    0    0    0  0.00000000000E+00  0.00000000000E+00  0.99999998245E-14  0.12500000000E+03  0.12500000000E+03 0.  0.
        -13    1    3    3    0    0 -0.56286683912E+00  0.91433967005E+01  0.31796072401E+02  0.33089573984E+02  0.10566000000E+00 0. -1.
         23    2    1    0    0    0 -0.93182523762E-01 -0.38333769958E+02  0.18734660423E+02  0.82332985769E+02  0.70414816923E+02 0.  0.
         13    1    3    3    0    0  0.46968431536E+00 -0.47477166659E+02 -0.13061411978E+02  0.49243411785E+02  0.10566000000E+00 0.  1.
         22    1    1    0    0    0  0.93182523762E-01  0.38333769958E+02 -0.18734660423E+02  0.42667014231E+02  0.00000000000E+00 0.  1.
</event>
<event>
 5    1  0.6835419E-004  0.9118800E+02  0.7818608E-02  0.1130116E+00
         25   -1    0    0    0    0  0.00000000000E+00  0.00000000000E+00  0.99999998245E-14  0.12500000000E+03  0.12500000000E+03 0.  0.
        -13    1    3    3    0    0  0.15814045536E+02 -0.44967958106E+02 -0.25154712864E+02  0.53897792494E+02  0.10566000000E+00 0.  1.
         23    2    1    0    0    0 -0.14717367894E+02 -0.27166927544E+02 -0.14901181501E+02  0.90697112657E+02  0.83959979540E+02 0.  0.
         13    1    3    3    0    0 -0.30531413430E+02  0.17801030562E+02  0.10253531363E+02  0.36799320164E+02  0.10566000000E+00 0. -1.
         22    1    1    0    0    0  0.14717367894E+02  0.27166927544E+02  0.14901181501E+02  0.34302887343E+02  0.00000000000E+00 0. -1.
</event>
<event>
 5    1  0.6835419E-004  0.9118800E+02  0.7818608E-02  0.1130116E+00
         25   -1    0    0    0    0  0.00000000000E+00  0.00000000000E+00  0.99999998245E-14  0.12500000000E+03  0.12500000000E+03 0.  0.
        -13    1    3    3    0    0 -0.23049042316E+02 -0.98097080388E+01 -0.20572044300E+02  0.32414640121E+02  0.10566000000E+00 0.  1.
         23    2    1    0    0    0  0.10536653347E+02  0.16605368479E+02  0.23874228037E+02  0.94068816860E+02  0.88838078632E+02 0.  0.
         13    1    3    3    0    0  0.33585695664E+02  0.26415076517E+02  0.44446272337E+02  0.61654176738E+02  0.10566000000E+00 0. -1.
         22    1    1    0    0    0 -0.10536653347E+02 -0.16605368479E+02 -0.23874228037E+02  0.30931183140E+02  0.00000000000E+00 0. -1.
</event>
<event>
 5    1  0.6835419E-004  0.9118800E+02  0.7818608E-02  0.1130116E+00
         25   -1    0    0    0    0  0.00000000000E+00  0.00000000000E+00  0.99999998245E-14  0.12500000000E+03  0.12500000000E+03 0.  0.
        -13    1    3    3    0    0 -0.16852528751E+02 -0.38749491215E+02 -0.11452160009E+01  0.42271189697E+02  0.10566000000E+00 0. -1.
         23    2    1    0    0    0  0.27823603852E+02 -0.10296002632E+02 -0.22183073281E+01  0.95249680860E+02  0.90484364478E+02 0.  0.
         13    1    3    3    0    0  0.44676132603E+02  0.28453488582E+02 -0.10730913272E+01  0.52978491163E+02  0.10566000000E+00 0.  1.
         22    1    1    0    0    0 -0.27823603852E+02  0.10296002632E+02  0.22183073281E+01  0.29750319140E+02  0.00000000000E+00 0.  1.
</event>
<event>
 5    1  0.6835419E-004  0.9118800E+02  0.7818608E-02  0.1130116E+00
         25   -1    0    0    0    0  0.00000000000E+00  0.00000000000E+00  0.99999998245E-14  0.12500000000E+03  0.12500000000E+03 0.  0.
        -13    1    3    3    0    0 -0.28568660533E+01 -0.38242985531E+02  0.53157306135E+01  0.38716350318E+02  0.10566000000E+00 0. -1.
         23    2    1    0    0    0 -0.18411120943E+02  0.16866881585E+02 -0.10174458331E+02  0.98037420912E+02  0.94256857723E+02 0.  0.
         13    1    3    3    0    0 -0.15554254889E+02  0.55109867116E+02 -0.15490188945E+02  0.59321070593E+02  0.10566000000E+00 0.  1.
         22    1    1    0    0    0  0.18411120943E+02 -0.16866881585E+02  0.10174458331E+02  0.26962579088E+02  0.00000000000E+00 0.  1.
</event>
<event>
 5    1  0.6835419E-004  0.9118800E+02  0.7818608E-02  0.1130116E+00
         25   -1    0    0    0    0  0.00000000000E+00  0.00000000000E+00  0.99999998245E-14  0.12500000000E+03  0.12500000000E+03 0.  0.
        -13    1    3    3    0    0 -0.41178006787E+02  0.22711340879E+02  0.12824903672E+02  0.48743436129E+02  0.10566000000E+00 0.  1.
         23    2    1    0    0    0 -0.21394469352E+02 -0.18924626678E+02  0.92376644483E+01  0.94980019017E+02  0.90111068988E+02 0.  0.
         13    1    3    3    0    0  0.19783537435E+02 -0.41635967557E+02 -0.35872392240E+01  0.46236582888E+02  0.10566000000E+00 0. -1.
         22    1    1    0    0    0  0.21394469352E+02  0.18924626678E+02 -0.92376644483E+01  0.30019980983E+02  0.00000000000E+00 0. -1.
</event>
<event>
 5    1  0.6835419E-004  0.9118800E+02  0.7818608E-02  0.1130116E+00
         25   -1    0    0    0    0  0.00000000000E+00  0.00000000000E+00  0.99999998245E-14  0.12500000000E+03  0.12500000000E+03 0.  0.
        -13    1    3    3    0    0 -0.49528216627E+02  0.31763389603E+02  0.79351235495E+01  0.59371158917E+02  0.10566000000E+00 0.  1.
         23    2    1    0    0    0 -0.30658068914E+02  0.74383701274E+01 -0.55266360943E+01  0.92972039619E+02  0.87281211636E+02 0.  0.
         13    1    3    3    0    0  0.18870147714E+02 -0.24325019475E+02 -0.13461759644E+02  0.33600880702E+02  0.10566000000E+00 0. -1.
         22    1    1    0    0    0  0.30658068914E+02 -0.74383701274E+01  0.55266360943E+01  0.32027960381E+02  0.00000000000E+00 0.  1.
</event>
<event>
 5    1  0.6835419E-004  0.9118800E+02  0.7818608E-02  0.1130116E+00
         25   -1    0    0    0    0  0.00000000000E+00  0.00000000000E+00  0.99999998245E-14  0.12500000000E+03  0.12500000000E+03 0.  0.
        -13    1    3    3    0    0 -0.55982574941E+01  0.16478704340E+02 -0.35491503787E+02  0.39529054995E+02  0.10566000000E+00 0.  1.
         23    2    1    0    0    0 -0.44896181183E+01  0.20721449680E+02  0.20391053296E+02  0.95583504590E+02  0.90944357425E+02 0.  0.
         13    1    3    3    0    0  0.11086393757E+01  0.42427453394E+01  0.55882557083E+02  0.56054449595E+02  0.10566000000E+00 0. -1.
         22    1    1    0    0    0  0.44896181183E+01 -0.20721449680E+02 -0.20391053296E+02  0.29416495410E+02  0.00000000000E+00 0. -1.
</event>
<event>
 5    1  0.6835419E-004  0.9118800E+02  0.7818608E-02  0.1130116E+00
         25   -1    0    0    0    0  0.00000000000E+00  0.00000000000E+00  0.99999998245E-14  0.12500000000E+03  0.12500000000E+03 0.  0.
        -13    1    3    3    0    0 -0.26259116856E+02  0.16937049541E+02  0.12181649185E+02  0.33538166410E+02  0.10566000000E+00 0. -1.
         23    2    1    0    0    0  0.11148984385E+02 -0.27588890123E+02 -0.63493414834E+01  0.94573681650E+02  0.89545633129E+02 0.  0.
         13    1    3    3    0    0  0.37408101242E+02 -0.44525939664E+02 -0.18530990669E+02  0.61035515240E+02  0.10566000000E+00 0.  1.
         22    1    1    0    0    0 -0.11148984385E+02  0.27588890123E+02  0.63493414834E+01  0.30426318350E+02  0.00000000000E+00 0.  1.
</event>
<event>
 5    1  0.6835419E-004  0.9118800E+02  0.7818608E-02  0.1130116E+00
         25   -1    0    0    0    0  0.00000000000E+00  0.00000000000E+00  0.99999998245E-14  0.12500000000E+03  0.12500000000E+03 0.  0.
        -13    1    3    3    0    0 -0.16773910123E+02  0.49779688350E+02  0.30996303439E+02  0.60993142434E+02  0.10566000000E+00 0.  1.
         23    2    1    0    0    0 -0.14747171387E+02  0.16469169118E+02  0.81398730539E+01  0.10144219601E+03  0.98668885690E+02 0.  0.
         13    1    3    3    0    0  0.20267387358E+01 -0.33310519233E+02 -0.22856430385E+02  0.40449053579E+02  0.10566000000E+00 0. -1.
         22    1    1    0    0    0  0.14747171387E+02 -0.16469169118E+02 -0.81398730539E+01  0.23557803987E+02  0.00000000000E+00 0.  1.
</event>
<event>
 5    1  0.6835419E-004  0.9118800E+02  0.7818608E-02  0.1130116E+00
         25   -1    0    0    0    0  0.00000000000E+00  0.00000000000E+00  0.99999998245E-14  0.12500000000E+03  0.12500000000E+03 0.  0.
        -13    1    3    3    0    0 -0.12505840199E+02  0.43042158147E+02 -0.31442660596E+02  0.54751031829E+02  0.10566000000E+00 0. -1.
         23    2    1    0    0    0 -0.43050337225E+01  0.28547237971E+02  0.58047301094E+01  0.95552198677E+02  0.90901318303E+02 0.  0.
         13    1    3    3    0    0  0.82008064762E+01 -0.14494920176E+02  0.37247390705E+02  0.40801166848E+02  0.10566000000E+00 0.  1.
         22    1    1    0    0    0  0.43050337225E+01 -0.28547237971E+02 -0.58047301094E+01  0.29447801323E+02  0.00000000000E+00 0. -1.
</event>
<event>
 5    1  0.6835419E-004  0.9118800E+02  0.7818608E-02  0.1130116E+00
         25   -1    0    0    0    0  0.00000000000E+00  0.00000000000E+00  0.99999998245E-14  0.12500000000E+03  0.12500000000E+03 0.  0.
        -13    1    3    3    0    0  0.57634966061E+02 -0.17421778977E+02 -0.96784400565E+01  0.60983531069E+02  0.10566000000E+00 0. -1.
         23    2    1    0    0    0  0.24967942065E+02 -0.10864397862E+02 -0.13654732196E+02  0.94538795440E+02  0.89496920953E+02 0.  0.
         13    1    3    3    0    0 -0.32667023996E+02  0.65573811145E+01 -0.39762921392E+01  0.33555264372E+02  0.10566000000E+00 0.  1.
         22    1    1    0    0    0 -0.24967942065E+02  0.10864397862E+02  0.13654732196E+02  0.30461204560E+02  0.00000000000E+00 0. -1.
</event>
<event>
 5    1  0.6835419E-004  0.9118800E+02  0.7818608E-02  0.1130116E+00
         25   -1    0    0    0    0  0.00000000000E+00  0.00000000000E+00  0.99999998245E-14  0.12500000000E+03  0.12500000000E+03 0.  0.
        -13    1    3    3    0    0  0.30440611945E+02  0.35297764570E+01 -0.21903085046E+02  0.37667578578E+02  0.10566000000E+00 0.  1.
         23    2    1    0    0    0 -0.15363271337E+02  0.20686356034E+02  0.11382275953E+02  0.96830661385E+02  0.92642675622E+02 0.  0.
         13    1    3    3    0    0 -0.45803883281E+02  0.17156579577E+02  0.33285360999E+02  0.59163082807E+02  0.10566000000E+00 0. -1.
         22    1    1    0    0    0  0.15363271337E+02 -0.20686356034E+02 -0.11382275953E+02  0.28169338615E+02  0.00000000000E+00 0. -1.
</event>
<event>
 5    1  0.6835419E-004  0.9118800E+02  0.7818608E-02  0.1130116E+00
         25   -1    0    0    0    0  0.00000000000E+00  0.00000000000E+00  0.99999998245E-14  0.12500000000E+03  0.12500000000E+03 0.  0.
        -13    1    3    3    0    0  0.71703097740E+01 -0.27963276710E+02 -0.32550593071E+02  0.43507590831E+02  0.10566000000E+00 0.  1.
         23    2    1    0    0    0  0.28341141093E+02 -0.22219692137E+01  0.74873869890E+01  0.95602408440E+02  0.90970336429E+02 0.  0.
         13    1    3    3    0    0  0.21170831319E+02  0.25741307497E+02  0.40037980060E+02  0.52094817609E+02  0.10566000000E+00 0. -1.
         22    1    1    0    0    0 -0.28341141093E+02  0.22219692137E+01 -0.74873869890E+01  0.29397591560E+02  0.00000000000E+00 0. -1.
</event>
<event>
 5    1  0.6835419E-004  0.9118800E+02  0.7818608E-02  0.1130116E+00
         25   -1    0    0    0    0  0.00000000000E+00  0.00000000000E+00  0.99999998245E-14  0.12500000000E+03  0.12500000000E+03 0.  0.
        -13    1    3    3    0    0 -0.45354105595E+02  0.10256912314E+02 -0.11666714237E+02  0.47940823206E+02  0.10566000000E+00 0.  1.
         23    2    1    0    0    0 -0.17861420202E+02 -0.82520774026E+00  0.24478564413E+02  0.94686448325E+02  0.89702910104E+02 0.  0.
         13    1    3    3    0    0  0.27492685393E+02 -0.11082120055E+02  0.36145278650E+02  0.46745625119E+02  0.10566000000E+00 0. -1.
         22    1    1    0    0    0  0.17861420202E+02  0.82520774026E+00 -0.24478564413E+02  0.30313551675E+02  0.00000000000E+00 0.  1.
</event>
<event>
 5    1  0.6835419E-004  0.9118800E+02  0.7818608E-02  0.1130116E+00
         25   -1    0    0    0    0  0.00000000000E+00  0.00000000000E+00  0.99999998245E-14  0.12500000000E+03  0.12500000000E+03 0.  0.
        -13    1    3    3    0    0  0.23054458396E+02 -0.14534391006E+02 -0.27935842376E+02  0.39027926247E+02  0.10566000000E+00 0.  1.
         23    2    1    0    0    0 -0.15306310992E+02  0.22973921033E+02 -0.10921817993E+02  0.95312118430E+02  0.90570578046E+02 0.  0.
         13    1    3    3    0    0 -0.38360769388E+02  0.37508312038E+02  0.17014024383E+02  0.56284192184E+02  0.10566000000E+00 0. -1.
         22    1    1    0    0    0  0.15306310992E+02 -0.22973921033E+02  0.10921817993E+02  0.29687881570E+02  0.00000000000E+00 0. -1.
</event>
<event>
 5    1  0.6835419E-004  0.9118800E+02  0.7818608E-02  0.1130116E+00
         25   -1    0    0    0    0  0.00000000000E+00  0.00000000000E+00  0.99999998245E-14  0.12500000000E+03  0.12500000000E+03 0.  0.
        -13    1    3    3    0    0 -0.27690356973E+02 -0.44719148528E+02  0.27146039301E+02  0.59190174253E+02  0.10566000000E+00 0.  1.
         23    2    1    0    0    0  0.34868432623E+01 -0.18951181206E+02  0.11509313175E+02  0.10255518691E+03  0.10006895986E+03 0.  0.
         13    1    3    3    0    0  0.31177200236E+02  0.25767967323E+02 -0.15636726126E+02  0.43365012653E+02  0.10566000000E+00 0. -1.
         22    1    1    0    0    0 -0.34868432623E+01  0.18951181206E+02 -0.11509313175E+02  0.22444813093E+02  0.00000000000E+00 0.  1.
</event>
<event>
 5    1  0.6835419E-004  0.9118800E+02  0.7818608E-02  0.1130116E+00
         25   -1    0    0    0    0  0.00000000000E+00  0.00000000000E+00  0.99999998245E-14  0.12500000000E+03  0.12500000000E+03 0.  0.
        -13    1    3    3    0    0  0.17825835191E+02 -0.12718800576E+02  0.42800096309E+02  0.48076893582E+02  0.10566000000E+00 0. -1.
         23    2    1    0    0    0  0.31342689634E+02 -0.95686290034E+01  0.89901240852E+00  0.92216908660E+02  0.86192964707E+02 0.  0.
         13    1    3    3    0    0  0.13516854443E+02  0.31501715727E+01 -0.41901083901E+02  0.44140015078E+02  0.10566000000E+00 0.  1.
         22    1    1    0    0    0 -0.31342689634E+02  0.95686290034E+01 -0.89901240852E+00  0.32783091340E+02  0.00000000000E+00 0.  1.
</event>
<event>
 5    1  0.6835419E-004  0.9118800E+02  0.7818608E-02  0.1130116E+00
         25   -1    0    0    0    0  0.00000000000E+00  0.00000000000E+00  0.99999998245E-14  0.12500000000E+03  0.12500000000E+03 0.  0.
        -13    1    3    3    0    0  0.12694951521E+02  0.27488149179E+01 -0.46296134866E+02  0.48083895902E+02  0.10566000000E+00 0.  1.
         23    2    1    0    0    0 -0.19385323985E+02  0.16862247414E+02 -0.14012941668E+02  0.95734171666E+02  0.91151209079E+02 0.  0.
         13    1    3    3    0    0 -0.32080275506E+02  0.14113432496E+02  0.32283193198E+02  0.47650275764E+02  0.10566000000E+00 0. -1.
         22    1    1    0    0    0  0.19385323985E+02 -0.16862247414E+02  0.14012941668E+02  0.29265828334E+02  0.00000000000E+00 0.  1.
</event>
<event>
 5    1  0.6835419E-004  0.9118800E+02  0.7818608E-02  0.1130116E+00
         25   -1    0    0    0    0  0.00000000000E+00  0.00000000000E+00  0.99999998245E-14  0.12500000000E+03  0.12500000000E+03 0.  0.
        -13    1    3    3    0    0  0.40654688473E+02 -0.27229796384E+02  0.38815769685E+02  0.62457510727E+02  0.10566000000E+00 0. -1.
         23    2    1    0    0    0  0.17841915301E+02 -0.11423188225E+02  0.14832113856E+02  0.99138546594E+02  0.95705990662E+02 0.  0.
         13    1    3    3    0    0 -0.22812773171E+02  0.15806608160E+02 -0.23983655830E+02  0.36681035867E+02  0.10566000000E+00 0.  1.
         22    1    1    0    0    0 -0.17841915301E+02  0.11423188225E+02 -0.14832113856E+02  0.25861453406E+02  0.00000000000E+00 0. -1.
</event>
<event>
 5    1  0.6835419E-004  0.9118800E+02  0.7818608E-02  0.1130116E+00
         25   -1    0    0    0    0  0.00000000000E+00  0.00000000000E+00  0.99999998245E-14  0.12500000000E+03  0.12500000000E+03 0.  0.
        -13    1    3    3    0    0 -0.31150210706E+02  0.86186220513E+01  0.33507071236E+02  0.46554819944E+02  0.10566000000E+00 0.  1.
         23    2    1    0    0    0 -0.21798858697E+02 -0.18398547816E+02 -0.65153796303E+01  0.95740010697E+02  0.91159216069E+02 0.  0.
         13    1    3    3    0    0  0.93513520093E+01 -0.27017169868E+02 -0.40022450867E+02  0.49185190754E+02  0.10566000000E+00 0. -1.
         22    1    1    0    0    0  0.21798858697E+02  0.18398547816E+02  0.65153796303E+01  0.29259989303E+02  0.00000000000E+00 0. -1.
</event>
<event>
 5    1  0.6835419E-004  0.9118800E+02  0.7818608E-02  0.1130116E+00
         25   -1    0    0    0    0  0.00000000000E+00  0.00000000000E+00  0.99999998245E-14  0.12500000000E+03  0.12500000000E+03 0.  0.
        -13    1    3    3    0    0  0.26743070921E+02 -0.58644709114E+01  0.26638546537E+02  0.38199570508E+02  0.10566000000E+00 0. -1.
         23    2    1    0    0    0  0.25811494488E+01 -0.11882209246E+02 -0.25926354142E+02  0.96363920168E+02  0.92010760469E+02 0.  0.
         13    1    3    3    0    0 -0.24161921472E+02 -0.60177383350E+01 -0.52564900679E+02  0.58164349660E+02  0.10566000000E+00 0.  1.
         22    1    1    0    0    0 -0.25811494488E+01  0.11882209246E+02  0.25926354142E+02  0.28636079832E+02  0.00000000000E+00 0.  1.
</event>
<event>
 5    1  0.6835419E-004  0.9118800E+02  0.7818608E-02  0.1130116E+00
         25   -1    0    0    0    0  0.00000000000E+00  0.00000000000E+00  0.99999998245E-14  0.12500000000E+03  0.12500000000E+03 0.  0.
        -13    1    3    3    0    0 -0.15515501822E+02 -0.21652747871E+02  0.34563911814E+02  0.43637683842E+02  0.10566000000E+00 0. -1.
         23    2    1    0    0    0 -0.74030921350E+01 -0.26935466421E+02 -0.14415974856E+02  0.93565219015E+02  0.88126640432E+02 0.  0.
         13    1    3    3    0    0  0.81124096869E+01 -0.52827185505E+01 -0.48979886670E+02  0.49927535173E+02  0.10566000000E+00 0.  1.
         22    1    1    0    0    0  0.74030921350E+01  0.26935466421E+02  0.14415974856E+02  0.31434780985E+02  0.00000000000E+00 0.  1.
</event>
<event>
 5    1  0.6835419E-004  0.9118800E+02  0.7818608E-02  0.1130116E+00
         25   -1    0    0    0    0  0.00000000000E+00  0.00000000000E+00  0.99999998245E-14  0.12500000000E+03  0.12500000000E+03 0.  0.
        -13    1    3    3    0    0 -0.65228106907E+01  0.58482438479E+02 -0.19622545263E+02  0.62030622409E+02  0.10566000000E+00 0.  1.
         23    2    1    0    0    0  0.18410155634E+01  0.28718508690E+02 -0.73136525333E+01  0.95307718291E+02  0.90564505038E+02 0.  0.
         13    1    3    3    0    0  0.83638262541E+01 -0.29763929789E+02  0.12308892730E+02  0.33277095882E+02  0.10566000000E+00 0. -1.
         22    1    1    0    0    0 -0.18410155634E+01 -0.28718508690E+02  0.73136525333E+01  0.29692281709E+02  0.00000000000E+00 0.  1.
</event>
<event>
 5    1  0.6835419E-004  0.9118800E+02  0.7818608E-02  0.1130116E+00
         25   -1    0    0    0    0  0.00000000000E+00  0.00000000000E+00  0.99999998245E-14  0.12500000000E+03  0.12500000000E+03 0.  0.
        -13    1    3    3    0    0 -0.25279810535E+02 -0.10291098533E+02  0.45907632101E+02  0.53408776234E+02  0.10566000000E+00 0. -1.
         23    2    1    0    0    0 -0.41873424253E+01 -0.26070747080E+02  0.12978229727E+02  0.95578033092E+02  0.90936836722E+02 0.  0.
         13    1    3    3    0    0  0.21092468110E+02 -0.15779648546E+02 -0.32929402374E+02  0.42169256858E+02  0.10566000000E+00 0.  1.
         22    1    1    0    0    0  0.41873424253E+01  0.26070747080E+02 -0.12978229727E+02  0.29421966908E+02  0.00000000000E+00 0. -1.
</event>
<event>
 5    1  0.6835419E-004  0.9118800E+02  0.7818608E-02  0.1130116E+00
         25   -1    0    0    0    0  0.00000000000E+00  0.00000000000E+00  0.99999998245E-14  0.12500000000E+03  0.12500000000E+03 0.  0.
        -13    1    3    3    0    0 -0.49049816485E+02 -0.20424632770E+02  0.10095381041E+02  0.54083065773E+02  0.10566000000E+00 0.  1.
         23    2    1    0    0    0 -0.20260227925E+02  0.78333712678E+01  0.19836998473E+02  0.95583252230E+02  0.90944010564E+02 0.  0.
         13    1    3    3    0    0  0.28789588561E+02  0.28258004038E+02  0.97416174312E+01  0.41500186456E+02  0.10566000000E+00 0. -1.
         22    1    1    0    0    0  0.20260227925E+02 -0.78333712678E+01 -0.19836998473E+02  0.29416747770E+02  0.00000000000E+00 0.  1.
</event>
<event>
 5    1  0.6835419E-004  0.9118800E+02  0.7818608E-02  0.1130116E+00
         25   -1    0    0    0    0  0.00000000000E+00  0.00000000000E+00  0.99999998245E-14  0.12500000000E+03  0.12500000000E+03 0.  0.
        -13    1    3    3    0    0  0.67008364816E+01 -0.23732802212E+02 -0.29924479809E+02  0.38776703912E+02  0.10566000000E+00 0. -1.
         23    2    1    0    0    0  0.93306309017E+01  0.27397314659E+02 -0.53490393873E+01  0.95567267440E+02  0.90922037263E+02 0.  0.
         13    1    3    3    0    0  0.26297944201E+01  0.51130116871E+02  0.24575440422E+02  0.56790563529E+02  0.10566000000E+00 0.  1.
         22    1    1    0    0    0 -0.93306309017E+01 -0.27397314659E+02  0.53490393873E+01  0.29432732560E+02  0.00000000000E+00 0.  1.
</event>
<event>
 5    1  0.6835419E-004  0.9118800E+02  0.7818608E-02  0.1130116E+00
         25   -1    0    0    0    0  0.00000000000E+00  0.00000000000E+00  0.99999998245E-14  0.12500000000E+03  0.12500000000E+03 0.  0.
        -13    1    3    3    0    0 -0.67129036672E+01 -0.77054597534E+01 -0.49200073135E+02  0.50250328816E+02  0.10566000000E+00 0.  1.
         23    2    1    0    0    0  0.13940299102E+02  0.18335992019E+02 -0.19697548600E+02  0.94692674760E+02  0.89711586153E+02 0.  0.
         13    1    3    3    0    0  0.20653202769E+02  0.26041451772E+02  0.29502524535E+02  0.44442345944E+02  0.10566000000E+00 0. -1.
         22    1    1    0    0    0 -0.13940299102E+02 -0.18335992019E+02  0.19697548600E+02  0.30307325240E+02  0.00000000000E+00 0.  1.
</event>
<event>
 5    1  0.6835419E-004  0.9118800E+02  0.7818608E-02  0.1130116E+00
         25   -1    0    0    0    0  0.00000000000E+00  0.00000000000E+00  0.99999998245E-14  0.12500000000E+03  0.12500000000E+03 0.  0.
        -13    1    3    3    0    0  0.44968647001E+02  0.30728897731E+02  0.10525466781E+02  0.55472885123E+02  0.10566000000E+00 0.  1.
         23    2    1    0    0    0  0.19263829385E+02  0.14790847097E+02 -0.16176766621E+02  0.95818635078E+02  0.91266964283E+02 0.  0.
         13    1    3    3    0    0 -0.25704817615E+02 -0.15938050635E+02 -0.26702233402E+02  0.40345749954E+02  0.10566000000E+00 0. -1.
         22    1    1    0    0    0 -0.19263829385E+02 -0.14790847097E+02  0.16176766621E+02  0.29181364922E+02  0.00000000000E+00 0.  1.
</event>
<event>
 5    1  0.6835419E-004  0.9118800E+02  0.7818608E-02  0.1130116E+00
         25   -1    0    0    0    0  0.00000000000E+00  0.00000000000E+00  0.99999998245E-14  0.12500000000E+03  0.12500000000E+03 0.  0.
        -13    1    3    3    0    0  0.48831803700E+02 -0.17742829543E+02  0.33575338074E+02  0.61860064206E+02  0.10566000000E+00 0.  1.
         23    2    1    0    0    0  0.18596631945E+02 -0.11682327968E+02  0.18965682351E+02  0.95982615323E+02  0.91491277348E+02 0.  0.
         13    1    3    3    0    0 -0.30235171755E+02  0.60605015752E+01 -0.14609655723E+02  0.34122551117E+02  0.10566000000E+00 0. -1.
         22    1    1    0    0    0 -0.18596631945E+02  0.11682327968E+02 -0.18965682351E+02  0.29017384677E+02  0.00000000000E+00 0.  1.
</event>
<event>
 5    1  0.6835419E-004  0.9118800E+02  0.7818608E-02  0.1130116E+00
         25   -1    0    0    0    0  0.00000000000E+00  0.00000000000E+00  0.99999998245E-14  0.12500000000E+03  0.12500000000E+03 0.  0.
        -13    1    3    3    0    0 -0.72721907141E+01 -0.49503919468E+02 -0.31852731154E+02  0.59313830145E+02  0.10566000000E+00 0.  1.
         23    2    1    0    0    0  0.37039481811E+01 -0.24532342755E+02 -0.29144077636E+02  0.86725565525E+02  0.77822820440E+02 0.  0.
         13    1    3    3    0    0  0.10976138895E+02  0.24971576714E+02  0.27086535185E+01  0.27411735380E+02  0.10566000000E+00 0. -1.
         22    1    1    0    0    0 -0.37039481811E+01  0.24532342755E+02  0.29144077636E+02  0.38274434475E+02  0.00000000000E+00 0.  1.
</event>
<event>
 5    1  0.6835419E-004  0.9118800E+02  0.7818608E-02  0.1130116E+00
         25   -1    0    0    0    0  0.00000000000E+00  0.00000000000E+00  0.99999998245E-14  0.12500000000E+03  0.12500000000E+03 0.  0.
        -13    1    3    3    0    0  0.42213576534E+02  0.95356381729E+01 -0.92905156101E+01  0.44263294991E+02  0.10566000000E+00 0. -1.
         23    2    1    0    0    0  0.99335731841E+01 -0.28296005495E+02  0.76427726811E+00  0.95001267978E+02  0.90140540238E+02 0.  0.
         13    1    3    3    0    0 -0.32280003350E+02 -0.37831643668E+02  0.10054792878E+02  0.50737972986E+02  0.10566000000E+00 0.  1.
         22    1    1    0    0    0 -0.99335731841E+01  0.28296005495E+02 -0.76427726811E+00  0.29998732022E+02  0.00000000000E+00 0.  1.
</event>
<event>
 5    1  0.6835419E-004  0.9118800E+02  0.7818608E-02  0.1130116E+00
         25   -1    0    0    0    0  0.00000000000E+00  0.00000000000E+00  0.99999998245E-14  0.12500000000E+03  0.12500000000E+03 0.  0.
        -13    1    3    3    0    0 -0.39834837345E+02 -0.13093813595E+02 -0.49142492525E+01  0.42218754488E+02  0.10566000000E+00 0. -1.
         23    2    1    0    0    0 -0.20958925419E+01  0.20217064418E+02 -0.21687120335E+02  0.95277051834E+02  0.90522168326E+02 0.  0.
         13    1    3    3    0    0  0.37738944803E+02  0.33310878013E+02 -0.16772871083E+02  0.53058297346E+02  0.10566000000E+00 0.  1.
         22    1    1    0    0    0  0.20958925419E+01 -0.20217064418E+02  0.21687120335E+02  0.29722948166E+02  0.00000000000E+00 0.  1.
</event>
<event>
 5    1  0.6835419E-004  0.9118800E+02  0.7818608E-02  0.1130116E+00
         25   -1    0    0    0    0  0.00000000000E+00  0.00000000000E+00  0.99999998245E-14  0.12500000000E+03  0.12500000000E+03 0.  0.
        -13    1    3    3    0    0 -0.54010830650E+02 -0.16110892239E+02  0.23231192160E+02  0.60962530537E+02  0.10566000000E+00 0.  1.
         23    2    1    0    0    0 -0.26580110091E+02 -0.11806024263E+02  0.21286086912E+01  0.95838116722E+02  0.91293642608E+02 0.  0.
         13    1    3    3    0    0  0.27430720559E+02  0.43048679767E+01 -0.21102583469E+02  0.34875586185E+02  0.10566000000E+00 0. -1.
         22    1    1    0    0    0  0.26580110091E+02  0.11806024263E+02 -0.21286086912E+01  0.29161883278E+02  0.00000000000E+00 0.  1.
</event>
<event>
 4    1  0.6835419E-004  0.9118800E+02  0.7818608E-02  0.1130116E+00
         25   -1    0    0    0    0  0.00000000000E+00  0.00000000000E+00  0.99999998245E-14  0.12500000000E+03  0.12500000000E+03 0.  0.
        -13    1    1    0    0    0  0.32049911300E+02 -0.42311590289E+02  0.27425033444E+02  0.59746222564E+02  0.10566000000E+00 0.  1.
         13    1    1    0    0    0 -0.93509533347E+01 -0.90012500544E+00 -0.27187099312E+00  0.93987036960E+01  0.10566000000E+00 0. -1.
         22    1    1    0    0    0 -0.22698957965E+02  0.43211715295E+02 -0.27153162451E+02  0.55855073740E+02  0.00000000000E+00 0.  1.
</event>
<event>
 5    1  0.6835419E-004  0.9118800E+02  0.7818608E-02  0.1130116E+00
         25   -1    0    0    0    0  0.00000000000E+00  0.00000000000E+00  0.99999998245E-14  0.12500000000E+03  0.12500000000E+03 0.  0.
        -13    1    3    3    0    0  0.38675134465E+02 -0.32968762738E+02  0.13356255895E+02  0.52546228008E+02  0.10566000000E+00 0. -1.
         23    2    1    0    0    0  0.29314100913E+02  0.67957950172E+01  0.87818456183E+01  0.93653227364E+02  0.88251384357E+02 0.  0.
         13    1    3    3    0    0 -0.93610335522E+01  0.39764557755E+02 -0.45744102772E+01  0.41106999356E+02  0.10566000000E+00 0.  1.
         22    1    1    0    0    0 -0.29314100913E+02 -0.67957950172E+01 -0.87818456183E+01  0.31346772636E+02  0.00000000000E+00 0. -1.
</event>
<event>
 5    1  0.6835419E-004  0.9118800E+02  0.7818608E-02  0.1130116E+00
         25   -1    0    0    0    0  0.00000000000E+00  0.00000000000E+00  0.99999998245E-14  0.12500000000E+03  0.12500000000E+03 0.  0.
        -13    1    3    3    0    0  0.39264438799E+02  0.62514403768E+01 -0.21304737608E+02  0.45107423664E+02  0.10566000000E+00 0.  1.
         23    2    1    0    0    0 -0.41133547341E+01 -0.20732980936E+02 -0.19525515238E+02  0.96224629786E+02  0.91821334375E+02 0.  0.
         13    1    3    3    0    0 -0.43377793534E+02 -0.26984421313E+02  0.17792223701E+01  0.51117206122E+02  0.10566000000E+00 0. -1.
         22    1    1    0    0    0  0.41133547341E+01  0.20732980936E+02  0.19525515238E+02  0.28775370214E+02  0.00000000000E+00 0.  1.
</event>
<event>
 5    1  0.6835419E-004  0.9118800E+02  0.7818608E-02  0.1130116E+00
         25   -1    0    0    0    0  0.00000000000E+00  0.00000000000E+00  0.99999998245E-14  0.12500000000E+03  0.12500000000E+03 0.  0.
        -13    1    3    3    0    0  0.23865059101E+02 -0.67815284772E+01  0.24900056813E+02  0.35150450463E+02  0.10566000000E+00 0. -1.
         23    2    1    0    0    0 -0.17906612361E+02 -0.17200757775E+02 -0.16747598646E+02  0.95050126967E+02  0.90208268699E+02 0.  0.
         13    1    3    3    0    0 -0.41771671463E+02 -0.10419229298E+02 -0.41647655460E+02  0.59899676504E+02  0.10566000000E+00 0.  1.
         22    1    1    0    0    0  0.17906612361E+02  0.17200757775E+02  0.16747598646E+02  0.29949873033E+02  0.00000000000E+00 0.  1.
</event>
<event>
 5    1  0.6835419E-004  0.9118800E+02  0.7818608E-02  0.1130116E+00
         25   -1    0    0    0    0  0.00000000000E+00  0.00000000000E+00  0.99999998245E-14  0.12500000000E+03  0.12500000000E+03 0.  0.
        -13    1    3    3    0    0 -0.35476647824E+02 -0.23303835694E+02  0.40024402388E+02  0.58340596924E+02  0.10566000000E+00 0.  1.
         23    2    1    0    0    0 -0.31550422353E+01 -0.19445190938E+02  0.21686914726E+02  0.95701672190E+02  0.91106630096E+02 0.  0.
         13    1    3    3    0    0  0.32321605589E+02  0.38586447559E+01 -0.18337487662E+02  0.37361075265E+02  0.10566000000E+00 0. -1.
         22    1    1    0    0    0  0.31550422353E+01  0.19445190938E+02 -0.21686914726E+02  0.29298327810E+02  0.00000000000E+00 0.  1.
</event>
<event>
 5    1  0.6835419E-004  0.9118800E+02  0.7818608E-02  0.1130116E+00
         25   -1    0    0    0    0  0.00000000000E+00  0.00000000000E+00  0.99999998245E-14  0.12500000000E+03  0.12500000000E+03 0.  0.
        -13    1    3    3    0    0 -0.52915922099E+02 -0.21227531035E+02 -0.12146925194E+02  0.58294612453E+02  0.10566000000E+00 0. -1.
         23    2    1    0    0    0 -0.29510792701E+02  0.26322541013E+01  0.34390796171E+01  0.95173117560E+02  0.90378533900E+02 0.  0.
         13    1    3    3    0    0  0.23405129398E+02  0.23859785137E+02  0.15586004811E+02  0.36878505107E+02  0.10566000000E+00 0.  1.
         22    1    1    0    0    0  0.29510792701E+02 -0.26322541013E+01 -0.34390796171E+01  0.29826882440E+02  0.00000000000E+00 0. -1.
</event>
<event>
 5    1  0.6835419E-004  0.9118800E+02  0.7818608E-02  0.1130116E+00
         25   -1    0    0    0    0  0.00000000000E+00  0.00000000000E+00  0.99999998245E-14  0.12500000000E+03  0.12500000000E+03 0.  0.
        -13    1    3    3    0    0 -0.22100753894E+02  0.46322998598E+02 -0.30960831674E+02  0.59940368565E+02  0.10566000000E+00 0.  1.
         23    2    1    0    0    0 -0.19820060597E+02  0.16065506977E+02 -0.21238751507E+02  0.91803315194E+02  0.85591055599E+02 0.  0.
         13    1    3    3    0    0  0.22806932963E+01 -0.30257491621E+02  0.97220801662E+01  0.31862946629E+02  0.10566000000E+00 0. -1.
         22    1    1    0    0    0  0.19820060597E+02 -0.16065506977E+02  0.21238751507E+02  0.33196684806E+02  0.00000000000E+00 0.  1.
</event>
<event>
 5    1  0.6835419E-004  0.9118800E+02  0.7818608E-02  0.1130116E+00
         25   -1    0    0    0    0  0.00000000000E+00  0.00000000000E+00  0.99999998245E-14  0.12500000000E+03  0.12500000000E+03 0.  0.
        -13    1    3    3    0    0 -0.11114978125E+02 -0.17299125945E+02 -0.45685726447E+02  0.50099892837E+02  0.10566000000E+00 0.  1.
         23    2    1    0    0    0 -0.28897992527E+02 -0.34432443837E+01 -0.66972321171E+01  0.95136932140E+02  0.90328473003E+02 0.  0.
         13    1    3    3    0    0 -0.17783014402E+02  0.13855881561E+02  0.38988494330E+02  0.45037039303E+02  0.10566000000E+00 0. -1.
         22    1    1    0    0    0  0.28897992527E+02  0.34432443837E+01  0.66972321171E+01  0.29863067860E+02  0.00000000000E+00 0.  1.
</event>
<event>
 5    1  0.6835419E-004  0.9118800E+02  0.7818608E-02  0.1130116E+00
         25   -1    0    0    0    0  0.00000000000E+00  0.00000000000E+00  0.99999998245E-14  0.12500000000E+03  0.12500000000E+03 0.  0.
        -13    1    3    3    0    0 -0.40584158299E+02  0.35564771154E+02 -0.27087203401E+02  0.60379256407E+02  0.10566000000E+00 0.  1.
         23    2    1    0    0    0 -0.16928643828E+02  0.22822176493E+02 -0.30677310343E+01  0.96419557466E+02  0.92086314763E+02 0.  0.
         13    1    3    3    0    0  0.23655514472E+02 -0.12742594661E+02  0.24019472367E+02  0.36040301059E+02  0.10566000000E+00 0. -1.
         22    1    1    0    0    0  0.16928643828E+02 -0.22822176493E+02  0.30677310343E+01  0.28580442534E+02  0.00000000000E+00 0.  1.
</event>
<event>
 5    1  0.6835419E-004  0.9118800E+02  0.7818608E-02  0.1130116E+00
         25   -1    0    0    0    0  0.00000000000E+00  0.00000000000E+00  0.99999998245E-14  0.12500000000E+03  0.12500000000E+03 0.  0.
        -13    1    3    3    0    0 -0.10083696092E+02 -0.42365843746E+02 -0.39573212645E+02  0.58843826917E+02  0.10566000000E+00 0.  1.
         23    2    1    0    0    0 -0.12724441618E+02 -0.25323303858E+02 -0.68347884737E+01  0.95847033320E+02  0.91305850469E+02 0.  0.
         13    1    3    3    0    0 -0.26407455268E+01  0.17042539888E+02  0.32738424172E+02  0.37003206402E+02  0.10566000000E+00 0. -1.
         22    1    1    0    0    0  0.12724441618E+02  0.25323303858E+02  0.68347884737E+01  0.29152966680E+02  0.00000000000E+00 0.  1.
</event>
<event>
 5    1  0.6835419E-004  0.9118800E+02  0.7818608E-02  0.1130116E+00
         25   -1    0    0    0    0  0.00000000000E+00  0.00000000000E+00  0.99999998245E-14  0.12500000000E+03  0.12500000000E+03 0.  0.
        -13    1    3    3    0    0  0.20658072378E+02  0.33020920840E+02 -0.20233276763E+02  0.43892297959E+02  0.10566000000E+00 0. -1.
         23    2    1    0    0    0 -0.35981726504E+01 -0.11852645638E+02 -0.26947243289E+02  0.95342185247E+02  0.90612064935E+02 0.  0.
         13    1    3    3    0    0 -0.24256245029E+02 -0.44873566478E+02 -0.67139665266E+01  0.51449887288E+02  0.10566000000E+00 0.  1.
         22    1    1    0    0    0  0.35981726504E+01  0.11852645638E+02  0.26947243289E+02  0.29657814753E+02  0.00000000000E+00 0.  1.
</event>
<event>
 5    1  0.6835419E-004  0.9118800E+02  0.7818608E-02  0.1130116E+00
         25   -1    0    0    0    0  0.00000000000E+00  0.00000000000E+00  0.99999998245E-14  0.12500000000E+03  0.12500000000E+03 0.  0.
        -13    1    3    3    0    0  0.24267189326E+02 -0.26641367589E+02 -0.44047343846E+02  0.56910795186E+02  0.10566000000E+00 0.  1.
         23    2    1    0    0    0  0.22445023976E+02 -0.18530594277E+02 -0.67526112340E+01  0.95120913936E+02  0.90306303679E+02 0.  0.
         13    1    3    3    0    0 -0.18221653503E+01  0.81107733128E+01  0.37294732612E+02  0.38210118750E+02  0.10566000000E+00 0. -1.
         22    1    1    0    0    0 -0.22445023976E+02  0.18530594277E+02  0.67526112340E+01  0.29879086064E+02  0.00000000000E+00 0.  1.
</event>
<event>
 5    1  0.6835419E-004  0.9118800E+02  0.7818608E-02  0.1130116E+00
         25   -1    0    0    0    0  0.00000000000E+00  0.00000000000E+00  0.99999998245E-14  0.12500000000E+03  0.12500000000E+03 0.  0.
        -13    1    3    3    0    0 -0.13050538926E+02 -0.31591473779E+02  0.31457483482E+02  0.46453441345E+02  0.10566000000E+00 0.  1.
         23    2    1    0    0    0 -0.32038710219E+02 -0.29047318224E+01  0.35929568490E+00  0.92827876775E+02  0.87074503695E+02 0.  0.
         13    1    3    3    0    0 -0.18988171292E+02  0.28686741957E+02 -0.31098187797E+02  0.46374435429E+02  0.10566000000E+00 0. -1.
         22    1    1    0    0    0  0.32038710219E+02  0.29047318224E+01 -0.35929568490E+00  0.32172123225E+02  0.00000000000E+00 0.  1.
</event>
<event>
 5    1  0.6835419E-004  0.9118800E+02  0.7818608E-02  0.1130116E+00
         25   -1    0    0    0    0  0.00000000000E+00  0.00000000000E+00  0.99999998245E-14  0.12500000000E+03  0.12500000000E+03 0.  0.
        -13    1    3    3    0    0  0.93507233520E+01 -0.29456724499E+02  0.29297503318E+02  0.42585085537E+02  0.10566000000E+00 0.  1.
         23    2    1    0    0    0  0.73579364677E+00 -0.18606537789E+02 -0.22263875329E+02  0.95975445130E+02  0.91481480543E+02 0.  0.
         13    1    3    3    0    0 -0.86149297053E+01  0.10850186710E+02 -0.51561378647E+02  0.53390359593E+02  0.10566000000E+00 0. -1.
         22    1    1    0    0    0 -0.73579364677E+00  0.18606537789E+02  0.22263875329E+02  0.29024554870E+02  0.00000000000E+00 0.  1.
</event>
<event>
 5    1  0.6835419E-004  0.9118800E+02  0.7818608E-02  0.1130116E+00
         25   -1    0    0    0    0  0.00000000000E+00  0.00000000000E+00  0.99999998245E-14  0.12500000000E+03  0.12500000000E+03 0.  0.
        -13    1    3    3    0    0 -0.18171485979E+02 -0.37097192056E+02 -0.59648559940E+01  0.41737216393E+02  0.10566000000E+00 0.  1.
         23    2    1    0    0    0  0.14242250914E+02 -0.52063872829E+01  0.24297665943E+02  0.96358688055E+02  0.92003652176E+02 0.  0.
         13    1    3    3    0    0  0.32413736893E+02  0.31890804773E+02  0.30262521937E+02  0.54621471662E+02  0.10566000000E+00 0. -1.
         22    1    1    0    0    0 -0.14242250914E+02  0.52063872829E+01 -0.24297665943E+02  0.28641311945E+02  0.00000000000E+00 0. -1.
</event>
<event>
 5    1  0.6835419E-004  0.9118800E+02  0.7818608E-02  0.1130116E+00
         25   -1    0    0    0    0  0.00000000000E+00  0.00000000000E+00  0.99999998245E-14  0.12500000000E+03  0.12500000000E+03 0.  0.
        -13    1    3    3    0    0  0.23965392917E+02  0.66225296153E+00  0.27579908173E+02  0.36543688040E+02  0.10566000000E+00 0. -1.
         23    2    1    0    0    0 -0.44120902534E+01 -0.26964488493E+02 -0.14280352584E+02  0.94170166234E+02  0.88980568433E+02 0.  0.
         13    1    3    3    0    0 -0.28377483171E+02 -0.27626741455E+02 -0.41860260756E+02  0.57626478195E+02  0.10566000000E+00 0.  1.
         22    1    1    0    0    0  0.44120902534E+01  0.26964488493E+02  0.14280352584E+02  0.30829833766E+02  0.00000000000E+00 0.  1.
</event>
<event>
 5    1  0.6835419E-004  0.9118800E+02  0.7818608E-02  0.1130116E+00
         25   -1    0    0    0    0  0.00000000000E+00  0.00000000000E+00  0.99999998245E-14  0.12500000000E+03  0.12500000000E+03 0.  0.
        -13    1    3    3    0    0  0.17265162382E+02  0.49349585207E+02 -0.29027950490E+02  0.59800505565E+02  0.10566000000E+00 0. -1.
         23    2    1    0    0    0  0.17044380920E+02  0.28456653946E+02 -0.53138407062E+01  0.91406414633E+02  0.85009432761E+02 0.  0.
         13    1    3    3    0    0 -0.22078146148E+00 -0.20892931261E+02  0.23714109784E+02  0.31605909068E+02  0.10566000000E+00 0.  1.
         22    1    1    0    0    0 -0.17044380920E+02 -0.28456653946E+02  0.53138407062E+01  0.33593585367E+02  0.00000000000E+00 0. -1.
</event>
<event>
 5    1  0.6835419E-004  0.9118800E+02  0.7818608E-02  0.1130116E+00
         25   -1    0    0    0    0  0.00000000000E+00  0.00000000000E+00  0.99999998245E-14  0.12500000000E+03  0.12500000000E+03 0.  0.
        -13    1    3    3    0    0 -0.33914543933E+02  0.16295520774E+02 -0.24423858087E+02  0.44858402729E+02  0.10566000000E+00 0.  1.
         23    2    1    0    0    0 -0.15578071824E+02 -0.25432036445E+02 -0.36314007795E+01  0.94955834658E+02  0.90077514755E+02 0.  0.
         13    1    3    3    0    0  0.18336472109E+02 -0.41727557220E+02  0.20792457307E+02  0.50097431929E+02  0.10566000000E+00 0. -1.
         22    1    1    0    0    0  0.15578071824E+02  0.25432036445E+02  0.36314007795E+01  0.30044165342E+02  0.00000000000E+00 0. -1.
</event>
<event>
 5    1  0.6835419E-004  0.9118800E+02  0.7818608E-02  0.1130116E+00
         25   -1    0    0    0    0  0.00000000000E+00  0.00000000000E+00  0.99999998245E-14  0.12500000000E+03  0.12500000000E+03 0.  0.
        -13    1    3    3    0    0 -0.22903694676E+02  0.32741242110E+02 -0.10418332727E+02  0.41293110631E+02  0.10566000000E+00 0. -1.
         23    2    1    0    0    0 -0.16100201136E+02 -0.10835850537E+02  0.21725590556E+02  0.95868686633E+02  0.91335489588E+02 0.  0.
         13    1    3    3    0    0  0.68034935399E+01 -0.43577092647E+02  0.32143923283E+02  0.54575576002E+02  0.10566000000E+00 0.  1.
         22    1    1    0    0    0  0.16100201136E+02  0.10835850537E+02 -0.21725590556E+02  0.29131313367E+02  0.00000000000E+00 0.  1.
</event>
<event>
 5    1  0.6835419E-004  0.9118800E+02  0.7818608E-02  0.1130116E+00
         25   -1    0    0    0    0  0.00000000000E+00  0.00000000000E+00  0.99999998245E-14  0.12500000000E+03  0.12500000000E+03 0.  0.
        -13    1    3    3    0    0  0.44171907250E+02 -0.23651627585E+02  0.93361190475E+01  0.50967942478E+02  0.10566000000E+00 0.  1.
         23    2    1    0    0    0  0.23705566784E+02  0.16127915607E+02  0.47388561111E+01  0.95939368285E+02  0.91432171971E+02 0.  0.
         13    1    3    3    0    0 -0.20466340466E+02  0.39779543192E+02 -0.45972629364E+01  0.44971425808E+02  0.10566000000E+00 0. -1.
         22    1    1    0    0    0 -0.23705566784E+02 -0.16127915607E+02 -0.47388561111E+01  0.29060631715E+02  0.00000000000E+00 0.  1.
</event>
<event>
 5    1  0.6835419E-004  0.9118800E+02  0.7818608E-02  0.1130116E+00
         25   -1    0    0    0    0  0.00000000000E+00  0.00000000000E+00  0.99999998245E-14  0.12500000000E+03  0.12500000000E+03 0.  0.
        -13    1    3    3    0    0  0.14875734137E+02  0.39110807646E+02 -0.46414154785E+02  0.62491820819E+02  0.10566000000E+00 0.  1.
         23    2    1    0    0    0  0.75198397319E+01  0.18123259541E+02 -0.21152233155E+02  0.96148353714E+02  0.91717437974E+02 0.  0.
         13    1    3    3    0    0 -0.73558944055E+01 -0.20987548105E+02  0.25261921630E+02  0.33656532894E+02  0.10566000000E+00 0. -1.
         22    1    1    0    0    0 -0.75198397319E+01 -0.18123259541E+02  0.21152233155E+02  0.28851646286E+02  0.00000000000E+00 0.  1.
</event>
<event>
 5    1  0.6835419E-004  0.9118800E+02  0.7818608E-02  0.1130116E+00
         25   -1    0    0    0    0  0.00000000000E+00  0.00000000000E+00  0.99999998245E-14  0.12500000000E+03  0.12500000000E+03 0.  0.
        -13    1    3    3    0    0  0.39601773538E+02 -0.26584221813E+02 -0.50165255529E+01  0.47960379580E+02  0.10566000000E+00 0. -1.
         23    2    1    0    0    0  0.22063929472E+02  0.12101479267E+02 -0.19847039030E+02  0.92950542244E+02  0.87250418687E+02 0.  0.
         13    1    3    3    0    0 -0.17537844066E+02  0.38685701080E+02 -0.14830513477E+02  0.44990162665E+02  0.10566000000E+00 0.  1.
         22    1    1    0    0    0 -0.22063929472E+02 -0.12101479267E+02  0.19847039030E+02  0.32049457756E+02  0.00000000000E+00 0. -1.
</event>
<event>
 5    1  0.6835419E-004  0.9118800E+02  0.7818608E-02  0.1130116E+00
         25   -1    0    0    0    0  0.00000000000E+00  0.00000000000E+00  0.99999998245E-14  0.12500000000E+03  0.12500000000E+03 0.  0.
        -13    1    3    3    0    0  0.34958148206E+02 -0.15396694541E+02 -0.45385016547E+02  0.59320664358E+02  0.10566000000E+00 0.  1.
         23    2    1    0    0    0  0.80203961464E+01 -0.12615307841E+02 -0.32323333149E+02  0.89387212800E+02  0.81986603784E+02 0.  0.
         13    1    3    3    0    0 -0.26937752060E+02  0.27813866997E+01  0.13061683398E+02  0.30066548442E+02  0.10566000000E+00 0. -1.
         22    1    1    0    0    0 -0.80203961464E+01  0.12615307841E+02  0.32323333149E+02  0.35612787200E+02  0.00000000000E+00 0.  1.
</event>
<event>
 5    1  0.6835419E-004  0.9118800E+02  0.7818608E-02  0.1130116E+00
         25   -1    0    0    0    0  0.00000000000E+00  0.00000000000E+00  0.99999998245E-14  0.12500000000E+03  0.12500000000E+03 0.  0.
        -13    1    3    3    0    0  0.32900242215E+02 -0.74289297774E+01 -0.23580548541E+02  0.41154202325E+02  0.10566000000E+00 0. -1.
         23    2    1    0    0    0  0.32953216817E+01  0.99926861981E+01  0.23394047135E+02  0.99348599185E+02  0.95979944761E+02 0.  0.
         13    1    3    3    0    0 -0.29604920533E+02  0.17421615976E+02  0.46974595676E+02  0.58194396860E+02  0.10566000000E+00 0.  1.
         22    1    1    0    0    0 -0.32953216817E+01 -0.99926861981E+01 -0.23394047135E+02  0.25651400815E+02  0.00000000000E+00 0.  1.
</event>
<event>
 5    1  0.6835419E-004  0.9118800E+02  0.7818608E-02  0.1130116E+00
         25   -1    0    0    0    0  0.00000000000E+00  0.00000000000E+00  0.99999998245E-14  0.12500000000E+03  0.12500000000E+03 0.  0.
        -13    1    3    3    0    0  0.46756066105E+02 -0.59543838638E+01 -0.15433250425E+02  0.49596177146E+02  0.10566000000E+00 0.  1.
         23    2    1    0    0    0  0.20841762913E+02  0.10951867686E+02 -0.32450106861E+02  0.84908455724E+02  0.74847270698E+02 0.  0.
         13    1    3    3    0    0 -0.25914303191E+02  0.16906251550E+02 -0.17016856436E+02  0.35312278578E+02  0.10566000000E+00 0. -1.
         22    1    1    0    0    0 -0.20841762913E+02 -0.10951867686E+02  0.32450106861E+02  0.40091544276E+02  0.00000000000E+00 0.  1.
</event>
<event>
 5    1  0.6835419E-004  0.9118800E+02  0.7818608E-02  0.1130116E+00
         25   -1    0    0    0    0  0.00000000000E+00  0.00000000000E+00  0.99999998245E-14  0.12500000000E+03  0.12500000000E+03 0.  0.
        -13    1    3    3    0    0 -0.20333079384E+01 -0.42607557674E+02  0.40549233617E+02  0.58853970326E+02  0.10566000000E+00 0.  1.
         23    2    1    0    0    0 -0.14231940376E+02 -0.20835058731E+02  0.11159948960E+02  0.97410287063E+02  0.93421473793E+02 0.  0.
         13    1    3    3    0    0 -0.12198632438E+02  0.21772498944E+02 -0.29389284657E+02  0.38556316737E+02  0.10566000000E+00 0. -1.
         22    1    1    0    0    0  0.14231940376E+02  0.20835058731E+02 -0.11159948960E+02  0.27589712937E+02  0.00000000000E+00 0.  1.
</event>
<event>
 5    1  0.6835419E-004  0.9118800E+02  0.7818608E-02  0.1130116E+00
         25   -1    0    0    0    0  0.00000000000E+00  0.00000000000E+00  0.99999998245E-14  0.12500000000E+03  0.12500000000E+03 0.  0.
        -13    1    3    3    0    0  0.80035375633E+01  0.17228895358E+01  0.36038481597E+02  0.36956843504E+02  0.10566000000E+00 0. -1.
         23    2    1    0    0    0 -0.62046489330E+01 -0.15075492259E+02 -0.21187479307E+02  0.98266548771E+02  0.94560230502E+02 0.  0.
         13    1    3    3    0    0 -0.14208186496E+02 -0.16798381795E+02 -0.57225960905E+02  0.61309705267E+02  0.10566000000E+00 0.  1.
         22    1    1    0    0    0  0.62046489330E+01  0.15075492259E+02  0.21187479307E+02  0.26733451229E+02  0.00000000000E+00 0.  1.
</event>
<event>
 5    1  0.6835419E-004  0.9118800E+02  0.7818608E-02  0.1130116E+00
         25   -1    0    0    0    0  0.00000000000E+00  0.00000000000E+00  0.99999998245E-14  0.12500000000E+03  0.12500000000E+03 0.  0.
        -13    1    3    3    0    0 -0.62563962241E+01 -0.37902588436E+02 -0.25972019596E+02  0.46371388482E+02  0.10566000000E+00 0.  1.
         23    2    1    0    0    0 -0.20213770353E+02  0.87694632599E+01  0.25458973334E+01  0.10281934196E+03  0.10039838390E+03 0.  0.
         13    1    3    3    0    0 -0.13957374129E+02  0.46672051696E+02  0.28517916929E+02  0.56447953480E+02  0.10566000000E+00 0. -1.
         22    1    1    0    0    0  0.20213770353E+02 -0.87694632599E+01 -0.25458973334E+01  0.22180658038E+02  0.00000000000E+00 0. -1.
</event>
<event>
 5    1  0.6835419E-004  0.9118800E+02  0.7818608E-02  0.1130116E+00
         25   -1    0    0    0    0  0.00000000000E+00  0.00000000000E+00  0.99999998245E-14  0.12500000000E+03  0.12500000000E+03 0.  0.
        -13    1    3    3    0    0  0.55600136063E+01  0.27996421336E+02 -0.29830738550E+02  0.41286771313E+02  0.10566000000E+00 0.  1.
         23    2    1    0    0    0  0.24990368178E+02  0.75383308995E-01  0.13675091600E+02  0.96512593755E+02  0.92212517798E+02 0.  0.
         13    1    3    3    0    0  0.19430354572E+02 -0.27921038027E+02  0.43505830150E+02  0.55225822442E+02  0.10566000000E+00 0. -1.
         22    1    1    0    0    0 -0.24990368178E+02 -0.75383308995E-01 -0.13675091600E+02  0.28487406245E+02  0.00000000000E+00 0. -1.
</event>
<event>
 5    1  0.6835419E-004  0.9118800E+02  0.7818608E-02  0.1130116E+00
         25   -1    0    0    0    0  0.00000000000E+00  0.00000000000E+00  0.99999998245E-14  0.12500000000E+03  0.12500000000E+03 0.  0.
        -13    1    3    3    0    0 -0.20118911480E+02  0.53264373149E+02  0.67527894260E+01  0.57336509967E+02  0.10566000000E+00 0.  1.
         23    2    1    0    0    0  0.58054049954E+01  0.24530202086E+02 -0.76916779715E+01  0.98644821162E+02  0.95058956919E+02 0.  0.
         13    1    3    3    0    0  0.25924316475E+02 -0.28734171063E+02 -0.14444467398E+02  0.41308311195E+02  0.10566000000E+00 0. -1.
         22    1    1    0    0    0 -0.58054049954E+01 -0.24530202086E+02  0.76916779715E+01  0.26355178838E+02  0.00000000000E+00 0.  1.
</event>
<event>
 5    1  0.6835419E-004  0.9118800E+02  0.7818608E-02  0.1130116E+00
         25   -1    0    0    0    0  0.00000000000E+00  0.00000000000E+00  0.99999998245E-14  0.12500000000E+03  0.12500000000E+03 0.  0.
        -13    1    3    3    0    0  0.35626073196E+02  0.16026801819E+02  0.46989429165E+01  0.39346749503E+02  0.10566000000E+00 0.  1.
         23    2    1    0    0    0 -0.10645879102E+02 -0.49163876209E+01  0.27562676826E+02  0.95046590129E+02  0.90203367632E+02 0.  0.
         13    1    3    3    0    0 -0.46271952298E+02 -0.20943189440E+02  0.22863733910E+02  0.55699840626E+02  0.10566000000E+00 0. -1.
         22    1    1    0    0    0  0.10645879102E+02  0.49163876209E+01 -0.27562676826E+02  0.29953409871E+02  0.00000000000E+00 0. -1.
</event>
<event>
 5    1  0.6835419E-004  0.9118800E+02  0.7818608E-02  0.1130116E+00
         25   -1    0    0    0    0  0.00000000000E+00  0.00000000000E+00  0.99999998245E-14  0.12500000000E+03  0.12500000000E+03 0.  0.
        -13    1    3    3    0    0 -0.34586302078E+02  0.33655322451E+02 -0.83798047626E+01  0.48980866801E+02  0.10566000000E+00 0. -1.
         23    2    1    0    0    0  0.69198730889E+01  0.48173862636E+01 -0.22095889095E+02  0.10135004928E+03  0.98552079232E+02 0.  0.
         13    1    3    3    0    0  0.41506175167E+02 -0.28837936187E+02 -0.13716084332E+02  0.52369182483E+02  0.10566000000E+00 0.  1.
         22    1    1    0    0    0 -0.69198730889E+01 -0.48173862636E+01  0.22095889095E+02  0.23649950716E+02  0.00000000000E+00 0. -1.
</event>
<event>
 5    1  0.6835419E-004  0.9118800E+02  0.7818608E-02  0.1130116E+00
         25   -1    0    0    0    0  0.00000000000E+00  0.00000000000E+00  0.99999998245E-14  0.12500000000E+03  0.12500000000E+03 0.  0.
        -13    1    3    3    0    0  0.52192809163E+02 -0.23656271668E+02 -0.17008491032E+02  0.59774647208E+02  0.10566000000E+00 0.  1.
         23    2    1    0    0    0  0.32690813036E+02 -0.10133759955E+01 -0.12449623562E+02  0.90004152893E+02  0.82921880245E+02 0.  0.
         13    1    3    3    0    0 -0.19501996127E+02  0.22642895672E+02  0.45588674702E+01  0.30229505686E+02  0.10566000000E+00 0. -1.
         22    1    1    0    0    0 -0.32690813036E+02  0.10133759955E+01  0.12449623562E+02  0.34995847107E+02  0.00000000000E+00 0.  1.
</event>
<event>
 5    1  0.6835419E-004  0.9118800E+02  0.7818608E-02  0.1130116E+00
         25   -1    0    0    0    0  0.00000000000E+00  0.00000000000E+00  0.99999998245E-14  0.12500000000E+03  0.12500000000E+03 0.  0.
        -13    1    3    3    0    0 -0.37582195535E+02  0.24227735705E+02 -0.95375256454E+01  0.45720675390E+02  0.10566000000E+00 0.  1.
         23    2    1    0    0    0 -0.10238889599E+02 -0.16464342058E+02 -0.21361209451E+02  0.96151937867E+02  0.91722322620E+02 0.  0.
         13    1    3    3    0    0  0.27343305936E+02 -0.40692077764E+02 -0.11823683805E+02  0.50431262477E+02  0.10566000000E+00 0. -1.
         22    1    1    0    0    0  0.10238889599E+02  0.16464342058E+02  0.21361209451E+02  0.28848062133E+02  0.00000000000E+00 0.  1.
</event>
<event>
 5    1  0.6835419E-004  0.9118800E+02  0.7818608E-02  0.1130116E+00
         25   -1    0    0    0    0  0.00000000000E+00  0.00000000000E+00  0.99999998245E-14  0.12500000000E+03  0.12500000000E+03 0.  0.
        -13    1    3    3    0    0  0.57762295172E+02  0.72797031677E+01 -0.53038888579E+01  0.58460407309E+02  0.10566000000E+00 0.  1.
         23    2    1    0    0    0  0.21450029550E+02  0.16730274980E+02 -0.94304377071E+01  0.96208698815E+02  0.91799644355E+02 0.  0.
         13    1    3    3    0    0 -0.36312265621E+02  0.94505718122E+01 -0.41265488492E+01  0.37748291505E+02  0.10566000000E+00 0. -1.
         22    1    1    0    0    0 -0.21450029550E+02 -0.16730274980E+02  0.94304377071E+01  0.28791301185E+02  0.00000000000E+00 0.  1.
</event>
<event>
 5    1  0.6835419E-004  0.9118800E+02  0.7818608E-02  0.1130116E+00
         25   -1    0    0    0    0  0.00000000000E+00  0.00000000000E+00  0.99999998245E-14  0.12500000000E+03  0.12500000000E+03 0.  0.
        -13    1    3    3    0    0 -0.31788975703E+02  0.86383604269E+01 -0.35476646335E+02  0.48412434832E+02  0.10566000000E+00 0.  1.
         23    2    1    0    0    0  0.14336651682E+02  0.37956410936E+01 -0.24955820637E+02  0.95970024864E+02  0.91474074010E+02 0.  0.
         13    1    3    3    0    0  0.46125627385E+02 -0.48427193333E+01  0.10520825698E+02  0.47557590032E+02  0.10566000000E+00 0. -1.
         22    1    1    0    0    0 -0.14336651682E+02 -0.37956410936E+01  0.24955820637E+02  0.29029975136E+02  0.00000000000E+00 0. -1.
</event>
<event>
 5    1  0.6835419E-004  0.9118800E+02  0.7818608E-02  0.1130116E+00
         25   -1    0    0    0    0  0.00000000000E+00  0.00000000000E+00  0.99999998245E-14  0.12500000000E+03  0.12500000000E+03 0.  0.
        -13    1    3    3    0    0  0.54492852155E+02 -0.16314882900E+02  0.17051158565E+02  0.59383495286E+02  0.10566000000E+00 0.  1.
         23    2    1    0    0    0  0.22677799528E+02  0.38066355958E+01 -0.26177176636E+01  0.10185641532E+03  0.99192256908E+02 0.  0.
         13    1    3    3    0    0 -0.31815052627E+02  0.20121518495E+02 -0.19668876228E+02  0.42472920036E+02  0.10566000000E+00 0. -1.
         22    1    1    0    0    0 -0.22677799528E+02 -0.38066355958E+01  0.26177176636E+01  0.23143584678E+02  0.00000000000E+00 0.  1.
</event>
<event>
 5    1  0.6835419E-004  0.9118800E+02  0.7818608E-02  0.1130116E+00
         25   -1    0    0    0    0  0.00000000000E+00  0.00000000000E+00  0.99999998245E-14  0.12500000000E+03  0.12500000000E+03 0.  0.
        -13    1    3    3    0    0 -0.41174479098E+02  0.32282213017E+02  0.15382146379E+02  0.54535315141E+02  0.10566000000E+00 0.  1.
         23    2    1    0    0    0 -0.29696829084E+02 -0.44146269275E+01  0.35333080325E+01  0.94769636882E+02  0.89818757621E+02 0.  0.
         13    1    3    3    0    0  0.11477650014E+02 -0.36696839945E+02 -0.11848838347E+02  0.40234321741E+02  0.10566000000E+00 0. -1.
         22    1    1    0    0    0  0.29696829084E+02  0.44146269275E+01 -0.35333080325E+01  0.30230363118E+02  0.00000000000E+00 0. -1.
</event>
<event>
 5    1  0.6835419E-004  0.9118800E+02  0.7818608E-02  0.1130116E+00
         25   -1    0    0    0    0  0.00000000000E+00  0.00000000000E+00  0.99999998245E-14  0.12500000000E+03  0.12500000000E+03 0.  0.
        -13    1    3    3    0    0 -0.25617033808E+02  0.30343868776E+02  0.56179653641E+01  0.40106801073E+02  0.10566000000E+00 0.  1.
         23    2    1    0    0    0  0.21465672596E+02  0.85003134031E+01 -0.16598868295E+02  0.96564936142E+02  0.92283443994E+02 0.  0.
         13    1    3    3    0    0  0.47082706404E+02 -0.21843555373E+02 -0.22216833659E+02  0.56458135069E+02  0.10566000000E+00 0. -1.
         22    1    1    0    0    0 -0.21465672596E+02 -0.85003134031E+01  0.16598868295E+02  0.28435063858E+02  0.00000000000E+00 0. -1.
</event>
<event>
 5    1  0.6835419E-004  0.9118800E+02  0.7818608E-02  0.1130116E+00
         25   -1    0    0    0    0  0.00000000000E+00  0.00000000000E+00  0.99999998245E-14  0.12500000000E+03  0.12500000000E+03 0.  0.
        -13    1    3    3    0    0 -0.57399551778E+02 -0.19075128695E+02 -0.12793385643E+02  0.61824355713E+02  0.10566000000E+00 0.  1.
         23    2    1    0    0    0 -0.28682083842E+02 -0.11453354150E+02 -0.14778647698E+00  0.94115325878E+02  0.88903495260E+02 0.  0.
         13    1    3    3    0    0  0.28717467936E+02  0.76217745453E+01  0.12645599166E+02  0.32290970165E+02  0.10566000000E+00 0. -1.
         22    1    1    0    0    0  0.28682083842E+02  0.11453354150E+02  0.14778647698E+00  0.30884674122E+02  0.00000000000E+00 0.  1.
</event>
<event>
 5    1  0.6835419E-004  0.9118800E+02  0.7818608E-02  0.1130116E+00
         25   -1    0    0    0    0  0.00000000000E+00  0.00000000000E+00  0.99999998245E-14  0.12500000000E+03  0.12500000000E+03 0.  0.
        -13    1    3    3    0    0  0.40059576928E+02 -0.28064846757E+01 -0.45742487848E+02  0.60868977472E+02  0.10566000000E+00 0.  1.
         23    2    1    0    0    0  0.20900834266E+02 -0.10847917449E+02 -0.18953193275E+02  0.94771772773E+02  0.89821730072E+02 0.  0.
         13    1    3    3    0    0 -0.19158742662E+02 -0.80414327738E+01  0.26789294573E+02  0.33902795301E+02  0.10566000000E+00 0. -1.
         22    1    1    0    0    0 -0.20900834266E+02  0.10847917449E+02  0.18953193275E+02  0.30228227227E+02  0.00000000000E+00 0.  1.
</event>
<event>
 5    1  0.6835419E-004  0.9118800E+02  0.7818608E-02  0.1130116E+00
         25   -1    0    0    0    0  0.00000000000E+00  0.00000000000E+00  0.99999998245E-14  0.12500000000E+03  0.12500000000E+03 0.  0.
        -13    1    3    3    0    0 -0.31596422189E+02  0.96190817724E+01 -0.21982626078E+02  0.39675025426E+02  0.10566000000E+00 0.  1.
         23    2    1    0    0    0  0.23285428509E+02  0.13768847560E+02 -0.10992739748E+02  0.95800125494E+02  0.91241609881E+02 0.  0.
         13    1    3    3    0    0  0.54881850698E+02  0.41497657875E+01  0.10989886330E+02  0.56125100068E+02  0.10566000000E+00 0. -1.
         22    1    1    0    0    0 -0.23285428509E+02 -0.13768847560E+02  0.10992739748E+02  0.29199874506E+02  0.00000000000E+00 0. -1.
</event>
<event>
 5    1  0.6835419E-004  0.9118800E+02  0.7818608E-02  0.1130116E+00
         25   -1    0    0    0    0  0.00000000000E+00  0.00000000000E+00  0.99999998245E-14  0.12500000000E+03  0.12500000000E+03 0.  0.
        -13    1    3    3    0    0 -0.32608645408E+02  0.19544671990E+02 -0.50439102301E+01  0.38350621286E+02  0.10566000000E+00 0. -1.
         23    2    1    0    0    0  0.78424210396E+01 -0.57643898777E+01  0.27313957924E+02  0.96003723413E+02  0.91520111742E+02 0.  0.
         13    1    3    3    0    0  0.40451066448E+02 -0.25309061868E+02  0.32357868154E+02  0.57653102127E+02  0.10566000000E+00 0.  1.
         22    1    1    0    0    0 -0.78424210396E+01  0.57643898777E+01 -0.27313957924E+02  0.28996276587E+02  0.00000000000E+00 0.  1.
</event>
<event>
 5    1  0.6835419E-004  0.9118800E+02  0.7818608E-02  0.1130116E+00
         25   -1    0    0    0    0  0.00000000000E+00  0.00000000000E+00  0.99999998245E-14  0.12500000000E+03  0.12500000000E+03 0.  0.
        -13    1    3    3    0    0  0.25776758023E+02  0.34022085633E+01 -0.18400029571E+02  0.31852606323E+02  0.10566000000E+00 0.  1.
         23    2    1    0    0    0 -0.28571388550E+02  0.83622373625E+01  0.10281536419E+02  0.93504583690E+02  0.88040592471E+02 0.  0.
         13    1    3    3    0    0 -0.54348146573E+02  0.49600287991E+01  0.28681565990E+02  0.61651977368E+02  0.10566000000E+00 0. -1.
         22    1    1    0    0    0  0.28571388550E+02 -0.83622373625E+01 -0.10281536419E+02  0.31495416310E+02  0.00000000000E+00 0. -1.
</event>
<event>
 5    1  0.6835419E-004  0.9118800E+02  0.7818608E-02  0.1130116E+00
         25   -1    0    0    0    0  0.00000000000E+00  0.00000000000E+00  0.99999998245E-14  0.12500000000E+03  0.12500000000E+03 0.  0.
        -13    1    3    3    0    0  0.11248216208E+02  0.44766210876E+02 -0.25670853067E+02  0.52816094756E+02  0.10566000000E+00 0.  1.
         23    2    1    0    0    0  0.49707899387E+01  0.27363465825E+02  0.11942405751E+02  0.94733036663E+02  0.89767806956E+02 0.  0.
         13    1    3    3    0    0 -0.62774262696E+01 -0.17402745051E+02  0.37613258818E+02  0.41916941907E+02  0.10566000000E+00 0. -1.
         22    1    1    0    0    0 -0.49707899387E+01 -0.27363465825E+02 -0.11942405751E+02  0.30266963337E+02  0.00000000000E+00 0.  1.
</event>
<event>
 5    1  0.6835419E-004  0.9118800E+02  0.7818608E-02  0.1130116E+00
         25   -1    0    0    0    0  0.00000000000E+00  0.00000000000E+00  0.99999998245E-14  0.12500000000E+03  0.12500000000E+03 0.  0.
        -13    1    3    3    0    0  0.33311275435E+02 -0.41516251777E+02 -0.93698124209E+01  0.54046690755E+02  0.10566000000E+00 0.  1.
         23    2    1    0    0    0  0.29401171273E+02 -0.11242508711E+01 -0.56463024224E+00  0.95571924637E+02  0.90928439772E+02 0.  0.
         13    1    3    3    0    0 -0.39101041620E+01  0.40392000906E+02  0.88051821787E+01  0.41525233882E+02  0.10566000000E+00 0. -1.
         22    1    1    0    0    0 -0.29401171273E+02  0.11242508711E+01  0.56463024224E+00  0.29428075363E+02  0.00000000000E+00 0.  1.
</event>
<event>
 5    1  0.6835419E-004  0.9118800E+02  0.7818608E-02  0.1130116E+00
         25   -1    0    0    0    0  0.00000000000E+00  0.00000000000E+00  0.99999998245E-14  0.12500000000E+03  0.12500000000E+03 0.  0.
        -13    1    3    3    0    0 -0.45860604249E+02  0.19223164916E+02  0.23163625046E+02  0.54856993909E+02  0.10566000000E+00 0.  1.
         23    2    1    0    0    0 -0.21163974972E+02 -0.13450965674E+02  0.11274155065E+02  0.97505475334E+02  0.93548751106E+02 0.  0.
         13    1    3    3    0    0  0.24696629276E+02 -0.32674130589E+02 -0.11889469981E+02  0.42648481425E+02  0.10566000000E+00 0. -1.
         22    1    1    0    0    0  0.21163974972E+02  0.13450965674E+02 -0.11274155065E+02  0.27494524666E+02  0.00000000000E+00 0.  1.
</event>
<event>
 5    1  0.6835419E-004  0.9118800E+02  0.7818608E-02  0.1130116E+00
         25   -1    0    0    0    0  0.00000000000E+00  0.00000000000E+00  0.99999998245E-14  0.12500000000E+03  0.12500000000E+03 0.  0.
        -13    1    3    3    0    0 -0.52379064922E+02  0.15541576963E+02 -0.15702353152E+02  0.56847885758E+02  0.10566000000E+00 0.  1.
         23    2    1    0    0    0 -0.26972880278E+02 -0.10557001611E+02 -0.13287070050E+01  0.96004275905E+02  0.91520866343E+02 0.  0.
         13    1    3    3    0    0  0.25406184644E+02 -0.26098578574E+02  0.14373646147E+02  0.39156390147E+02  0.10566000000E+00 0. -1.
         22    1    1    0    0    0  0.26972880278E+02  0.10557001611E+02  0.13287070050E+01  0.28995724095E+02  0.00000000000E+00 0.  1.
</event>
<event>
 5    1  0.6835419E-004  0.9118800E+02  0.7818608E-02  0.1130116E+00
         25   -1    0    0    0    0  0.00000000000E+00  0.00000000000E+00  0.99999998245E-14  0.12500000000E+03  0.12500000000E+03 0.  0.
        -13    1    3    3    0    0 -0.24155551400E+01 -0.35268643556E+02 -0.13228340659E+02  0.37745361113E+02  0.10566000000E+00 0.  1.
         23    2    1    0    0    0  0.17093878357E+02  0.78634596220E+01  0.21479334599E+02  0.96444851790E+02  0.92120643438E+02 0.  0.
         13    1    3    3    0    0  0.19509433497E+02  0.43132103178E+02  0.34707675258E+02  0.58699490677E+02  0.10566000000E+00 0. -1.
         22    1    1    0    0    0 -0.17093878357E+02 -0.78634596220E+01 -0.21479334599E+02  0.28555148210E+02  0.00000000000E+00 0. -1.
</event>
<event>
 5    1  0.6835419E-004  0.9118800E+02  0.7818608E-02  0.1130116E+00
         25   -1    0    0    0    0  0.00000000000E+00  0.00000000000E+00  0.99999998245E-14  0.12500000000E+03  0.12500000000E+03 0.  0.
        -13    1    3    3    0    0  0.28989346329E+02 -0.81776128706E+01  0.51696749793E+02  0.59831602486E+02  0.10566000000E+00 0. -1.
         23    2    1    0    0    0  0.24164760493E+02  0.12118097415E+00  0.18003704726E+02  0.94865572540E+02  0.89952171374E+02 0.  0.
         13    1    3    3    0    0 -0.48245858356E+01  0.82987938447E+01 -0.33693045068E+02  0.35033970054E+02  0.10566000000E+00 0.  1.
         22    1    1    0    0    0 -0.24164760493E+02 -0.12118097415E+00 -0.18003704726E+02  0.30134427460E+02  0.00000000000E+00 0. -1.
</event>
<event>
 5    1  0.6835419E-004  0.9118800E+02  0.7818608E-02  0.1130116E+00
         25   -1    0    0    0    0  0.00000000000E+00  0.00000000000E+00  0.99999998245E-14  0.12500000000E+03  0.12500000000E+03 0.  0.
        -13    1    3    3    0    0 -0.25454352382E+02  0.25265432932E+02 -0.52910994672E+01  0.36252904077E+02  0.10566000000E+00 0.  1.
         23    2    1    0    0    0  0.19271205454E+02 -0.11981834914E+02 -0.18246489196E+02  0.95881653626E+02  0.91353234243E+02 0.  0.
         13    1    3    3    0    0  0.44725557836E+02 -0.37247267845E+02 -0.12955389729E+02  0.59628749549E+02  0.10566000000E+00 0. -1.
         22    1    1    0    0    0 -0.19271205454E+02  0.11981834914E+02  0.18246489196E+02  0.29118346374E+02  0.00000000000E+00 0. -1.
</event>
<event>
 5    1  0.6835419E-004  0.9118800E+02  0.7818608E-02  0.1130116E+00
         25   -1    0    0    0    0  0.00000000000E+00  0.00000000000E+00  0.99999998245E-14  0.12500000000E+03  0.12500000000E+03 0.  0.
        -13    1    3    3    0    0 -0.31512911679E+02 -0.72889320321E+00 -0.30665390796E+02  0.43976951287E+02  0.10566000000E+00 0.  1.
         23    2    1    0    0    0 -0.16047647462E+02  0.17902972995E+02  0.15700552993E+02  0.96285007480E+02  0.91903492154E+02 0.  0.
         13    1    3    3    0    0  0.15465264217E+02  0.18631866198E+02  0.46365943788E+02  0.52308056194E+02  0.10566000000E+00 0. -1.
         22    1    1    0    0    0  0.16047647462E+02 -0.17902972995E+02 -0.15700552993E+02  0.28714992520E+02  0.00000000000E+00 0. -1.
</event>
<event>
 5    1  0.6835419E-004  0.9118800E+02  0.7818608E-02  0.1130116E+00
         25   -1    0    0    0    0  0.00000000000E+00  0.00000000000E+00  0.99999998245E-14  0.12500000000E+03  0.12500000000E+03 0.  0.
        -13    1    3    3    0    0  0.31748261221E+02 -0.10733469800E+02 -0.21507296234E+02  0.39821280992E+02  0.10566000000E+00 0.  1.
         23    2    1    0    0    0  0.93615323208E+01  0.12420418488E+02  0.24499257997E+02  0.95980718044E+02  0.91488685153E+02 0.  0.
         13    1    3    3    0    0 -0.22386728900E+02  0.23153888288E+02  0.46006554232E+02  0.56159437052E+02  0.10566000000E+00 0. -1.
         22    1    1    0    0    0 -0.93615323208E+01 -0.12420418488E+02 -0.24499257997E+02  0.29019281956E+02  0.00000000000E+00 0. -1.
</event>
<event>
 5    1  0.6835419E-004  0.9118800E+02  0.7818608E-02  0.1130116E+00
         25   -1    0    0    0    0  0.00000000000E+00  0.00000000000E+00  0.99999998245E-14  0.12500000000E+03  0.12500000000E+03 0.  0.
        -13    1    3    3    0    0 -0.66385224628E+01 -0.54160705733E+01  0.40587879946E+02  0.41482417522E+02  0.10566000000E+00 0.  1.
         23    2    1    0    0    0  0.31161035246E+02  0.89365505350E+01  0.20656012568E+02  0.86561179671E+02  0.77558332355E+02 0.  0.
         13    1    3    3    0    0  0.37799557709E+02  0.14352621108E+02 -0.19931867377E+02  0.45078762149E+02  0.10566000000E+00 0. -1.
         22    1    1    0    0    0 -0.31161035246E+02 -0.89365505350E+01 -0.20656012568E+02  0.38438820329E+02  0.00000000000E+00 0. -1.
</event>
<event>
 5    1  0.6835419E-004  0.9118800E+02  0.7818608E-02  0.1130116E+00
         25   -1    0    0    0    0  0.00000000000E+00  0.00000000000E+00  0.99999998245E-14  0.12500000000E+03  0.12500000000E+03 0.  0.
        -13    1    3    3    0    0 -0.24583244424E+02  0.41756099140E+02 -0.21424016411E+02  0.52980254483E+02  0.10566000000E+00 0.  1.
         23    2    1    0    0    0 -0.29138724966E+01  0.73083398582E+01 -0.29498538615E+02  0.94470239686E+02  0.89401118122E+02 0.  0.
         13    1    3    3    0    0  0.21669371928E+02 -0.34447759282E+02 -0.80745222042E+01  0.41489985203E+02  0.10566000000E+00 0. -1.
         22    1    1    0    0    0  0.29138724966E+01 -0.73083398582E+01  0.29498538615E+02  0.30529760314E+02  0.00000000000E+00 0.  1.
</event>
<event>
 5    1  0.6835419E-004  0.9118800E+02  0.7818608E-02  0.1130116E+00
         25   -1    0    0    0    0  0.00000000000E+00  0.00000000000E+00  0.99999998245E-14  0.12500000000E+03  0.12500000000E+03 0.  0.
        -13    1    3    3    0    0 -0.36910491599E+00  0.39423914488E+02 -0.41472032632E+02  0.57221691051E+02  0.10566000000E+00 0. -1.
         23    2    1    0    0    0 -0.12568570929E+02  0.27214292881E+02 -0.95016857364E+01  0.93553716531E+02  0.88110323644E+02 0.  0.
         13    1    3    3    0    0 -0.12199466013E+02 -0.12209621607E+02  0.31970346896E+02  0.36332025480E+02  0.10566000000E+00 0.  1.
         22    1    1    0    0    0  0.12568570929E+02 -0.27214292881E+02  0.95016857364E+01  0.31446283469E+02  0.00000000000E+00 0. -1.
</event>
<event>
 5    1  0.6835419E-004  0.9118800E+02  0.7818608E-02  0.1130116E+00
         25   -1    0    0    0    0  0.00000000000E+00  0.00000000000E+00  0.99999998245E-14  0.12500000000E+03  0.12500000000E+03 0.  0.
        -13    1    3    3    0    0  0.95239281529E+01  0.48618108670E+02  0.77478134719E+01  0.50144446111E+02  0.10566000000E+00 0. -1.
         23    2    1    0    0    0 -0.18860118079E+01  0.13971586884E+02 -0.23114101742E+02  0.97925584402E+02  0.94108427362E+02 0.  0.
         13    1    3    3    0    0 -0.11409939961E+02 -0.34646521786E+02 -0.30861915214E+02  0.47781138292E+02  0.10566000000E+00 0.  1.
         22    1    1    0    0    0  0.18860118079E+01 -0.13971586884E+02  0.23114101742E+02  0.27074415598E+02  0.00000000000E+00 0. -1.
</event>
<event>
 5    1  0.6835419E-004  0.9118800E+02  0.7818608E-02  0.1130116E+00
         25   -1    0    0    0    0  0.00000000000E+00  0.00000000000E+00  0.99999998245E-14  0.12500000000E+03  0.12500000000E+03 0.  0.
        -13    1    3    3    0    0  0.27799082637E+02 -0.40032023142E+02  0.13565556682E+02  0.50590388064E+02  0.10566000000E+00 0. -1.
         23    2    1    0    0    0 -0.10509198342E+02 -0.27792861176E+02 -0.49723606507E+01  0.94873421160E+02  0.89963077371E+02 0.  0.
         13    1    3    3    0    0 -0.38308280979E+02  0.12239161966E+02 -0.18537917332E+02  0.44283033096E+02  0.10566000000E+00 0.  1.
         22    1    1    0    0    0  0.10509198342E+02  0.27792861176E+02  0.49723606507E+01  0.30126578840E+02  0.00000000000E+00 0.  1.
</event>
<event>
 5    1  0.6835419E-004  0.9118800E+02  0.7818608E-02  0.1130116E+00
         25   -1    0    0    0    0  0.00000000000E+00  0.00000000000E+00  0.99999998245E-14  0.12500000000E+03  0.12500000000E+03 0.  0.
        -13    1    3    3    0    0 -0.22008458949E+02 -0.43541166857E+02  0.37058221869E+02  0.61266046459E+02  0.10566000000E+00 0.  1.
         23    2    1    0    0    0 -0.12436069468E+02 -0.14187869070E+02  0.23168604080E+02  0.95121317506E+02  0.90306862289E+02 0.  0.
         13    1    3    3    0    0  0.95723894808E+01  0.29353297787E+02 -0.13889617789E+02  0.33855271048E+02  0.10566000000E+00 0. -1.
         22    1    1    0    0    0  0.12436069468E+02  0.14187869070E+02 -0.23168604080E+02  0.29878682494E+02  0.00000000000E+00 0.  1.
</event>
<event>
 5    1  0.6835419E-004  0.9118800E+02  0.7818608E-02  0.1130116E+00
         25   -1    0    0    0    0  0.00000000000E+00  0.00000000000E+00  0.99999998245E-14  0.12500000000E+03  0.12500000000E+03 0.  0.
        -13    1    3    3    0    0  0.21212260214E+01  0.14951080756E+02 -0.45305916797E+02  0.47756378385E+02  0.10566000000E+00 0.  1.
         23    2    1    0    0    0  0.52385664301E+01 -0.23402606455E+02 -0.15293294976E+02  0.96556908776E+02  0.92272570106E+02 0.  0.
         13    1    3    3    0    0  0.31173404088E+01 -0.38353687211E+02  0.30012621821E+02  0.48800530391E+02  0.10566000000E+00 0. -1.
         22    1    1    0    0    0 -0.52385664301E+01  0.23402606455E+02  0.15293294976E+02  0.28443091224E+02  0.00000000000E+00 0. -1.
</event>
<event>
 5    1  0.6835419E-004  0.9118800E+02  0.7818608E-02  0.1130116E+00
         25   -1    0    0    0    0  0.00000000000E+00  0.00000000000E+00  0.99999998245E-14  0.12500000000E+03  0.12500000000E+03 0.  0.
        -13    1    3    3    0    0  0.59837049884E+01 -0.40856568945E+02 -0.32712154664E+02  0.52679789086E+02  0.10566000000E+00 0.  1.
         23    2    1    0    0    0  0.31573245694E+01  0.19503121950E+01 -0.29025601848E+02  0.95738113890E+02  0.91156615078E+02 0.  0.
         13    1    3    3    0    0 -0.28263804190E+01  0.42806881140E+02  0.36865528157E+01  0.43058324804E+02  0.10566000000E+00 0. -1.
         22    1    1    0    0    0 -0.31573245694E+01 -0.19503121950E+01  0.29025601848E+02  0.29261886110E+02  0.00000000000E+00 0.  1.
</event>
<event>
 5    1  0.6835419E-004  0.9118800E+02  0.7818608E-02  0.1130116E+00
         25   -1    0    0    0    0  0.00000000000E+00  0.00000000000E+00  0.99999998245E-14  0.12500000000E+03  0.12500000000E+03 0.  0.
        -13    1    3    3    0    0  0.24887377069E+02  0.36217876348E+02  0.18556579311E+02  0.47701927679E+02  0.10566000000E+00 0.  1.
         23    2    1    0    0    0  0.18579493117E+02 -0.11325111855E+02  0.19660543495E+02  0.95674367977E+02  0.91069160501E+02 0.  0.
         13    1    3    3    0    0 -0.63078839517E+01 -0.47542988203E+02  0.11039641840E+01  0.47972440298E+02  0.10566000000E+00 0. -1.
         22    1    1    0    0    0 -0.18579493117E+02  0.11325111855E+02 -0.19660543495E+02  0.29325632023E+02  0.00000000000E+00 0.  1.
</event>
<event>
 5    1  0.6835419E-004  0.9118800E+02  0.7818608E-02  0.1130116E+00
         25   -1    0    0    0    0  0.00000000000E+00  0.00000000000E+00  0.99999998245E-14  0.12500000000E+03  0.12500000000E+03 0.  0.
        -13    1    3    3    0    0 -0.18354570809E+02  0.31224063735E+02  0.37744750280E+02  0.52311659919E+02  0.10566000000E+00 0. -1.
         23    2    1    0    0    0 -0.23746292287E+02  0.16140527194E+02 -0.30378151796E+01  0.96127325435E+02  0.91688774442E+02 0.  0.
         13    1    3    3    0    0 -0.53917214778E+01 -0.15083536541E+02 -0.40782565460E+02  0.43815665516E+02  0.10566000000E+00 0.  1.
         22    1    1    0    0    0  0.23746292287E+02 -0.16140527194E+02  0.30378151796E+01  0.28872674565E+02  0.00000000000E+00 0. -1.
</event>
<event>
 5    1  0.6835419E-004  0.9118800E+02  0.7818608E-02  0.1130116E+00
         25   -1    0    0    0    0  0.00000000000E+00  0.00000000000E+00  0.99999998245E-14  0.12500000000E+03  0.12500000000E+03 0.  0.
        -13    1    3    3    0    0  0.22929020383E+02  0.67046212683E+01  0.21175889773E+02  0.31923680768E+02  0.10566000000E+00 0.  1.
         23    2    1    0    0    0 -0.13114961805E+02 -0.19507516950E+02 -0.21144351931E+02  0.93383089030E+02  0.87867925078E+02 0.  0.
         13    1    3    3    0    0 -0.36043982188E+02 -0.26212138219E+02 -0.42320241704E+02  0.61459408262E+02  0.10566000000E+00 0. -1.
         22    1    1    0    0    0  0.13114961805E+02  0.19507516950E+02  0.21144351931E+02  0.31616910970E+02  0.00000000000E+00 0. -1.
</event>
<event>
 5    1  0.6835419E-004  0.9118800E+02  0.7818608E-02  0.1130116E+00
         25   -1    0    0    0    0  0.00000000000E+00  0.00000000000E+00  0.99999998245E-14  0.12500000000E+03  0.12500000000E+03 0.  0.
        -13    1    3    3    0    0  0.20009510801E+02 -0.79430127047E+01  0.43717544426E+02  0.48730963750E+02  0.10566000000E+00 0. -1.
         23    2    1    0    0    0  0.26133246488E+02 -0.88253295542E+01 -0.42459066293E+01  0.97091923448E+02  0.92994520602E+02 0.  0.
         13    1    3    3    0    0  0.61237356865E+01 -0.88231684943E+00 -0.47963451055E+02  0.48360959698E+02  0.10566000000E+00 0.  1.
         22    1    1    0    0    0 -0.26133246488E+02  0.88253295542E+01  0.42459066293E+01  0.27908076552E+02  0.00000000000E+00 0. -1.
</event>
<event>
 5    1  0.6835419E-004  0.9118800E+02  0.7818608E-02  0.1130116E+00
         25   -1    0    0    0    0  0.00000000000E+00  0.00000000000E+00  0.99999998245E-14  0.12500000000E+03  0.12500000000E+03 0.  0.
        -13    1    3    3    0    0 -0.30166012725E+02 -0.54198712305E+01  0.50786688946E+02  0.59318313075E+02  0.10566000000E+00 0.  1.
         23    2    1    0    0    0 -0.56848310125E+01  0.77763886080E+01  0.28369861295E+02  0.95039383295E+02  0.90193380155E+02 0.  0.
         13    1    3    3    0    0  0.24481181712E+02  0.13196259839E+02 -0.22416827651E+02  0.35721070221E+02  0.10566000000E+00 0. -1.
         22    1    1    0    0    0  0.56848310125E+01 -0.77763886080E+01 -0.28369861295E+02  0.29960616705E+02  0.00000000000E+00 0.  1.
</event>
<event>
 5    1  0.6835419E-004  0.9118800E+02  0.7818608E-02  0.1130116E+00
         25   -1    0    0    0    0  0.00000000000E+00  0.00000000000E+00  0.99999998245E-14  0.12500000000E+03  0.12500000000E+03 0.  0.
        -13    1    3    3    0    0 -0.12771056364E+02  0.21744917604E+02 -0.22769897083E+02  0.33976767055E+02  0.10566000000E+00 0.  1.
         23    2    1    0    0    0  0.12664335135E+02 -0.25480943371E+02  0.75070590884E+01  0.95571785722E+02  0.90928248803E+02 0.  0.
         13    1    3    3    0    0  0.25435391499E+02 -0.47225860975E+02  0.30276956172E+02  0.61595018667E+02  0.10566000000E+00 0. -1.
         22    1    1    0    0    0 -0.12664335135E+02  0.25480943371E+02 -0.75070590884E+01  0.29428214278E+02  0.00000000000E+00 0. -1.
</event>
<event>
 5    1  0.6835419E-004  0.9118800E+02  0.7818608E-02  0.1130116E+00
         25   -1    0    0    0    0  0.00000000000E+00  0.00000000000E+00  0.99999998245E-14  0.12500000000E+03  0.12500000000E+03 0.  0.
        -13    1    3    3    0    0  0.15348850497E+02 -0.27360125493E+02 -0.19068735711E+02  0.36712280292E+02  0.10566000000E+00 0.  1.
         23    2    1    0    0    0 -0.13956748933E+02 -0.12947291590E+01  0.25389878101E+02  0.95998050508E+02  0.91512363247E+02 0.  0.
         13    1    3    3    0    0 -0.29305599430E+02  0.26065396334E+02  0.44458613812E+02  0.59285770216E+02  0.10566000000E+00 0. -1.
         22    1    1    0    0    0  0.13956748933E+02  0.12947291590E+01 -0.25389878101E+02  0.29001949492E+02  0.00000000000E+00 0. -1.
</event>
<event>
 5    1  0.6835419E-004  0.9118800E+02  0.7818608E-02  0.1130116E+00
         25   -1    0    0    0    0  0.00000000000E+00  0.00000000000E+00  0.99999998245E-14  0.12500000000E+03  0.12500000000E+03 0.  0.
        -13    1    3    3    0    0 -0.34946627606E+02  0.10526606345E+02 -0.28475673539E+01  0.36608687849E+02  0.10566000000E+00 0.  1.
         23    2    1    0    0    0  0.25166287523E+02  0.62602650569E+01 -0.98090528410E+01  0.97273650368E+02  0.93238471631E+02 0.  0.
         13    1    3    3    0    0  0.60112915128E+02 -0.42663412885E+01 -0.69614854872E+01  0.60664962519E+02  0.10566000000E+00 0. -1.
         22    1    1    0    0    0 -0.25166287523E+02 -0.62602650569E+01  0.98090528410E+01  0.27726349632E+02  0.00000000000E+00 0. -1.
</event>
<event>
 5    1  0.6835419E-004  0.9118800E+02  0.7818608E-02  0.1130116E+00
         25   -1    0    0    0    0  0.00000000000E+00  0.00000000000E+00  0.99999998245E-14  0.12500000000E+03  0.12500000000E+03 0.  0.
        -13    1    3    3    0    0 -0.22674288204E+02  0.37292453375E+02 -0.17170005051E+02  0.46900646710E+02  0.10566000000E+00 0.  1.
         23    2    1    0    0    0  0.15789583008E+02  0.11736980670E+02 -0.24414385046E+02  0.93645098565E+02  0.88239869908E+02 0.  0.
         13    1    3    3    0    0  0.38463871211E+02 -0.25555472705E+02 -0.72443799944E+01  0.46744451856E+02  0.10566000000E+00 0. -1.
         22    1    1    0    0    0 -0.15789583008E+02 -0.11736980670E+02  0.24414385046E+02  0.31354901435E+02  0.00000000000E+00 0. -1.
</event>
<event>
 5    1  0.6835419E-004  0.9118800E+02  0.7818608E-02  0.1130116E+00
         25   -1    0    0    0    0  0.00000000000E+00  0.00000000000E+00  0.99999998245E-14  0.12500000000E+03  0.12500000000E+03 0.  0.
        -13    1    3    3    0    0 -0.18859177960E+02  0.25525600491E+02  0.36594528247E+02  0.48439607094E+02  0.10566000000E+00 0. -1.
         23    2    1    0    0    0  0.12438713373E+01  0.30696643537E+02 -0.39856761840E+01  0.94020704414E+02  0.88770355996E+02 0.  0.
         13    1    3    3    0    0  0.20103049298E+02  0.51710430463E+01 -0.40580204431E+02  0.45581097321E+02  0.10566000000E+00 0.  1.
         22    1    1    0    0    0 -0.12438713373E+01 -0.30696643537E+02  0.39856761840E+01  0.30979295586E+02  0.00000000000E+00 0. -1.
</event>
<event>
 5    1  0.6835419E-004  0.9118800E+02  0.7818608E-02  0.1130116E+00
         25   -1    0    0    0    0  0.00000000000E+00  0.00000000000E+00  0.99999998245E-14  0.12500000000E+03  0.12500000000E+03 0.  0.
        -13    1    3    3    0    0  0.23346141870E+02  0.52422380728E+02 -0.66984705674E+01  0.57775678390E+02  0.10566000000E+00 0.  1.
         23    2    1    0    0    0  0.21947020552E+02  0.17596338282E+02  0.82273962402E+01  0.95691419670E+02  0.91092562361E+02 0.  0.
         13    1    3    3    0    0 -0.13991213184E+01 -0.34826042445E+02  0.14925866808E+02  0.37915741281E+02  0.10566000000E+00 0. -1.
         22    1    1    0    0    0 -0.21947020552E+02 -0.17596338282E+02 -0.82273962402E+01  0.29308580330E+02  0.00000000000E+00 0.  1.
</event>
<event>
 5    1  0.6835419E-004  0.9118800E+02  0.7818608E-02  0.1130116E+00
         25   -1    0    0    0    0  0.00000000000E+00  0.00000000000E+00  0.99999998245E-14  0.12500000000E+03  0.12500000000E+03 0.  0.
        -13    1    3    3    0    0 -0.43615228573E+02 -0.29415184646E+02  0.31267677056E+02  0.61198202946E+02  0.10566000000E+00 0. -1.
         23    2    1    0    0    0 -0.19520952576E+02 -0.82655249691E+01  0.21719531105E+02  0.94649966657E+02  0.89652058896E+02 0.  0.
         13    1    3    3    0    0  0.24094275997E+02  0.21149659677E+02 -0.95481459510E+01  0.33451763711E+02  0.10566000000E+00 0.  1.
         22    1    1    0    0    0  0.19520952576E+02  0.82655249691E+01 -0.21719531105E+02  0.30350033343E+02  0.00000000000E+00 0. -1.
</event>
<event>
 5    1  0.6835419E-004  0.9118800E+02  0.7818608E-02  0.1130116E+00
         25   -1    0    0    0    0  0.00000000000E+00  0.00000000000E+00  0.99999998245E-14  0.12500000000E+03  0.12500000000E+03 0.  0.
        -13    1    3    3    0    0 -0.25683413138E+01 -0.92118959846E+01 -0.30543401148E+02  0.32005717028E+02  0.10566000000E+00 0. -1.
         23    2    1    0    0    0 -0.30484600882E+02  0.67788935956E+01  0.17024593571E+02  0.89431740617E+02  0.82054464560E+02 0.  0.
         13    1    3    3    0    0 -0.27916259568E+02  0.15990789580E+02  0.47567994718E+02  0.57426023589E+02  0.10566000000E+00 0.  1.
         22    1    1    0    0    0  0.30484600882E+02 -0.67788935956E+01 -0.17024593571E+02  0.35568259383E+02  0.00000000000E+00 0.  1.
</event>
<event>
 5    1  0.6835419E-004  0.9118800E+02  0.7818608E-02  0.1130116E+00
         25   -1    0    0    0    0  0.00000000000E+00  0.00000000000E+00  0.99999998245E-14  0.12500000000E+03  0.12500000000E+03 0.  0.
        -13    1    3    3    0    0  0.21916392656E+02 -0.15314484334E+02 -0.20904667224E+02  0.33939327825E+02  0.10566000000E+00 0.  1.
         23    2    1    0    0    0 -0.25506330162E+02  0.68981512482E+01  0.12204062143E+02  0.95895077706E+02  0.91371600765E+02 0.  0.
         13    1    3    3    0    0 -0.47422722818E+02  0.22212635582E+02  0.33108729366E+02  0.61955749880E+02  0.10566000000E+00 0. -1.
         22    1    1    0    0    0  0.25506330162E+02 -0.68981512482E+01 -0.12204062143E+02  0.29104922294E+02  0.00000000000E+00 0. -1.
</event>
<event>
 5    1  0.6835419E-004  0.9118800E+02  0.7818608E-02  0.1130116E+00
         25   -1    0    0    0    0  0.00000000000E+00  0.00000000000E+00  0.99999998245E-14  0.12500000000E+03  0.12500000000E+03 0.  0.
        -13    1    3    3    0    0 -0.28585536899E+02  0.17133838436E+02  0.33242095842E+02  0.47071747783E+02  0.10566000000E+00 0. -1.
         23    2    1    0    0    0  0.13191293165E+01  0.30213391253E+02 -0.14734222822E+01  0.94721953722E+02  0.89752372841E+02 0.  0.
         13    1    3    3    0    0  0.29904666215E+02  0.13079552817E+02 -0.34715518125E+02  0.47650205939E+02  0.10566000000E+00 0.  1.
         22    1    1    0    0    0 -0.13191293165E+01 -0.30213391253E+02  0.14734222822E+01  0.30278046278E+02  0.00000000000E+00 0.  1.
</event>
<event>
 5    1  0.6835419E-004  0.9118800E+02  0.7818608E-02  0.1130116E+00
         25   -1    0    0    0    0  0.00000000000E+00  0.00000000000E+00  0.99999998245E-14  0.12500000000E+03  0.12500000000E+03 0.  0.
        -13    1    3    3    0    0 -0.20632253739E+02  0.20309119025E+02 -0.38401932310E+02  0.48092304781E+02  0.10566000000E+00 0. -1.
         23    2    1    0    0    0  0.19543939024E+02  0.34819383529E+01 -0.23744385217E+02  0.94050278247E+02  0.88811989966E+02 0.  0.
         13    1    3    3    0    0  0.40176192763E+02 -0.16827180672E+02  0.14657547093E+02  0.45957973466E+02  0.10566000000E+00 0.  1.
         22    1    1    0    0    0 -0.19543939024E+02 -0.34819383529E+01  0.23744385217E+02  0.30949721753E+02  0.00000000000E+00 0. -1.
</event>
<event>
 5    1  0.6835419E-004  0.9118800E+02  0.7818608E-02  0.1130116E+00
         25   -1    0    0    0    0  0.00000000000E+00  0.00000000000E+00  0.99999998245E-14  0.12500000000E+03  0.12500000000E+03 0.  0.
        -13    1    3    3    0    0  0.31125998519E+02  0.71147804060E+01 -0.18708818210E+02  0.37006471419E+02  0.10566000000E+00 0.  1.
         23    2    1    0    0    0 -0.95898569732E+01  0.14274234520E+02  0.23363180654E+02  0.95990392313E+02  0.91501902047E+02 0.  0.
         13    1    3    3    0    0 -0.40715855492E+02  0.71594541143E+01  0.42071998864E+02  0.58983920894E+02  0.10566000000E+00 0. -1.
         22    1    1    0    0    0  0.95898569732E+01 -0.14274234520E+02 -0.23363180654E+02  0.29009607687E+02  0.00000000000E+00 0. -1.
</event>
<event>
 5    1  0.6835419E-004  0.9118800E+02  0.7818608E-02  0.1130116E+00
         25   -1    0    0    0    0  0.00000000000E+00  0.00000000000E+00  0.99999998245E-14  0.12500000000E+03  0.12500000000E+03 0.  0.
        -13    1    3    3    0    0  0.60858412613E+01 -0.62534965735E+01 -0.59118088500E+02  0.59758708446E+02  0.10566000000E+00 0.  1.
         23    2    1    0    0    0 -0.80782698599E+01  0.44250194355E+01 -0.27307642198E+02  0.96180795234E+02  0.91761641269E+02 0.  0.
         13    1    3    3    0    0 -0.14164111121E+02  0.10678516009E+02  0.31810446301E+02  0.36422086787E+02  0.10566000000E+00 0. -1.
         22    1    1    0    0    0  0.80782698599E+01 -0.44250194355E+01  0.27307642198E+02  0.28819204766E+02  0.00000000000E+00 0.  1.
</event>
<event>
 5    1  0.6835419E-004  0.9118800E+02  0.7818608E-02  0.1130116E+00
         25   -1    0    0    0    0  0.00000000000E+00  0.00000000000E+00  0.99999998245E-14  0.12500000000E+03  0.12500000000E+03 0.  0.
        -13    1    3    3    0    0 -0.39548714544E+02 -0.65464210056E+01  0.22471358937E+02  0.45955735078E+02  0.10566000000E+00 0. -1.
         23    2    1    0    0    0  0.88829219351E+01 -0.13959781101E+02  0.25003982483E+02  0.95016989302E+02  0.90162338732E+02 0.  0.
         13    1    3    3    0    0  0.48431636479E+02 -0.74133600950E+01  0.25326235461E+01  0.49061254224E+02  0.10566000000E+00 0.  1.
         22    1    1    0    0    0 -0.88829219351E+01  0.13959781101E+02 -0.25003982483E+02  0.29983010698E+02  0.00000000000E+00 0. -1.
</event>
<event>
 5    1  0.6835419E-004  0.9118800E+02  0.7818608E-02  0.1130116E+00
         25   -1    0    0    0    0  0.00000000000E+00  0.00000000000E+00  0.99999998245E-14  0.12500000000E+03  0.12500000000E+03 0.  0.
        -13    1    3    3    0    0 -0.42715920997E+02 -0.31544151757E+02 -0.10825333460E+02  0.54193010852E+02  0.10566000000E+00 0. -1.
         23    2    1    0    0    0 -0.24475936941E+02  0.24554319397E+01  0.10473020138E+02  0.98264540663E+02  0.94557575930E+02 0.  0.
         13    1    3    3    0    0  0.18239984055E+02  0.33999583696E+02  0.21298353598E+02  0.44071529811E+02  0.10566000000E+00 0.  1.
         22    1    1    0    0    0  0.24475936941E+02 -0.24554319397E+01 -0.10473020138E+02  0.26735459337E+02  0.00000000000E+00 0. -1.
</event>
<event>
 5    1  0.6835419E-004  0.9118800E+02  0.7818608E-02  0.1130116E+00
         25   -1    0    0    0    0  0.00000000000E+00  0.00000000000E+00  0.99999998245E-14  0.12500000000E+03  0.12500000000E+03 0.  0.
        -13    1    3    3    0    0  0.75496591752E+01 -0.26623844327E+02 -0.51843695029E+02  0.58767391628E+02  0.10566000000E+00 0.  1.
         23    2    1    0    0    0  0.13108598676E+02 -0.20845051723E+02 -0.15685094022E+02  0.95804560030E+02  0.91247684943E+02 0.  0.
         13    1    3    3    0    0  0.55589395009E+01  0.57787926043E+01  0.36158601008E+02  0.37037168402E+02  0.10566000000E+00 0. -1.
         22    1    1    0    0    0 -0.13108598676E+02  0.20845051723E+02  0.15685094022E+02  0.29195439970E+02  0.00000000000E+00 0.  1.
</event>
<event>
 5    1  0.6835419E-004  0.9118800E+02  0.7818608E-02  0.1130116E+00
         25   -1    0    0    0    0  0.00000000000E+00  0.00000000000E+00  0.99999998245E-14  0.12500000000E+03  0.12500000000E+03 0.  0.
        -13    1    3    3    0    0 -0.45373374466E+02 -0.20667572943E+02 -0.37636786988E+01  0.50000681227E+02  0.10566000000E+00 0. -1.
         23    2    1    0    0    0 -0.50774074978E+00 -0.18988818232E+02 -0.19691722662E+02  0.97639500006E+02  0.93727664014E+02 0.  0.
         13    1    3    3    0    0  0.44865633716E+02  0.16787547104E+01 -0.15928043963E+02  0.47638818779E+02  0.10566000000E+00 0.  1.
         22    1    1    0    0    0  0.50774074978E+00  0.18988818232E+02  0.19691722662E+02  0.27360499994E+02  0.00000000000E+00 0. -1.
</event>
<event>
 5    1  0.6835419E-004  0.9118800E+02  0.7818608E-02  0.1130116E+00
         25   -1    0    0    0    0  0.00000000000E+00  0.00000000000E+00  0.99999998245E-14  0.12500000000E+03  0.12500000000E+03 0.  0.
        -13    1    3    3    0    0  0.35532602038E+02  0.79256289761E+01  0.35974173085E+02  0.51181380358E+02  0.10566000000E+00 0.  1.
         23    2    1    0    0    0  0.27456515992E+02 -0.10899046024E+02 -0.30977922263E+01  0.95297377366E+02  0.90550231041E+02 0.  0.
         13    1    3    3    0    0 -0.80760860453E+01 -0.18824675000E+02 -0.39071965311E+02  0.44115997007E+02  0.10566000000E+00 0. -1.
         22    1    1    0    0    0 -0.27456515992E+02  0.10899046024E+02  0.30977922263E+01  0.29702622634E+02  0.00000000000E+00 0.  1.
</event>
<event>
 5    1  0.6835419E-004  0.9118800E+02  0.7818608E-02  0.1130116E+00
         25   -1    0    0    0    0  0.00000000000E+00  0.00000000000E+00  0.99999998245E-14  0.12500000000E+03  0.12500000000E+03 0.  0.
        -13    1    3    3    0    0 -0.26342854241E+02 -0.48245537935E+02  0.17492505671E+02  0.57685152499E+02  0.10566000000E+00 0. -1.
         23    2    1    0    0    0 -0.22227425331E+02 -0.18955333775E+02 -0.56565472092E+01  0.95245006441E+02  0.90477906751E+02 0.  0.
         13    1    3    3    0    0  0.41154289090E+01  0.29290204160E+02 -0.23149052880E+02  0.37559853941E+02  0.10566000000E+00 0.  1.
         22    1    1    0    0    0  0.22227425331E+02  0.18955333775E+02  0.56565472092E+01  0.29754993559E+02  0.00000000000E+00 0. -1.
</event>
<event>
 5    1  0.6835419E-004  0.9118800E+02  0.7818608E-02  0.1130116E+00
         25   -1    0    0    0    0  0.00000000000E+00  0.00000000000E+00  0.99999998245E-14  0.12500000000E+03  0.12500000000E+03 0.  0.
        -13    1    3    3    0    0 -0.76208074789E+01  0.32788534299E+02  0.25045445262E+02  0.41957718962E+02  0.10566000000E+00 0.  1.
         23    2    1    0    0    0  0.18035918067E+02 -0.20579708072E+01  0.34284634703E+02  0.86206111808E+02  0.76983946066E+02 0.  0.
         13    1    3    3    0    0  0.25656725546E+02 -0.34846505106E+02  0.92391894412E+01  0.44248392845E+02  0.10566000000E+00 0. -1.
         22    1    1    0    0    0 -0.18035918067E+02  0.20579708072E+01 -0.34284634703E+02  0.38793888192E+02  0.00000000000E+00 0.  1.
</event>
<event>
 5    1  0.6835419E-004  0.9118800E+02  0.7818608E-02  0.1130116E+00
         25   -1    0    0    0    0  0.00000000000E+00  0.00000000000E+00  0.99999998245E-14  0.12500000000E+03  0.12500000000E+03 0.  0.
        -13    1    3    3    0    0 -0.20720119185E+02  0.41667428797E+02 -0.31491841057E+02  0.56189368913E+02  0.10566000000E+00 0. -1.
         23    2    1    0    0    0 -0.15083565901E+02  0.40416452674E+01 -0.26058030221E+02  0.94621227876E+02  0.89611980053E+02 0.  0.
         13    1    3    3    0    0  0.56365532841E+01 -0.37625783529E+02  0.54338108362E+01  0.38431858963E+02  0.10566000000E+00 0.  1.
         22    1    1    0    0    0  0.15083565901E+02 -0.40416452674E+01  0.26058030221E+02  0.30378772124E+02  0.00000000000E+00 0. -1.
</event>
<event>
 5    1  0.6835419E-004  0.9118800E+02  0.7818608E-02  0.1130116E+00
         25   -1    0    0    0    0  0.00000000000E+00  0.00000000000E+00  0.99999998245E-14  0.12500000000E+03  0.12500000000E+03 0.  0.
        -13    1    3    3    0    0  0.13295658420E+02 -0.15496731336E+02  0.55495086079E+02  0.59132385018E+02  0.10566000000E+00 0.  1.
         23    2    1    0    0    0  0.41443676046E+01  0.68301494489E+01  0.28780515990E+02  0.95131206502E+02  0.90320549299E+02 0.  0.
         13    1    3    3    0    0 -0.91512908156E+01  0.22326880785E+02 -0.26714570089E+02  0.35998821484E+02  0.10566000000E+00 0. -1.
         22    1    1    0    0    0 -0.41443676046E+01 -0.68301494489E+01 -0.28780515990E+02  0.29868793498E+02  0.00000000000E+00 0.  1.
</event>
<event>
 5    1  0.6835419E-004  0.9118800E+02  0.7818608E-02  0.1130116E+00
         25   -1    0    0    0    0  0.00000000000E+00  0.00000000000E+00  0.99999998245E-14  0.12500000000E+03  0.12500000000E+03 0.  0.
        -13    1    3    3    0    0 -0.22620250276E+02  0.64267236400E+01 -0.28232262655E+02  0.36743030876E+02  0.10566000000E+00 0.  1.
         23    2    1    0    0    0  0.23103615618E+02 -0.19756482295E+02 -0.15160492375E+02  0.91030363907E+02  0.84454668176E+02 0.  0.
         13    1    3    3    0    0  0.45723865894E+02 -0.26183205935E+02  0.13071770280E+02  0.54287333031E+02  0.10566000000E+00 0. -1.
         22    1    1    0    0    0 -0.23103615618E+02  0.19756482295E+02  0.15160492375E+02  0.33969636093E+02  0.00000000000E+00 0. -1.
</event>
<event>
 5    1  0.6835419E-004  0.9118800E+02  0.7818608E-02  0.1130116E+00
         25   -1    0    0    0    0  0.00000000000E+00  0.00000000000E+00  0.99999998245E-14  0.12500000000E+03  0.12500000000E+03 0.  0.
        -13    1    3    3    0    0  0.32561624969E+02 -0.75752660354E+01  0.98214357407E+01  0.34844165081E+02  0.10566000000E+00 0.  1.
         23    2    1    0    0    0 -0.19600243574E+02  0.59783491110E+01 -0.19938391297E+02  0.96408923529E+02  0.92071878890E+02 0.  0.
         13    1    3    3    0    0 -0.52161868543E+02  0.13553615146E+02 -0.29759827038E+02  0.61564758448E+02  0.10566000000E+00 0. -1.
         22    1    1    0    0    0  0.19600243574E+02 -0.59783491110E+01  0.19938391297E+02  0.28591076471E+02  0.00000000000E+00 0. -1.
</event>
<event>
 5    1  0.6835419E-004  0.9118800E+02  0.7818608E-02  0.1130116E+00
         25   -1    0    0    0    0  0.00000000000E+00  0.00000000000E+00  0.99999998245E-14  0.12500000000E+03  0.12500000000E+03 0.  0.
        -13    1    3    3    0    0  0.31695452149E+01  0.31061427383E+02  0.23463870225E+02  0.39056659584E+02  0.10566000000E+00 0.  1.
         23    2    1    0    0    0  0.16168638357E+02  0.59180340982E+01 -0.24681710859E+02  0.94906232459E+02  0.90008655777E+02 0.  0.
         13    1    3    3    0    0  0.12999093142E+02 -0.25143393284E+02 -0.48145581084E+02  0.55849572875E+02  0.10566000000E+00 0. -1.
         22    1    1    0    0    0 -0.16168638357E+02 -0.59180340982E+01  0.24681710859E+02  0.30093767541E+02  0.00000000000E+00 0. -1.
</event>
<event>
 5    1  0.6835419E-004  0.9118800E+02  0.7818608E-02  0.1130116E+00
         25   -1    0    0    0    0  0.00000000000E+00  0.00000000000E+00  0.99999998245E-14  0.12500000000E+03  0.12500000000E+03 0.  0.
        -13    1    3    3    0    0  0.11568293273E+02 -0.26909910134E+02 -0.25704234722E+02  0.38970341535E+02  0.10566000000E+00 0. -1.
         23    2    1    0    0    0  0.88310564424E+01  0.26764362744E+02 -0.62137009950E+01  0.96139494962E+02  0.91705363750E+02 0.  0.
         13    1    3    3    0    0 -0.27372368302E+01  0.53674272879E+02  0.19490533727E+02  0.57169153427E+02  0.10566000000E+00 0.  1.
         22    1    1    0    0    0 -0.88310564424E+01 -0.26764362744E+02  0.62137009950E+01  0.28860505038E+02  0.00000000000E+00 0.  1.
</event>
<event>
 5    1  0.6835419E-004  0.9118800E+02  0.7818608E-02  0.1130116E+00
         25   -1    0    0    0    0  0.00000000000E+00  0.00000000000E+00  0.99999998245E-14  0.12500000000E+03  0.12500000000E+03 0.  0.
        -13    1    3    3    0    0 -0.18176124393E+02  0.46235715315E+02  0.92193981252E+01  0.50528421056E+02  0.10566000000E+00 0.  1.
         23    2    1    0    0    0 -0.28653433003E+02  0.91650542248E+01 -0.96260339679E+01  0.93413959226E+02  0.87911829731E+02 0.  0.
         13    1    3    3    0    0 -0.10477308610E+02 -0.37070661090E+02 -0.18845432093E+02  0.42885538170E+02  0.10566000000E+00 0. -1.
         22    1    1    0    0    0  0.28653433003E+02 -0.91650542248E+01  0.96260339679E+01  0.31586040774E+02  0.00000000000E+00 0.  1.
</event>
<event>
 5    1  0.6835419E-004  0.9118800E+02  0.7818608E-02  0.1130116E+00
         25   -1    0    0    0    0  0.00000000000E+00  0.00000000000E+00  0.99999998245E-14  0.12500000000E+03  0.12500000000E+03 0.  0.
        -13    1    3    3    0    0  0.37573175366E+01  0.12459185118E+02 -0.27494547158E+02  0.30418908861E+02  0.10566000000E+00 0.  1.
         23    2    1    0    0    0 -0.39370531603E+02 -0.11488450944E+02 -0.97444568136E+01  0.82845786659E+02  0.71319328830E+02 0.  0.
         13    1    3    3    0    0 -0.43127849140E+02 -0.23947636062E+02  0.17750090344E+02  0.52426877798E+02  0.10566000000E+00 0. -1.
         22    1    1    0    0    0  0.39370531603E+02  0.11488450944E+02  0.97444568136E+01  0.42154213341E+02  0.00000000000E+00 0. -1.
</event>
<event>
 5    1  0.6835419E-004  0.9118800E+02  0.7818608E-02  0.1130116E+00
         25   -1    0    0    0    0  0.00000000000E+00  0.00000000000E+00  0.99999998245E-14  0.12500000000E+03  0.12500000000E+03 0.  0.
        -13    1    3    3    0    0 -0.46983764739E+02  0.19368421250E+02 -0.20327379105E+02  0.54734115468E+02  0.10566000000E+00 0. -1.
         23    2    1    0    0    0 -0.99701069445E+01  0.26818699449E+02 -0.14453905377E+02  0.92944406834E+02  0.87241628300E+02 0.  0.
         13    1    3    3    0    0  0.37013657795E+02  0.74502781988E+01  0.58734737280E+01  0.38210291366E+02  0.10566000000E+00 0.  1.
         22    1    1    0    0    0  0.99701069445E+01 -0.26818699449E+02  0.14453905377E+02  0.32055593166E+02  0.00000000000E+00 0. -1.
</event>
<event>
 5    1  0.6835419E-004  0.9118800E+02  0.7818608E-02  0.1130116E+00
         25   -1    0    0    0    0  0.00000000000E+00  0.00000000000E+00  0.99999998245E-14  0.12500000000E+03  0.12500000000E+03 0.  0.
        -13    1    3    3    0    0 -0.17768746191E+02  0.12493773854E+02  0.34453201388E+02  0.40729067952E+02  0.10566000000E+00 0.  1.
         23    2    1    0    0    0 -0.15999099173E+02 -0.17289509054E+02 -0.13974937710E+02  0.97610272333E+02  0.93688676388E+02 0.  0.
         13    1    3    3    0    0  0.17696470187E+01 -0.29783282908E+02 -0.48428139097E+02  0.56881204381E+02  0.10566000000E+00 0. -1.
         22    1    1    0    0    0  0.15999099173E+02  0.17289509054E+02  0.13974937710E+02  0.27389727667E+02  0.00000000000E+00 0. -1.
</event>
<event>
 5    1  0.6835419E-004  0.9118800E+02  0.7818608E-02  0.1130116E+00
         25   -1    0    0    0    0  0.00000000000E+00  0.00000000000E+00  0.99999998245E-14  0.12500000000E+03  0.12500000000E+03 0.  0.
        -13    1    3    3    0    0 -0.35795078305E+02  0.21055533434E+02  0.90215920264E+00  0.41538514349E+02  0.10566000000E+00 0. -1.
         23    2    1    0    0    0  0.19566113345E+02  0.19945962344E+02  0.26144986572E+01  0.96937394837E+02  0.92786576127E+02 0.  0.
         13    1    3    3    0    0  0.55361191650E+02 -0.11095710892E+01  0.17123394546E+01  0.55398880489E+02  0.10566000000E+00 0.  1.
         22    1    1    0    0    0 -0.19566113345E+02 -0.19945962344E+02 -0.26144986572E+01  0.28062605163E+02  0.00000000000E+00 0.  1.
</event>
<event>
 5    1  0.6835419E-004  0.9118800E+02  0.7818608E-02  0.1130116E+00
         25   -1    0    0    0    0  0.00000000000E+00  0.00000000000E+00  0.99999998245E-14  0.12500000000E+03  0.12500000000E+03 0.  0.
        -13    1    3    3    0    0  0.39487230164E+02 -0.89929466660E+01 -0.44283880216E+02  0.60009896241E+02  0.10566000000E+00 0. -1.
         23    2    1    0    0    0  0.10857106379E+02 -0.10007817983E+02 -0.28945155409E+02  0.92506074393E+02  0.86611307565E+02 0.  0.
         13    1    3    3    0    0 -0.28630123786E+02 -0.10148713170E+01  0.15338724807E+02  0.32496178152E+02  0.10566000000E+00 0.  1.
         22    1    1    0    0    0 -0.10857106379E+02  0.10007817983E+02  0.28945155409E+02  0.32493925607E+02  0.00000000000E+00 0. -1.
</event>
<event>
 5    1  0.6835419E-004  0.9118800E+02  0.7818608E-02  0.1130116E+00
         25   -1    0    0    0    0  0.00000000000E+00  0.00000000000E+00  0.99999998245E-14  0.12500000000E+03  0.12500000000E+03 0.  0.
        -13    1    3    3    0    0 -0.38965665873E+02 -0.16224751731E+02  0.10693353774E+02  0.43542217039E+02  0.10566000000E+00 0.  1.
         23    2    1    0    0    0  0.51166707467E+01  0.13054920669E+01 -0.22788450707E+02  0.10160773387E+03  0.98878377148E+02 0.  0.
         13    1    3    3    0    0  0.44082336620E+02  0.17530243797E+02 -0.33481804482E+02  0.58065516831E+02  0.10566000000E+00 0. -1.
         22    1    1    0    0    0 -0.51166707467E+01 -0.13054920669E+01  0.22788450707E+02  0.23392266130E+02  0.00000000000E+00 0. -1.
</event>
<event>
 5    1  0.6835419E-004  0.9118800E+02  0.7818608E-02  0.1130116E+00
         25   -1    0    0    0    0  0.00000000000E+00  0.00000000000E+00  0.99999998245E-14  0.12500000000E+03  0.12500000000E+03 0.  0.
        -13    1    3    3    0    0 -0.32638117440E+01  0.22418723545E+02  0.36775209838E+02  0.43193504779E+02  0.10566000000E+00 0.  1.
         23    2    1    0    0    0  0.15901716243E+02  0.19093993837E+02 -0.13230066974E+02  0.96848981328E+02  0.92667390878E+02 0.  0.
         13    1    3    3    0    0  0.19165527987E+02 -0.33247297078E+01 -0.50005276812E+02  0.53655476549E+02  0.10566000000E+00 0. -1.
         22    1    1    0    0    0 -0.15901716243E+02 -0.19093993837E+02  0.13230066974E+02  0.28151018672E+02  0.00000000000E+00 0. -1.
</event>
<event>
 5    1  0.6835419E-004  0.9118800E+02  0.7818608E-02  0.1130116E+00
         25   -1    0    0    0    0  0.00000000000E+00  0.00000000000E+00  0.99999998245E-14  0.12500000000E+03  0.12500000000E+03 0.  0.
        -13    1    3    3    0    0  0.54980703486E+01  0.54868124646E+02 -0.27315505032E+02  0.61537694618E+02  0.10566000000E+00 0. -1.
         23    2    1    0    0    0  0.96892531856E+00  0.28419432376E+02 -0.56915046466E+01  0.96000065897E+02  0.91515116097E+02 0.  0.
         13    1    3    3    0    0 -0.45291450300E+01 -0.26448692270E+02  0.21624000385E+02  0.34462371279E+02  0.10566000000E+00 0.  1.
         22    1    1    0    0    0 -0.96892531856E+00 -0.28419432376E+02  0.56915046466E+01  0.28999934103E+02  0.00000000000E+00 0. -1.
</event>
<event>
 5    1  0.6835419E-004  0.9118800E+02  0.7818608E-02  0.1130116E+00
         25   -1    0    0    0    0  0.00000000000E+00  0.00000000000E+00  0.99999998245E-14  0.12500000000E+03  0.12500000000E+03 0.  0.
        -13    1    3    3    0    0 -0.24222671433E+02 -0.21993703013E+02 -0.12722300029E+02  0.35104541952E+02  0.10566000000E+00 0. -1.
         23    2    1    0    0    0  0.16147749677E+02  0.15376527859E+02 -0.25032131114E+02  0.91476947980E+02  0.85113083571E+02 0.  0.
         13    1    3    3    0    0  0.40370421109E+02  0.37370230872E+02 -0.12309831085E+02  0.56372406028E+02  0.10566000000E+00 0.  1.
         22    1    1    0    0    0 -0.16147749677E+02 -0.15376527859E+02  0.25032131114E+02  0.33523052020E+02  0.00000000000E+00 0.  1.
</event>
<event>
 5    1  0.6835419E-004  0.9118800E+02  0.7818608E-02  0.1130116E+00
         25   -1    0    0    0    0  0.00000000000E+00  0.00000000000E+00  0.99999998245E-14  0.12500000000E+03  0.12500000000E+03 0.  0.
        -13    1    3    3    0    0 -0.61101440898E+01 -0.38482201797E+02  0.14751068817E+02  0.41663160121E+02  0.10566000000E+00 0. -1.
         23    2    1    0    0    0  0.10909548673E+02  0.19088501067E+02  0.37767525927E+01  0.10269186280E+03  0.10023954160E+03 0.  0.
         13    1    3    3    0    0  0.17019692763E+02  0.57570702864E+02 -0.10974316224E+02  0.61028702679E+02  0.10566000000E+00 0.  1.
         22    1    1    0    0    0 -0.10909548673E+02 -0.19088501067E+02 -0.37767525927E+01  0.22308137201E+02  0.00000000000E+00 0.  1.
</event>
<event>
 5    1  0.6835419E-004  0.9118800E+02  0.7818608E-02  0.1130116E+00
         25   -1    0    0    0    0  0.00000000000E+00  0.00000000000E+00  0.99999998245E-14  0.12500000000E+03  0.12500000000E+03 0.  0.
        -13    1    3    3    0    0  0.20152939573E+02  0.23939958201E+02  0.30133760392E+02  0.43443264742E+02  0.10566000000E+00 0. -1.
         23    2    1    0    0    0 -0.19412556849E+02 -0.59575721864E+01  0.24232154188E+02  0.93384539757E+02  0.87869988844E+02 0.  0.
         13    1    3    3    0    0 -0.39565496422E+02 -0.29897530387E+02 -0.59016062040E+01  0.49941275015E+02  0.10566000000E+00 0.  1.
         22    1    1    0    0    0  0.19412556849E+02  0.59575721864E+01 -0.24232154188E+02  0.31615460243E+02  0.00000000000E+00 0.  1.
</event>
<event>
 5    1  0.6835419E-004  0.9118800E+02  0.7818608E-02  0.1130116E+00
         25   -1    0    0    0    0  0.00000000000E+00  0.00000000000E+00  0.99999998245E-14  0.12500000000E+03  0.12500000000E+03 0.  0.
        -13    1    3    3    0    0 -0.22185850086E+02  0.30023145556E+02  0.12237213839E+02  0.39285643430E+02  0.10566000000E+00 0. -1.
         23    2    1    0    0    0 -0.27189416009E+02 -0.18867849366E+01 -0.24604846776E+02  0.88281846654E+02  0.80283632600E+02 0.  0.
         13    1    3    3    0    0 -0.50035659229E+01 -0.31909930492E+02 -0.36842060615E+02  0.48996203224E+02  0.10566000000E+00 0.  1.
         22    1    1    0    0    0  0.27189416009E+02  0.18867849366E+01  0.24604846776E+02  0.36718153346E+02  0.00000000000E+00 0.  1.
</event>
<event>
 5    1  0.6835419E-004  0.9118800E+02  0.7818608E-02  0.1130116E+00
         25   -1    0    0    0    0  0.00000000000E+00  0.00000000000E+00  0.99999998245E-14  0.12500000000E+03  0.12500000000E+03 0.  0.
        -13    1    3    3    0    0 -0.36693906455E+02  0.22051338012E+02 -0.44058531932E+02  0.61431829527E+02  0.10566000000E+00 0. -1.
         23    2    1    0    0    0 -0.10887682820E+02  0.15432754120E+02 -0.21871840466E+02  0.96102094500E+02  0.91654370464E+02 0.  0.
         13    1    3    3    0    0  0.25806223635E+02 -0.66185838920E+01  0.22186691466E+02  0.34670264973E+02  0.10566000000E+00 0.  1.
         22    1    1    0    0    0  0.10887682820E+02 -0.15432754120E+02  0.21871840466E+02  0.28897905500E+02  0.00000000000E+00 0. -1.
</event>
<event>
 5    1  0.6835419E-004  0.9118800E+02  0.7818608E-02  0.1130116E+00
         25   -1    0    0    0    0  0.00000000000E+00  0.00000000000E+00  0.99999998245E-14  0.12500000000E+03  0.12500000000E+03 0.  0.
        -13    1    3    3    0    0 -0.74367782774E+01 -0.54946780764E+02  0.14970118416E+02  0.57433178538E+02  0.10566000000E+00 0. -1.
         23    2    1    0    0    0 -0.15116868840E+02 -0.20450850455E+02  0.19349811952E+02  0.93044214445E+02  0.87384515855E+02 0.  0.
         13    1    3    3    0    0 -0.76800905621E+01  0.34495930309E+02  0.43796935355E+01  0.35611035907E+02  0.10566000000E+00 0.  1.
         22    1    1    0    0    0  0.15116868840E+02  0.20450850455E+02 -0.19349811952E+02  0.31955785555E+02  0.00000000000E+00 0. -1.
</event>
<event>
 5    1  0.6835419E-004  0.9118800E+02  0.7818608E-02  0.1130116E+00
         25   -1    0    0    0    0  0.00000000000E+00  0.00000000000E+00  0.99999998245E-14  0.12500000000E+03  0.12500000000E+03 0.  0.
        -13    1    3    3    0    0  0.30078214069E+02 -0.54456671978E+01 -0.52651608253E+02  0.60881501858E+02  0.10566000000E+00 0.  1.
         23    2    1    0    0    0  0.66405974294E+01  0.31907620598E+01 -0.28265953452E+02  0.95789682965E+02  0.91227302609E+02 0.  0.
         13    1    3    3    0    0 -0.23437616640E+02  0.86364292577E+01  0.24385654801E+02  0.34908181107E+02  0.10566000000E+00 0. -1.
         22    1    1    0    0    0 -0.66405974294E+01 -0.31907620598E+01  0.28265953452E+02  0.29210317035E+02  0.00000000000E+00 0.  1.
</event>
<event>
 5    1  0.6835419E-004  0.9118800E+02  0.7818608E-02  0.1130116E+00
         25   -1    0    0    0    0  0.00000000000E+00  0.00000000000E+00  0.99999998245E-14  0.12500000000E+03  0.12500000000E+03 0.  0.
        -13    1    3    3    0    0 -0.51024587300E+02 -0.25468762700E+02  0.14134896685E+02  0.58753492245E+02  0.10566000000E+00 0. -1.
         23    2    1    0    0    0 -0.31015976167E+02 -0.28819010884E+01 -0.34198615720E+01  0.93663255041E+02  0.88265586500E+02 0.  0.
         13    1    3    3    0    0  0.20008611133E+02  0.22586861612E+02 -0.17554758257E+02  0.34909762796E+02  0.10566000000E+00 0.  1.
         22    1    1    0    0    0  0.31015976167E+02  0.28819010884E+01  0.34198615720E+01  0.31336744959E+02  0.00000000000E+00 0. -1.
</event>
<event>
 5    1  0.6835419E-004  0.9118800E+02  0.7818608E-02  0.1130116E+00
         25   -1    0    0    0    0  0.00000000000E+00  0.00000000000E+00  0.99999998245E-14  0.12500000000E+03  0.12500000000E+03 0.  0.
        -13    1    3    3    0    0  0.86584602981E+01  0.17019189506E+02  0.57941948473E+02  0.61007395478E+02  0.10566000000E+00 0. -1.
         23    2    1    0    0    0 -0.87220193526E+00  0.15743620714E+02  0.24011851092E+02  0.96273856467E+02  0.91888324159E+02 0.  0.
         13    1    3    3    0    0 -0.95306622333E+01 -0.12755687920E+01 -0.33930097381E+02  0.35266460989E+02  0.10566000000E+00 0.  1.
         22    1    1    0    0    0  0.87220193526E+00 -0.15743620714E+02 -0.24011851092E+02  0.28726143533E+02  0.00000000000E+00 0. -1.
</event>
<event>
 5    1  0.6835419E-004  0.9118800E+02  0.7818608E-02  0.1130116E+00
         25   -1    0    0    0    0  0.00000000000E+00  0.00000000000E+00  0.99999998245E-14  0.12500000000E+03  0.12500000000E+03 0.  0.
        -13    1    3    3    0    0 -0.68913036671E+01  0.17149061630E+00 -0.36231408279E+02  0.36881507360E+02  0.10566000000E+00 0.  1.
         23    2    1    0    0    0  0.17177381192E+02  0.65255618513E+01  0.19674479133E+02  0.98079180710E+02  0.94312221782E+02 0.  0.
         13    1    3    3    0    0  0.24068684859E+02  0.63540712350E+01  0.55905887412E+02  0.61197673350E+02  0.10566000000E+00 0. -1.
         22    1    1    0    0    0 -0.17177381192E+02 -0.65255618513E+01 -0.19674479133E+02  0.26920819290E+02  0.00000000000E+00 0. -1.
</event>
<event>
 5    1  0.6835419E-004  0.9118800E+02  0.7818608E-02  0.1130116E+00
         25   -1    0    0    0    0  0.00000000000E+00  0.00000000000E+00  0.99999998245E-14  0.12500000000E+03  0.12500000000E+03 0.  0.
        -13    1    3    3    0    0 -0.17507635716E+02  0.54434068163E+02  0.23108891776E+02  0.61673471836E+02  0.10566000000E+00 0. -1.
         23    2    1    0    0    0 -0.31582518277E+01  0.28804996453E+02  0.69384729531E+01  0.95203275646E+02  0.90420235078E+02 0.  0.
         13    1    3    3    0    0  0.14349383888E+02 -0.25629071709E+02 -0.16170418823E+02  0.33529803811E+02  0.10566000000E+00 0.  1.
         22    1    1    0    0    0  0.31582518277E+01 -0.28804996453E+02 -0.69384729531E+01  0.29796724354E+02  0.00000000000E+00 0. -1.
</event>
<event>
 5    1  0.6835419E-004  0.9118800E+02  0.7818608E-02  0.1130116E+00
         25   -1    0    0    0    0  0.00000000000E+00  0.00000000000E+00  0.99999998245E-14  0.12500000000E+03  0.12500000000E+03 0.  0.
        -13    1    3    3    0    0 -0.33079314802E+02  0.33448505740E+02  0.17771497020E+02  0.50287979422E+02  0.10566000000E+00 0. -1.
         23    2    1    0    0    0  0.42436064729E+01  0.28745648655E+02 -0.67194298326E+01  0.95175995410E+02  0.90382514086E+02 0.  0.
         13    1    3    3    0    0  0.37322921275E+02 -0.47028570845E+01 -0.24490926852E+02  0.44888015988E+02  0.10566000000E+00 0.  1.
         22    1    1    0    0    0 -0.42436064729E+01 -0.28745648655E+02  0.67194298326E+01  0.29824004590E+02  0.00000000000E+00 0. -1.
</event>
<event>
 5    1  0.6835419E-004  0.9118800E+02  0.7818608E-02  0.1130116E+00
         25   -1    0    0    0    0  0.00000000000E+00  0.00000000000E+00  0.99999998245E-14  0.12500000000E+03  0.12500000000E+03 0.  0.
        -13    1    3    3    0    0  0.65111693966E+01 -0.59207280641E+02  0.17752472083E+02  0.62153510254E+02  0.10566000000E+00 0.  1.
         23    2    1    0    0    0  0.64597921561E+01 -0.27329456842E+02  0.11579926922E+02  0.94623646804E+02  0.89615354158E+02 0.  0.
         13    1    3    3    0    0 -0.51377240556E-01  0.31877823799E+02 -0.61725451615E+01  0.32470136550E+02  0.10566000000E+00 0. -1.
         22    1    1    0    0    0 -0.64597921561E+01  0.27329456842E+02 -0.11579926922E+02  0.30376353196E+02  0.00000000000E+00 0.  1.
</event>
<event>
 5    1  0.6835419E-004  0.9118800E+02  0.7818608E-02  0.1130116E+00
         25   -1    0    0    0    0  0.00000000000E+00  0.00000000000E+00  0.99999998245E-14  0.12500000000E+03  0.12500000000E+03 0.  0.
        -13    1    3    3    0    0  0.12621179036E+02 -0.37316036449E+02  0.91097076969E+00  0.39403321793E+02  0.10566000000E+00 0.  1.
         23    2    1    0    0    0 -0.50329081931E+01  0.97076773986E+01  0.26903814490E+02  0.95958918762E+02  0.91458896181E+02 0.  0.
         13    1    3    3    0    0 -0.17654087229E+02  0.47023713847E+02  0.25992843720E+02  0.56555596970E+02  0.10566000000E+00 0. -1.
         22    1    1    0    0    0  0.50329081931E+01 -0.97076773986E+01 -0.26903814490E+02  0.29041081238E+02  0.00000000000E+00 0. -1.
</event>
<event>
 5    1  0.6835419E-004  0.9118800E+02  0.7818608E-02  0.1130116E+00
         25   -1    0    0    0    0  0.00000000000E+00  0.00000000000E+00  0.99999998245E-14  0.12500000000E+03  0.12500000000E+03 0.  0.
        -13    1    3    3    0    0  0.33874245615E+02 -0.27662065708E+02 -0.38098571343E+02  0.58001437031E+02  0.10566000000E+00 0. -1.
         23    2    1    0    0    0  0.26366848586E+02 -0.13339032830E+02 -0.47398836768E+01  0.95073306256E+02  0.90240382114E+02 0.  0.
         13    1    3    3    0    0 -0.75073970289E+01  0.14323032879E+02  0.33358687666E+02  0.37071869225E+02  0.10566000000E+00 0.  1.
         22    1    1    0    0    0 -0.26366848586E+02  0.13339032830E+02  0.47398836768E+01  0.29926693744E+02  0.00000000000E+00 0. -1.
</event>
<event>
 5    1  0.6835419E-004  0.9118800E+02  0.7818608E-02  0.1130116E+00
         25   -1    0    0    0    0  0.00000000000E+00  0.00000000000E+00  0.99999998245E-14  0.12500000000E+03  0.12500000000E+03 0.  0.
        -13    1    3    3    0    0  0.32101883175E+02 -0.23952304434E+02 -0.44086276531E+02  0.59563871041E+02  0.10566000000E+00 0. -1.
         23    2    1    0    0    0  0.21361981556E+02 -0.22831877130E+02 -0.15540597599E+02  0.90083828345E+02  0.83041899582E+02 0.  0.
         13    1    3    3    0    0 -0.10739901619E+02  0.11204273034E+01  0.28545678931E+02  0.30519957304E+02  0.10566000000E+00 0.  1.
         22    1    1    0    0    0 -0.21361981556E+02  0.22831877130E+02  0.15540597599E+02  0.34916171655E+02  0.00000000000E+00 0. -1.
</event>
<event>
 5    1  0.6835419E-004  0.9118800E+02  0.7818608E-02  0.1130116E+00
         25   -1    0    0    0    0  0.00000000000E+00  0.00000000000E+00  0.99999998245E-14  0.12500000000E+03  0.12500000000E+03 0.  0.
        -13    1    3    3    0    0 -0.33574914556E+02  0.15144510940E+02 -0.46928372888E+02  0.59656637895E+02  0.10566000000E+00 0. -1.
         23    2    1    0    0    0 -0.22027142670E+02  0.15399121626E+02 -0.13704070912E+02  0.94831647035E+02  0.89905015203E+02 0.  0.
         13    1    3    3    0    0  0.11547771885E+02  0.25461068581E+00  0.33224301976E+02  0.35175009139E+02  0.10566000000E+00 0.  1.
         22    1    1    0    0    0  0.22027142670E+02 -0.15399121626E+02  0.13704070912E+02  0.30168352965E+02  0.00000000000E+00 0. -1.
</event>
<event>
 5    1  0.6835419E-004  0.9118800E+02  0.7818608E-02  0.1130116E+00
         25   -1    0    0    0    0  0.00000000000E+00  0.00000000000E+00  0.99999998245E-14  0.12500000000E+03  0.12500000000E+03 0.  0.
        -13    1    3    3    0    0 -0.16170979114E+02  0.18765077568E+02 -0.33237828045E+02  0.41453505024E+02  0.10566000000E+00 0.  1.
         23    2    1    0    0    0  0.78187684545E-01  0.24211873683E+02  0.17577011732E+02  0.95080570160E+02  0.90250443434E+02 0.  0.
         13    1    3    3    0    0  0.16249166798E+02  0.54467961151E+01  0.50814839776E+02  0.53627065136E+02  0.10566000000E+00 0. -1.
         22    1    1    0    0    0 -0.78187684545E-01 -0.24211873683E+02 -0.17577011732E+02  0.29919429840E+02  0.00000000000E+00 0. -1.
</event>
<event>
 5    1  0.6835419E-004  0.9118800E+02  0.7818608E-02  0.1130116E+00
         25   -1    0    0    0    0  0.00000000000E+00  0.00000000000E+00  0.99999998245E-14  0.12500000000E+03  0.12500000000E+03 0.  0.
        -13    1    3    3    0    0  0.39757051875E+02  0.33484258387E+02 -0.11011504150E+02  0.53132693524E+02  0.10566000000E+00 0.  1.
         23    2    1    0    0    0  0.12725580164E+02  0.17117104882E+02  0.18794098899E+02  0.96571953576E+02  0.92292948778E+02 0.  0.
         13    1    3    3    0    0 -0.27031471711E+02 -0.16367153505E+02  0.29805603049E+02  0.43439260052E+02  0.10566000000E+00 0. -1.
         22    1    1    0    0    0 -0.12725580164E+02 -0.17117104882E+02 -0.18794098899E+02  0.28428046424E+02  0.00000000000E+00 0.  1.
</event>
<event>
 5    1  0.6835419E-004  0.9118800E+02  0.7818608E-02  0.1130116E+00
         25   -1    0    0    0    0  0.00000000000E+00  0.00000000000E+00  0.99999998245E-14  0.12500000000E+03  0.12500000000E+03 0.  0.
        -13    1    3    3    0    0  0.11169358186E+02 -0.22300376532E+02 -0.31254764813E+02  0.39986658316E+02  0.10566000000E+00 0.  1.
         23    2    1    0    0    0 -0.27897027016E+02 -0.11910131208E+02  0.49642042653E+01  0.94263398599E+02  0.89111445111E+02 0.  0.
         13    1    3    3    0    0 -0.39066385202E+02  0.10390245324E+02  0.36218969078E+02  0.54276740283E+02  0.10566000000E+00 0. -1.
         22    1    1    0    0    0  0.27897027016E+02  0.11910131208E+02 -0.49642042653E+01  0.30736601401E+02  0.00000000000E+00 0. -1.
</event>
<event>
 5    1  0.6835419E-004  0.9118800E+02  0.7818608E-02  0.1130116E+00
         25   -1    0    0    0    0  0.00000000000E+00  0.00000000000E+00  0.99999998245E-14  0.12500000000E+03  0.12500000000E+03 0.  0.
        -13    1    3    3    0    0 -0.37109176442E+01  0.51004586103E+02 -0.26286231049E+02  0.57499702783E+02  0.10566000000E+00 0.  1.
         23    2    1    0    0    0 -0.11856944097E+02  0.19056624758E+02  0.39212398826E+01  0.10221583461E+03  0.99644160148E+02 0.  0.
         13    1    3    3    0    0 -0.81460264527E+01 -0.31947961345E+02  0.30207470932E+02  0.44716131823E+02  0.10566000000E+00 0. -1.
         22    1    1    0    0    0  0.11856944097E+02 -0.19056624758E+02 -0.39212398826E+01  0.22784165394E+02  0.00000000000E+00 0.  1.
</event>
<event>
 5    1  0.6835419E-004  0.9118800E+02  0.7818608E-02  0.1130116E+00
         25   -1    0    0    0    0  0.00000000000E+00  0.00000000000E+00  0.99999998245E-14  0.12500000000E+03  0.12500000000E+03 0.  0.
        -13    1    3    3    0    0 -0.16807915522E+02  0.30953128822E+02 -0.54259565276E+00  0.35226521005E+02  0.10566000000E+00 0. -1.
         23    2    1    0    0    0 -0.97284893247E+01 -0.27890524047E+02 -0.63765883875E+01  0.94781037152E+02  0.89834621878E+02 0.  0.
         13    1    3    3    0    0  0.70794261969E+01 -0.58843652869E+02 -0.58339927347E+01  0.59554516147E+02  0.10566000000E+00 0.  1.
         22    1    1    0    0    0  0.97284893247E+01  0.27890524047E+02  0.63765883875E+01  0.30218962848E+02  0.00000000000E+00 0.  1.
</event>
<event>
 5    1  0.6835419E-004  0.9118800E+02  0.7818608E-02  0.1130116E+00
         25   -1    0    0    0    0  0.00000000000E+00  0.00000000000E+00  0.99999998245E-14  0.12500000000E+03  0.12500000000E+03 0.  0.
        -13    1    3    3    0    0 -0.34686220075E+02  0.39582030035E+02  0.30882196520E+02  0.61021243766E+02  0.10566000000E+00 0.  1.
         23    2    1    0    0    0 -0.75390996741E+01  0.21928064698E+02  0.16968838732E+02  0.96266404102E+02  0.91878185798E+02 0.  0.
         13    1    3    3    0    0  0.27147120401E+02 -0.17653965337E+02 -0.13913357788E+02  0.35245160336E+02  0.10566000000E+00 0. -1.
         22    1    1    0    0    0  0.75390996741E+01 -0.21928064698E+02 -0.16968838732E+02  0.28733595898E+02  0.00000000000E+00 0.  1.
</event>
<event>
 5    1  0.6835419E-004  0.9118800E+02  0.7818608E-02  0.1130116E+00
         25   -1    0    0    0    0  0.00000000000E+00  0.00000000000E+00  0.99999998245E-14  0.12500000000E+03  0.12500000000E+03 0.  0.
        -13    1    3    3    0    0  0.34929289229E+02  0.24841769781E+02  0.88847532952E+01  0.43773494001E+02  0.10566000000E+00 0. -1.
         23    2    1    0    0    0 -0.16700278305E+01 -0.17535384609E+02 -0.12164266395E+02  0.10359327014E+03  0.10135737534E+03 0.  0.
         13    1    3    3    0    0 -0.36599317060E+02 -0.42377154390E+02 -0.21049019690E+02  0.59819776140E+02  0.10566000000E+00 0.  1.
         22    1    1    0    0    0  0.16700278305E+01  0.17535384609E+02  0.12164266395E+02  0.21406729860E+02  0.00000000000E+00 0.  1.
</event>
<event>
 5    1  0.6835419E-004  0.9118800E+02  0.7818608E-02  0.1130116E+00
         25   -1    0    0    0    0  0.00000000000E+00  0.00000000000E+00  0.99999998245E-14  0.12500000000E+03  0.12500000000E+03 0.  0.
        -13    1    3    3    0    0  0.86951081267E+01  0.10674302206E+02 -0.41711524334E+02  0.43925027709E+02  0.10566000000E+00 0. -1.
         23    2    1    0    0    0 -0.27907719170E+02 -0.28781940813E+01 -0.71775984496E+01  0.96040671452E+02  0.91570562208E+02 0.  0.
         13    1    3    3    0    0 -0.36602827297E+02 -0.13552496287E+02  0.34533925885E+02  0.52115643743E+02  0.10566000000E+00 0.  1.
         22    1    1    0    0    0  0.27907719170E+02  0.28781940813E+01  0.71775984496E+01  0.28959328548E+02  0.00000000000E+00 0.  1.
</event>
<event>
 5    1  0.6835419E-004  0.9118800E+02  0.7818608E-02  0.1130116E+00
         25   -1    0    0    0    0  0.00000000000E+00  0.00000000000E+00  0.99999998245E-14  0.12500000000E+03  0.12500000000E+03 0.  0.
        -13    1    3    3    0    0  0.13303055319E+02 -0.25033975744E+02 -0.25141066577E+02  0.37891365969E+02  0.10566000000E+00 0.  1.
         23    2    1    0    0    0 -0.27641817836E+01  0.27904134403E+02 -0.97057327049E+01  0.95327071849E+02  0.90591213493E+02 0.  0.
         13    1    3    3    0    0 -0.16067237102E+02  0.52938110147E+02  0.15435333872E+02  0.57435705879E+02  0.10566000000E+00 0. -1.
         22    1    1    0    0    0  0.27641817836E+01 -0.27904134403E+02  0.97057327049E+01  0.29672928151E+02  0.00000000000E+00 0. -1.
</event>
<event>
 5    1  0.6835419E-004  0.9118800E+02  0.7818608E-02  0.1130116E+00
         25   -1    0    0    0    0  0.00000000000E+00  0.00000000000E+00  0.99999998245E-14  0.12500000000E+03  0.12500000000E+03 0.  0.
        -13    1    3    3    0    0 -0.15182974619E+02 -0.44945693360E+02 -0.28031961726E+01  0.47523753458E+02  0.10566000000E+00 0.  1.
         23    2    1    0    0    0  0.16588995087E+02 -0.18000407274E+02 -0.20774312747E+02  0.92894214070E+02  0.87169682330E+02 0.  0.
         13    1    3    3    0    0  0.31771969706E+02  0.26945286085E+02 -0.17971116575E+02  0.45370460613E+02  0.10566000000E+00 0. -1.
         22    1    1    0    0    0 -0.16588995087E+02  0.18000407274E+02  0.20774312747E+02  0.32105785930E+02  0.00000000000E+00 0.  1.
</event>
<event>
 5    1  0.6835419E-004  0.9118800E+02  0.7818608E-02  0.1130116E+00
         25   -1    0    0    0    0  0.00000000000E+00  0.00000000000E+00  0.99999998245E-14  0.12500000000E+03  0.12500000000E+03 0.  0.
        -13    1    3    3    0    0 -0.19865136110E+02  0.47098358225E+02  0.94370775121E+00  0.51125147712E+02  0.10566000000E+00 0.  1.
         23    2    1    0    0    0 -0.11489497748E+02  0.12191961262E+02 -0.24638621667E+02  0.95205467691E+02  0.90423265384E+02 0.  0.
         13    1    3    3    0    0  0.83756383620E+01 -0.34906396964E+02 -0.25582329418E+02  0.44080319979E+02  0.10566000000E+00 0. -1.
         22    1    1    0    0    0  0.11489497748E+02 -0.12191961262E+02  0.24638621667E+02  0.29794532309E+02  0.00000000000E+00 0.  1.
</event>
<event>
 5    1  0.6835419E-004  0.9118800E+02  0.7818608E-02  0.1130116E+00
         25   -1    0    0    0    0  0.00000000000E+00  0.00000000000E+00  0.99999998245E-14  0.12500000000E+03  0.12500000000E+03 0.  0.
        -13    1    3    3    0    0 -0.28135903267E+01  0.40349341638E+02  0.14660130212E+02  0.43022276125E+02  0.10566000000E+00 0. -1.
         23    2    1    0    0    0  0.15345561023E+02  0.67094374517E+01 -0.22909339909E+02  0.96621475565E+02  0.92359996164E+02 0.  0.
         13    1    3    3    0    0  0.18159151350E+02 -0.33639904186E+02 -0.37569470121E+02  0.53599199440E+02  0.10566000000E+00 0.  1.
         22    1    1    0    0    0 -0.15345561023E+02 -0.67094374517E+01  0.22909339909E+02  0.28378524435E+02  0.00000000000E+00 0.  1.
</event>
<event>
 5    1  0.6835419E-004  0.9118800E+02  0.7818608E-02  0.1130116E+00
         25   -1    0    0    0    0  0.00000000000E+00  0.00000000000E+00  0.99999998245E-14  0.12500000000E+03  0.12500000000E+03 0.  0.
        -13    1    3    3    0    0  0.16908446086E+02  0.34053210863E+02 -0.16146469326E+02  0.41306613936E+02  0.10566000000E+00 0.  1.
         23    2    1    0    0    0  0.13477408079E+02 -0.22072958961E+02 -0.40771002496E+01  0.98818350085E+02  0.95286869617E+02 0.  0.
         13    1    3    3    0    0 -0.34310380075E+01 -0.56126169824E+02  0.12069369077E+02  0.57511736149E+02  0.10566000000E+00 0. -1.
         22    1    1    0    0    0 -0.13477408079E+02  0.22072958961E+02  0.40771002496E+01  0.26181649915E+02  0.00000000000E+00 0. -1.
</event>
<event>
 5    1  0.6835419E-004  0.9118800E+02  0.7818608E-02  0.1130116E+00
         25   -1    0    0    0    0  0.00000000000E+00  0.00000000000E+00  0.99999998245E-14  0.12500000000E+03  0.12500000000E+03 0.  0.
        -13    1    3    3    0    0  0.24673815731E+02 -0.45552008462E+01 -0.53222491335E+02  0.58840392465E+02  0.10566000000E+00 0. -1.
         23    2    1    0    0    0  0.14141955288E+02 -0.16575496858E+02 -0.21352493724E+02  0.94493099409E+02  0.89433074711E+02 0.  0.
         13    1    3    3    0    0 -0.10531860443E+02 -0.12020296012E+02  0.31869997612E+02  0.35652706944E+02  0.10566000000E+00 0.  1.
         22    1    1    0    0    0 -0.14141955288E+02  0.16575496858E+02  0.21352493724E+02  0.30506900591E+02  0.00000000000E+00 0. -1.
</event>
<event>
 5    1  0.6835419E-004  0.9118800E+02  0.7818608E-02  0.1130116E+00
         25   -1    0    0    0    0  0.00000000000E+00  0.00000000000E+00  0.99999998245E-14  0.12500000000E+03  0.12500000000E+03 0.  0.
        -13    1    3    3    0    0 -0.16198226495E+02  0.43608214035E+02  0.13931475494E+02  0.48560848905E+02  0.10566000000E+00 0.  1.
         23    2    1    0    0    0 -0.18622018335E+02  0.31260616048E+01 -0.17021207960E+02  0.99578093139E+02  0.96278363534E+02 0.  0.
         13    1    3    3    0    0 -0.24237918401E+01 -0.40482152430E+02 -0.30952683454E+02  0.51017244234E+02  0.10566000000E+00 0. -1.
         22    1    1    0    0    0  0.18622018335E+02 -0.31260616048E+01  0.17021207960E+02  0.25421906861E+02  0.00000000000E+00 0.  1.
</event>
<event>
 5    1  0.6835419E-004  0.9118800E+02  0.7818608E-02  0.1130116E+00
         25   -1    0    0    0    0  0.00000000000E+00  0.00000000000E+00  0.99999998245E-14  0.12500000000E+03  0.12500000000E+03 0.  0.
        -13    1    3    3    0    0  0.30483845522E+02 -0.22343425617E+02  0.58952932796E+01  0.38252570541E+02  0.10566000000E+00 0.  1.
         23    2    1    0    0    0  0.24105757715E+01  0.22413201554E+02 -0.17918038881E+02  0.96203844062E+02  0.91793033590E+02 0.  0.
         13    1    3    3    0    0 -0.28073269750E+02  0.44756627171E+02 -0.23813332161E+02  0.57951273522E+02  0.10566000000E+00 0. -1.
         22    1    1    0    0    0 -0.24105757715E+01 -0.22413201554E+02  0.17918038881E+02  0.28796155938E+02  0.00000000000E+00 0. -1.
</event>
<event>
 5    1  0.6835419E-004  0.9118800E+02  0.7818608E-02  0.1130116E+00
         25   -1    0    0    0    0  0.00000000000E+00  0.00000000000E+00  0.99999998245E-14  0.12500000000E+03  0.12500000000E+03 0.  0.
        -13    1    3    3    0    0 -0.11112816426E+02 -0.30503665327E+02 -0.17458265088E+02  0.36861503919E+02  0.10566000000E+00 0. -1.
         23    2    1    0    0    0  0.29723980618E+02  0.68755000127E+01 -0.15996776600E+01  0.94449279996E+02  0.89371807629E+02 0.  0.
         13    1    3    3    0    0  0.40836797043E+02  0.37379165339E+02  0.15858587428E+02  0.57587776077E+02  0.10566000000E+00 0.  1.
         22    1    1    0    0    0 -0.29723980618E+02 -0.68755000127E+01  0.15996776600E+01  0.30550720004E+02  0.00000000000E+00 0.  1.
</event>
<event>
 5    1  0.6835419E-004  0.9118800E+02  0.7818608E-02  0.1130116E+00
         25   -1    0    0    0    0  0.00000000000E+00  0.00000000000E+00  0.99999998245E-14  0.12500000000E+03  0.12500000000E+03 0.  0.
        -13    1    3    3    0    0  0.72759219510E+01 -0.23097533774E+02  0.54495748599E+02  0.59634158719E+02  0.10566000000E+00 0.  1.
         23    2    1    0    0    0  0.86097035558E+01 -0.20897074258E+02  0.18306544813E+02  0.95914878531E+02  0.91398685072E+02 0.  0.
         13    1    3    3    0    0  0.13337816048E+01  0.22004595168E+01 -0.36189203786E+02  0.36280719813E+02  0.10566000000E+00 0. -1.
         22    1    1    0    0    0 -0.86097035558E+01  0.20897074258E+02 -0.18306544813E+02  0.29085121469E+02  0.00000000000E+00 0.  1.
</event>
<event>
 5    1  0.6835419E-004  0.9118800E+02  0.7818608E-02  0.1130116E+00
         25   -1    0    0    0    0  0.00000000000E+00  0.00000000000E+00  0.99999998245E-14  0.12500000000E+03  0.12500000000E+03 0.  0.
        -13    1    3    3    0    0 -0.12557298323E+02 -0.17504051398E+01  0.42034137233E+02  0.43904777830E+02  0.10566000000E+00 0. -1.
         23    2    1    0    0    0  0.22619840571E+02 -0.18611095156E+02  0.11158428292E+02  0.93654496777E+02  0.88253182346E+02 0.  0.
         13    1    3    3    0    0  0.35177138894E+02 -0.16860690016E+02 -0.30875708941E+02  0.49749718947E+02  0.10566000000E+00 0.  1.
         22    1    1    0    0    0 -0.22619840571E+02  0.18611095156E+02 -0.11158428292E+02  0.31345503223E+02  0.00000000000E+00 0.  1.
</event>
<event>
 5    1  0.6835419E-004  0.9118800E+02  0.7818608E-02  0.1130116E+00
         25   -1    0    0    0    0  0.00000000000E+00  0.00000000000E+00  0.99999998245E-14  0.12500000000E+03  0.12500000000E+03 0.  0.
        -13    1    3    3    0    0  0.48517900286E+01 -0.26226649469E+02 -0.27446684126E+02  0.38271512152E+02  0.10566000000E+00 0.  1.
         23    2    1    0    0    0 -0.98333539475E+00  0.27752091677E+02 -0.12228187049E+02  0.94657388058E+02  0.89662405804E+02 0.  0.
         13    1    3    3    0    0 -0.58351254233E+01  0.53978741146E+02  0.15218497077E+02  0.56385875906E+02  0.10566000000E+00 0. -1.
         22    1    1    0    0    0  0.98333539475E+00 -0.27752091677E+02  0.12228187049E+02  0.30342611942E+02  0.00000000000E+00 0. -1.
</event>
<event>
 5    1  0.6835419E-004  0.9118800E+02  0.7818608E-02  0.1130116E+00
         25   -1    0    0    0    0  0.00000000000E+00  0.00000000000E+00  0.99999998245E-14  0.12500000000E+03  0.12500000000E+03 0.  0.
        -13    1    3    3    0    0  0.47782928132E+02  0.35250233705E+01  0.14365115323E+02  0.50020013124E+02  0.10566000000E+00 0.  1.
         23    2    1    0    0    0  0.54973984922E+01  0.23174013807E+02  0.15361687958E+02  0.96658550442E+02  0.92410159671E+02 0.  0.
         13    1    3    3    0    0 -0.42285529640E+02  0.19648990437E+02  0.99657263540E+00  0.46638537318E+02  0.10566000000E+00 0. -1.
         22    1    1    0    0    0 -0.54973984922E+01 -0.23174013807E+02 -0.15361687958E+02  0.28341449558E+02  0.00000000000E+00 0. -1.
</event>
<event>
 5    1  0.6835419E-004  0.9118800E+02  0.7818608E-02  0.1130116E+00
         25   -1    0    0    0    0  0.00000000000E+00  0.00000000000E+00  0.99999998245E-14  0.12500000000E+03  0.12500000000E+03 0.  0.
        -13    1    3    3    0    0  0.43364468995E+02 -0.13477687153E+02  0.27306040759E+02  0.52988265194E+02  0.10566000000E+00 0.  1.
         23    2    1    0    0    0  0.24386643328E+02 -0.16861610237E+02 -0.89325868023E+01  0.94035288156E+02  0.88790889392E+02 0.  0.
         13    1    3    3    0    0 -0.18977825667E+02 -0.33839230838E+01 -0.36238627562E+02  0.41047022962E+02  0.10566000000E+00 0. -1.
         22    1    1    0    0    0 -0.24386643328E+02  0.16861610237E+02  0.89325868023E+01  0.30964711844E+02  0.00000000000E+00 0.  1.
</event>
<event>
 5    1  0.6835419E-004  0.9118800E+02  0.7818608E-02  0.1130116E+00
         25   -1    0    0    0    0  0.00000000000E+00  0.00000000000E+00  0.99999998245E-14  0.12500000000E+03  0.12500000000E+03 0.  0.
        -13    1    3    3    0    0  0.39914484615E+01  0.19835709007E+02  0.30998770583E+02  0.37017859937E+02  0.10566000000E+00 0.  1.
         23    2    1    0    0    0  0.11614490873E+02 -0.27251398634E+02 -0.24477899648E+01  0.95275821265E+02  0.90520469046E+02 0.  0.
         13    1    3    3    0    0  0.76230424112E+01 -0.47087107641E+02 -0.33446560547E+02  0.58257961328E+02  0.10566000000E+00 0. -1.
         22    1    1    0    0    0 -0.11614490873E+02  0.27251398634E+02  0.24477899648E+01  0.29724178735E+02  0.00000000000E+00 0. -1.
</event>
<event>
 5    1  0.6835419E-004  0.9118800E+02  0.7818608E-02  0.1130116E+00
         25   -1    0    0    0    0  0.00000000000E+00  0.00000000000E+00  0.99999998245E-14  0.12500000000E+03  0.12500000000E+03 0.  0.
        -13    1    3    3    0    0 -0.16931283465E+02 -0.22642282298E+02 -0.44660875415E+02  0.52857792844E+02  0.10566000000E+00 0.  1.
         23    2    1    0    0    0 -0.27168180906E+02 -0.57737101959E+01 -0.55332737621E+01  0.96679284936E+02  0.92438202244E+02 0.  0.
         13    1    3    3    0    0 -0.10236897442E+02  0.16868572103E+02  0.39127601653E+02  0.43821492092E+02  0.10566000000E+00 0. -1.
         22    1    1    0    0    0  0.27168180906E+02  0.57737101959E+01  0.55332737621E+01  0.28320715064E+02  0.00000000000E+00 0.  1.
</event>
<event>
 5    1  0.6835419E-004  0.9118800E+02  0.7818608E-02  0.1130116E+00
         25   -1    0    0    0    0  0.00000000000E+00  0.00000000000E+00  0.99999998245E-14  0.12500000000E+03  0.12500000000E+03 0.  0.
        -13    1    3    3    0    0  0.20874886333E+02  0.96085207523E+01 -0.37987536770E+02  0.44397620030E+02  0.10566000000E+00 0.  1.
         23    2    1    0    0    0  0.98789309907E+01  0.24628196023E+02  0.10597348861E+02  0.96426496194E+02  0.92095733063E+02 0.  0.
         13    1    3    3    0    0 -0.10995955342E+02  0.15019675271E+02  0.48584885630E+02  0.52028876164E+02  0.10566000000E+00 0. -1.
         22    1    1    0    0    0 -0.98789309907E+01 -0.24628196023E+02 -0.10597348861E+02  0.28573503806E+02  0.00000000000E+00 0. -1.
</event>
<event>
 5    1  0.6835419E-004  0.9118800E+02  0.7818608E-02  0.1130116E+00
         25   -1    0    0    0    0  0.00000000000E+00  0.00000000000E+00  0.99999998245E-14  0.12500000000E+03  0.12500000000E+03 0.  0.
        -13    1    3    3    0    0 -0.36173518084E+02  0.33850050847E+01 -0.12177414086E+02  0.38318171249E+02  0.10566000000E+00 0.  1.
         23    2    1    0    0    0  0.17449529643E+02  0.22545688274E+02 -0.29184984160E+00  0.96488961421E+02  0.92180477083E+02 0.  0.
         13    1    3    3    0    0  0.53623047727E+02  0.19160683190E+02  0.11885564245E+02  0.58170790172E+02  0.10566000000E+00 0. -1.
         22    1    1    0    0    0 -0.17449529643E+02 -0.22545688274E+02  0.29184984160E+00  0.28511038579E+02  0.00000000000E+00 0. -1.
</event>
<event>
 5    1  0.6835419E-004  0.9118800E+02  0.7818608E-02  0.1130116E+00
         25   -1    0    0    0    0  0.00000000000E+00  0.00000000000E+00  0.99999998245E-14  0.12500000000E+03  0.12500000000E+03 0.  0.
        -13    1    3    3    0    0  0.48841934057E+02  0.12752989910E+02 -0.47249479478E+01  0.50700193010E+02  0.10566000000E+00 0. -1.
         23    2    1    0    0    0  0.13850466942E+02  0.57083783198E+01 -0.27952588836E+02  0.93286150656E+02  0.87729913166E+02 0.  0.
         13    1    3    3    0    0 -0.34991467116E+02 -0.70446115902E+01 -0.23227640888E+02  0.42585957646E+02  0.10566000000E+00 0.  1.
         22    1    1    0    0    0 -0.13850466942E+02 -0.57083783198E+01  0.27952588836E+02  0.31713849344E+02  0.00000000000E+00 0. -1.
</event>
<event>
 5    1  0.6835419E-004  0.9118800E+02  0.7818608E-02  0.1130116E+00
         25   -1    0    0    0    0  0.00000000000E+00  0.00000000000E+00  0.99999998245E-14  0.12500000000E+03  0.12500000000E+03 0.  0.
        -13    1    3    3    0    0  0.38877095276E+01  0.28066741418E+02  0.29216267356E+02  0.40699603210E+02  0.10566000000E+00 0.  1.
         23    2    1    0    0    0  0.27074201062E+02 -0.10673009318E+02 -0.23721185300E+01  0.95801499399E+02  0.91243492096E+02 0.  0.
         13    1    3    3    0    0  0.23186491534E+02 -0.38739750736E+02 -0.31588385886E+02  0.55101896189E+02  0.10566000000E+00 0. -1.
         22    1    1    0    0    0 -0.27074201062E+02  0.10673009318E+02  0.23721185300E+01  0.29198500601E+02  0.00000000000E+00 0. -1.
</event>
<event>
 5    1  0.6835419E-004  0.9118800E+02  0.7818608E-02  0.1130116E+00
         25   -1    0    0    0    0  0.00000000000E+00  0.00000000000E+00  0.99999998245E-14  0.12500000000E+03  0.12500000000E+03 0.  0.
        -13    1    3    3    0    0 -0.29011123731E+02  0.17930182813E+02 -0.51026568717E+02  0.61374739388E+02  0.10566000000E+00 0.  1.
         23    2    1    0    0    0 -0.60980054391E+01  0.51591471520E+01 -0.26629062563E+02  0.97198751060E+02  0.93138003870E+02 0.  0.
         13    1    3    3    0    0  0.22913118292E+02 -0.12771035661E+02  0.24397506154E+02  0.35824011672E+02  0.10566000000E+00 0. -1.
         22    1    1    0    0    0  0.60980054391E+01 -0.51591471520E+01  0.26629062563E+02  0.27801248940E+02  0.00000000000E+00 0.  1.
</event>
<event>
 5    1  0.6835419E-004  0.9118800E+02  0.7818608E-02  0.1130116E+00
         25   -1    0    0    0    0  0.00000000000E+00  0.00000000000E+00  0.99999998245E-14  0.12500000000E+03  0.12500000000E+03 0.  0.
        -13    1    3    3    0    0  0.18220466655E+02  0.37545658495E+02 -0.93936381355E+01  0.42777487986E+02  0.10566000000E+00 0.  1.
         23    2    1    0    0    0 -0.18354244431E+02 -0.50295353976E+01 -0.17078800181E+02  0.99429315016E+02  0.96085007956E+02 0.  0.
         13    1    3    3    0    0 -0.36574711086E+02 -0.42575193893E+02 -0.76851620457E+01  0.56651827029E+02  0.10566000000E+00 0. -1.
         22    1    1    0    0    0  0.18354244431E+02  0.50295353976E+01  0.17078800181E+02  0.25570684984E+02  0.00000000000E+00 0. -1.
</event>
<event>
 5    1  0.6835419E-004  0.9118800E+02  0.7818608E-02  0.1130116E+00
         25   -1    0    0    0    0  0.00000000000E+00  0.00000000000E+00  0.99999998245E-14  0.12500000000E+03  0.12500000000E+03 0.  0.
        -13    1    3    3    0    0  0.27829850760E+02  0.21604886099E+02 -0.39887401515E+02  0.53219241448E+02  0.10566000000E+00 0. -1.
         23    2    1    0    0    0  0.29103161822E+02  0.63640191118E+00 -0.29132907471E+01  0.95744465508E+02  0.91165324422E+02 0.  0.
         13    1    3    3    0    0  0.12733110626E+01 -0.20968484187E+02  0.36974110768E+02  0.42525224059E+02  0.10566000000E+00 0.  1.
         22    1    1    0    0    0 -0.29103161822E+02 -0.63640191118E+00  0.29132907471E+01  0.29255534492E+02  0.00000000000E+00 0. -1.
</event>
<event>
 5    1  0.6835419E-004  0.9118800E+02  0.7818608E-02  0.1130116E+00
         25   -1    0    0    0    0  0.00000000000E+00  0.00000000000E+00  0.99999998245E-14  0.12500000000E+03  0.12500000000E+03 0.  0.
        -13    1    3    3    0    0  0.44857579378E+02 -0.54280544231E+01  0.12998822456E+01  0.45203617779E+02  0.10566000000E+00 0. -1.
         23    2    1    0    0    0  0.31662249000E+01 -0.18855798695E+02 -0.22838210509E+02  0.95214936901E+02  0.90436354555E+02 0.  0.
         13    1    3    3    0    0 -0.41691354478E+02 -0.13427744272E+02 -0.24138092755E+02  0.50011319122E+02  0.10566000000E+00 0.  1.
         22    1    1    0    0    0 -0.31662249000E+01  0.18855798695E+02  0.22838210509E+02  0.29785063099E+02  0.00000000000E+00 0.  1.
</event>
<event>
 5    1  0.6835419E-004  0.9118800E+02  0.7818608E-02  0.1130116E+00
         25   -1    0    0    0    0  0.00000000000E+00  0.00000000000E+00  0.99999998245E-14  0.12500000000E+03  0.12500000000E+03 0.  0.
        -13    1    3    3    0    0 -0.40923419875E+02  0.30190650641E+02 -0.29162089868E+02  0.58622865248E+02  0.10566000000E+00 0.  1.
         23    2    1    0    0    0 -0.35108857717E+02  0.10014316665E+02 -0.26710408610E+02  0.79763241092E+02  0.65694826835E+02 0.  0.
         13    1    3    3    0    0  0.58145621584E+01 -0.20176333976E+02  0.24516812579E+01  0.21140375844E+02  0.10566000000E+00 0. -1.
         22    1    1    0    0    0  0.35108857717E+02 -0.10014316665E+02  0.26710408610E+02  0.45236758908E+02  0.00000000000E+00 0.  1.
</event>
<event>
 5    1  0.6835419E-004  0.9118800E+02  0.7818608E-02  0.1130116E+00
         25   -1    0    0    0    0  0.00000000000E+00  0.00000000000E+00  0.99999998245E-14  0.12500000000E+03  0.12500000000E+03 0.  0.
        -13    1    3    3    0    0  0.52188561428E+02 -0.46478276387E+01  0.29328345702E+02  0.60045076994E+02  0.10566000000E+00 0.  1.
         23    2    1    0    0    0  0.20759609540E+02 -0.13572618316E+02  0.16832175562E+02  0.95025018927E+02  0.90173470221E+02 0.  0.
         13    1    3    3    0    0 -0.31428951888E+02 -0.89247906769E+01 -0.12496170139E+02  0.34979941932E+02  0.10566000000E+00 0. -1.
         22    1    1    0    0    0 -0.20759609540E+02  0.13572618316E+02 -0.16832175562E+02  0.29974981073E+02  0.00000000000E+00 0.  1.
</event>
<event>
 5    1  0.6835419E-004  0.9118800E+02  0.7818608E-02  0.1130116E+00
         25   -1    0    0    0    0  0.00000000000E+00  0.00000000000E+00  0.99999998245E-14  0.12500000000E+03  0.12500000000E+03 0.  0.
        -13    1    3    3    0    0 -0.73139818038E+01 -0.40161480616E+01  0.30611034639E+02  0.31728069289E+02  0.10566000000E+00 0. -1.
         23    2    1    0    0    0  0.90165886135E+01 -0.94674488029E+01 -0.28686626028E+02  0.93474550441E+02  0.87997940943E+02 0.  0.
         13    1    3    3    0    0  0.16330570417E+02 -0.54513007413E+01 -0.59297660667E+02  0.61746481151E+02  0.10566000000E+00 0.  1.
         22    1    1    0    0    0 -0.90165886135E+01  0.94674488029E+01  0.28686626028E+02  0.31525449559E+02  0.00000000000E+00 0.  1.
</event>
<event>
 5    1  0.6835419E-004  0.9118800E+02  0.7818608E-02  0.1130116E+00
         25   -1    0    0    0    0  0.00000000000E+00  0.00000000000E+00  0.99999998245E-14  0.12500000000E+03  0.12500000000E+03 0.  0.
        -13    1    3    3    0    0 -0.43298501171E+02  0.10668700386E+01 -0.91896266565E+01  0.44275939487E+02  0.10566000000E+00 0.  1.
         23    2    1    0    0    0  0.34907067934E+01 -0.10219581138E+02 -0.27253099373E+02  0.95685220485E+02  0.91084055253E+02 0.  0.
         13    1    3    3    0    0  0.46789207965E+02 -0.11286451177E+02 -0.18063472717E+02  0.51409280998E+02  0.10566000000E+00 0. -1.
         22    1    1    0    0    0 -0.34907067934E+01  0.10219581138E+02  0.27253099373E+02  0.29314779515E+02  0.00000000000E+00 0. -1.
</event>
<event>
 5    1  0.6835419E-004  0.9118800E+02  0.7818608E-02  0.1130116E+00
         25   -1    0    0    0    0  0.00000000000E+00  0.00000000000E+00  0.99999998245E-14  0.12500000000E+03  0.12500000000E+03 0.  0.
        -13    1    3    3    0    0  0.20789811745E+02 -0.44743349647E+02  0.19746555217E+02  0.53142461526E+02  0.10566000000E+00 0. -1.
         23    2    1    0    0    0 -0.87087081173E+01 -0.28534856394E+02 -0.47749385375E+01  0.94786101468E+02  0.89841668322E+02 0.  0.
         13    1    3    3    0    0 -0.29498519862E+02  0.16208493254E+02 -0.24521493755E+02  0.41643639942E+02  0.10566000000E+00 0.  1.
         22    1    1    0    0    0  0.87087081173E+01  0.28534856394E+02  0.47749385375E+01  0.30213898532E+02  0.00000000000E+00 0. -1.
</event>
<event>
 5    1  0.6835419E-004  0.9118800E+02  0.7818608E-02  0.1130116E+00
         25   -1    0    0    0    0  0.00000000000E+00  0.00000000000E+00  0.99999998245E-14  0.12500000000E+03  0.12500000000E+03 0.  0.
        -13    1    3    3    0    0  0.25693529285E+02 -0.70324198689E+01 -0.77884361263E+01  0.27753977691E+02  0.10566000000E+00 0. -1.
         23    2    1    0    0    0 -0.31829133660E+02  0.14324926494E+02  0.26511070416E+01  0.89995348350E+02  0.82908606836E+02 0.  0.
         13    1    3    3    0    0 -0.57522662945E+02  0.21357346363E+02  0.10439543168E+02  0.62241370659E+02  0.10566000000E+00 0.  1.
         22    1    1    0    0    0  0.31829133660E+02 -0.14324926494E+02 -0.26511070416E+01  0.35004651650E+02  0.00000000000E+00 0.  1.
</event>
<event>
 5    1  0.6835419E-004  0.9118800E+02  0.7818608E-02  0.1130116E+00
         25   -1    0    0    0    0  0.00000000000E+00  0.00000000000E+00  0.99999998245E-14  0.12500000000E+03  0.12500000000E+03 0.  0.
        -13    1    3    3    0    0 -0.48396635540E+02 -0.38676037821E+02  0.38508220988E+01  0.62071815086E+02  0.10566000000E+00 0. -1.
         23    2    1    0    0    0 -0.20869491107E+02 -0.21187378242E+02  0.56255120720E+01  0.94733070160E+02  0.89767853601E+02 0.  0.
         13    1    3    3    0    0  0.27527144433E+02  0.17488659579E+02  0.17746899733E+01  0.32661255075E+02  0.10566000000E+00 0.  1.
         22    1    1    0    0    0  0.20869491107E+02  0.21187378242E+02 -0.56255120720E+01  0.30266929840E+02  0.00000000000E+00 0. -1.
</event>
<event>
 5    1  0.6835419E-004  0.9118800E+02  0.7818608E-02  0.1130116E+00
         25   -1    0    0    0    0  0.00000000000E+00  0.00000000000E+00  0.99999998245E-14  0.12500000000E+03  0.12500000000E+03 0.  0.
        -13    1    3    3    0    0  0.19222464286E+02  0.12335351714E+02 -0.31107438941E+02  0.38592071163E+02  0.10566000000E+00 0.  1.
         23    2    1    0    0    0 -0.29494208683E+01 -0.29647177178E+02 -0.27052688109E+00  0.95205245715E+02  0.90422958527E+02 0.  0.
         13    1    3    3    0    0 -0.22171885154E+02 -0.41982528892E+02  0.30836912060E+02  0.56613174552E+02  0.10566000000E+00 0. -1.
         22    1    1    0    0    0  0.29494208683E+01  0.29647177178E+02  0.27052688109E+00  0.29794754285E+02  0.00000000000E+00 0. -1.
</event>
<event>
 5    1  0.6835419E-004  0.9118800E+02  0.7818608E-02  0.1130116E+00
         25   -1    0    0    0    0  0.00000000000E+00  0.00000000000E+00  0.99999998245E-14  0.12500000000E+03  0.12500000000E+03 0.  0.
        -13    1    3    3    0    0 -0.33356874179E+02  0.18136642511E+02  0.18071373247E+02  0.42050024395E+02  0.10566000000E+00 0.  1.
         23    2    1    0    0    0 -0.77612372819E+01 -0.81939638631E+01 -0.24352603957E+02  0.98159225655E+02  0.94418252546E+02 0.  0.
         13    1    3    3    0    0  0.25595636897E+02 -0.26330606374E+02 -0.42423977204E+02  0.56109201260E+02  0.10566000000E+00 0. -1.
         22    1    1    0    0    0  0.77612372819E+01  0.81939638631E+01  0.24352603957E+02  0.26840774345E+02  0.00000000000E+00 0. -1.
</event>
<event>
 5    1  0.6835419E-004  0.9118800E+02  0.7818608E-02  0.1130116E+00
         25   -1    0    0    0    0  0.00000000000E+00  0.00000000000E+00  0.99999998245E-14  0.12500000000E+03  0.12500000000E+03 0.  0.
        -13    1    3    3    0    0  0.15221831349E+02  0.31581523562E+02 -0.14452219805E+02  0.37920635563E+02  0.10566000000E+00 0. -1.
         23    2    1    0    0    0 -0.22589679612E+01 -0.25672792726E+02 -0.73268026707E+01  0.98206768392E+02  0.94481173247E+02 0.  0.
         13    1    3    3    0    0 -0.17480799310E+02 -0.57254316289E+02  0.71254171345E+01  0.60286132830E+02  0.10566000000E+00 0.  1.
         22    1    1    0    0    0  0.22589679612E+01  0.25672792726E+02  0.73268026707E+01  0.26793231608E+02  0.00000000000E+00 0.  1.
</event>
<event>
 5    1  0.6835419E-004  0.9118800E+02  0.7818608E-02  0.1130116E+00
         25   -1    0    0    0    0  0.00000000000E+00  0.00000000000E+00  0.99999998245E-14  0.12500000000E+03  0.12500000000E+03 0.  0.
        -13    1    3    3    0    0  0.10639887979E+02  0.19722121463E+01  0.54727636319E+02  0.55787294056E+02  0.10566000000E+00 0.  1.
         23    2    1    0    0    0  0.23633148632E+02 -0.12174573159E+00  0.16609189686E+02  0.96113918260E+02  0.91670494517E+02 0.  0.
         13    1    3    3    0    0  0.12993260652E+02 -0.20939578779E+01 -0.38118446633E+02  0.40326624204E+02  0.10566000000E+00 0. -1.
         22    1    1    0    0    0 -0.23633148632E+02  0.12174573159E+00 -0.16609189686E+02  0.28886081740E+02  0.00000000000E+00 0.  1.
</event>
<event>
 5    1  0.6835419E-004  0.9118800E+02  0.7818608E-02  0.1130116E+00
         25   -1    0    0    0    0  0.00000000000E+00  0.00000000000E+00  0.99999998245E-14  0.12500000000E+03  0.12500000000E+03 0.  0.
        -13    1    3    3    0    0 -0.14875990232E+02 -0.46594666812E+02  0.18940159763E+01  0.48948508877E+02  0.10566000000E+00 0. -1.
         23    2    1    0    0    0  0.23332460269E+01 -0.97647746994E+01  0.26633640644E+02  0.96536941908E+02  0.92245517382E+02 0.  0.
         13    1    3    3    0    0  0.17209236259E+02  0.36829892113E+02  0.24739624668E+02  0.47588433032E+02  0.10566000000E+00 0.  1.
         22    1    1    0    0    0 -0.23332460269E+01  0.97647746994E+01 -0.26633640644E+02  0.28463058092E+02  0.00000000000E+00 0.  1.
</event>
<event>
 5    1  0.6835419E-004  0.9118800E+02  0.7818608E-02  0.1130116E+00
         25   -1    0    0    0    0  0.00000000000E+00  0.00000000000E+00  0.99999998245E-14  0.12500000000E+03  0.12500000000E+03 0.  0.
        -13    1    3    3    0    0 -0.51268254781E+02  0.30779576859E+01  0.21299754645E+02  0.55602144597E+02  0.10566000000E+00 0. -1.
         23    2    1    0    0    0 -0.15112984019E+02  0.20412706539E+02  0.12670806554E+02  0.96616374211E+02  0.92353091734E+02 0.  0.
         13    1    3    3    0    0  0.36155270762E+02  0.17334748853E+02 -0.86289480911E+01  0.41014229614E+02  0.10566000000E+00 0.  1.
         22    1    1    0    0    0  0.15112984019E+02 -0.20412706539E+02 -0.12670806554E+02  0.28383625789E+02  0.00000000000E+00 0.  1.
</event>
<event>
 5    1  0.6835419E-004  0.9118800E+02  0.7818608E-02  0.1130116E+00
         25   -1    0    0    0    0  0.00000000000E+00  0.00000000000E+00  0.99999998245E-14  0.12500000000E+03  0.12500000000E+03 0.  0.
        -13    1    3    3    0    0  0.13261591607E+01 -0.20724280891E+02 -0.44088930990E+02  0.48734992731E+02  0.10566000000E+00 0. -1.
         23    2    1    0    0    0 -0.26334355986E+02  0.12629671392E+01 -0.13979346952E+02  0.95158493127E+02  0.90358304997E+02 0.  0.
         13    1    3    3    0    0 -0.27660515147E+02  0.21987248030E+02  0.30109584038E+02  0.46423500397E+02  0.10566000000E+00 0.  1.
         22    1    1    0    0    0  0.26334355986E+02 -0.12629671392E+01  0.13979346952E+02  0.29841506873E+02  0.00000000000E+00 0.  1.
</event>
<event>
 5    1  0.6835419E-004  0.9118800E+02  0.7818608E-02  0.1130116E+00
         25   -1    0    0    0    0  0.00000000000E+00  0.00000000000E+00  0.99999998245E-14  0.12500000000E+03  0.12500000000E+03 0.  0.
        -13    1    3    3    0    0  0.96108721704E+01  0.54400549608E+02  0.19248305896E+02  0.58500402609E+02  0.10566000000E+00 0. -1.
         23    2    1    0    0    0  0.47789931939E+01  0.27561280883E+02 -0.68000856343E+01  0.96212778104E+02  0.91805198796E+02 0.  0.
         13    1    3    3    0    0 -0.48318789765E+01 -0.26839268725E+02 -0.26048391530E+02  0.37712375495E+02  0.10566000000E+00 0.  1.
         22    1    1    0    0    0 -0.47789931939E+01 -0.27561280883E+02  0.68000856343E+01  0.28787221896E+02  0.00000000000E+00 0. -1.
</event>
<event>
 5    1  0.6835419E-004  0.9118800E+02  0.7818608E-02  0.1130116E+00
         25   -1    0    0    0    0  0.00000000000E+00  0.00000000000E+00  0.99999998245E-14  0.12500000000E+03  0.12500000000E+03 0.  0.
        -13    1    3    3    0    0  0.24910153992E+02 -0.44627356958E+02 -0.10310088460E+02  0.52138525574E+02  0.10566000000E+00 0.  1.
         23    2    1    0    0    0 -0.18302753125E+01 -0.14112778672E+02 -0.25773387333E+02  0.95558737728E+02  0.90910309822E+02 0.  0.
         13    1    3    3    0    0 -0.26740429304E+02  0.30514578286E+02 -0.15463298873E+02  0.43420212153E+02  0.10566000000E+00 0. -1.
         22    1    1    0    0    0  0.18302753125E+01  0.14112778672E+02  0.25773387333E+02  0.29441262272E+02  0.00000000000E+00 0.  1.
</event>
<event>
 5    1  0.6835419E-004  0.9118800E+02  0.7818608E-02  0.1130116E+00
         25   -1    0    0    0    0  0.00000000000E+00  0.00000000000E+00  0.99999998245E-14  0.12500000000E+03  0.12500000000E+03 0.  0.
        -13    1    3    3    0    0 -0.34816603227E+02 -0.50855318990E+00  0.47498924612E+00  0.34823716997E+02  0.10566000000E+00 0.  1.
         23    2    1    0    0    0  0.24616602696E+02 -0.15227644545E+02  0.22903290241E-01  0.96054209093E+02  0.91589040137E+02 0.  0.
         13    1    3    3    0    0  0.59433205923E+02 -0.14719091355E+02 -0.45208595588E+00  0.61230492096E+02  0.10566000000E+00 0. -1.
         22    1    1    0    0    0 -0.24616602696E+02  0.15227644545E+02 -0.22903290241E-01  0.28945790907E+02  0.00000000000E+00 0. -1.
</event>
<event>
 5    1  0.6835419E-004  0.9118800E+02  0.7818608E-02  0.1130116E+00
         25   -1    0    0    0    0  0.00000000000E+00  0.00000000000E+00  0.99999998245E-14  0.12500000000E+03  0.12500000000E+03 0.  0.
        -13    1    3    3    0    0 -0.16559583363E+02 -0.22421138252E+02 -0.23609074229E+00  0.27874614698E+02  0.10566000000E+00 0. -1.
         23    2    1    0    0    0  0.19122297742E+02  0.27100564908E+02 -0.11405608413E+02  0.89925924210E+02  0.82803870999E+02 0.  0.
         13    1    3    3    0    0  0.35681881105E+02  0.49521703161E+02 -0.11169517671E+02  0.62051309512E+02  0.10566000000E+00 0.  1.
         22    1    1    0    0    0 -0.19122297742E+02 -0.27100564908E+02  0.11405608413E+02  0.35074075790E+02  0.00000000000E+00 0.  1.
</event>
<event>
 5    1  0.6835419E-004  0.9118800E+02  0.7818608E-02  0.1130116E+00
         25   -1    0    0    0    0  0.00000000000E+00  0.00000000000E+00  0.99999998245E-14  0.12500000000E+03  0.12500000000E+03 0.  0.
        -13    1    3    3    0    0 -0.42004458072E+01  0.27886152169E+02  0.20511590439E+02  0.34871445828E+02  0.10566000000E+00 0. -1.
         23    2    1    0    0    0 -0.17205595413E+02 -0.12615410425E+02 -0.21537046307E+02  0.94684567340E+02  0.89700288935E+02 0.  0.
         13    1    3    3    0    0 -0.13005149605E+02 -0.40501562594E+02 -0.42048636746E+02  0.59813121512E+02  0.10566000000E+00 0.  1.
         22    1    1    0    0    0  0.17205595413E+02  0.12615410425E+02  0.21537046307E+02  0.30315432660E+02  0.00000000000E+00 0.  1.
</event>
<event>
 5    1  0.6835419E-004  0.9118800E+02  0.7818608E-02  0.1130116E+00
         25   -1    0    0    0    0  0.00000000000E+00  0.00000000000E+00  0.99999998245E-14  0.12500000000E+03  0.12500000000E+03 0.  0.
        -13    1    3    3    0    0  0.21232622000E+02 -0.25782310358E+01 -0.26431912569E+02  0.34001892276E+02  0.10566000000E+00 0.  1.
         23    2    1    0    0    0 -0.27338662404E+02  0.89475788541E+01  0.85868544618E+01  0.94980078299E+02  0.90111151223E+02 0.  0.
         13    1    3    3    0    0 -0.48571284404E+02  0.11525809890E+02  0.35018767031E+02  0.60978186023E+02  0.10566000000E+00 0. -1.
         22    1    1    0    0    0  0.27338662404E+02 -0.89475788541E+01 -0.85868544618E+01  0.30019921701E+02  0.00000000000E+00 0. -1.
</event>
<event>
 5    1  0.6835419E-004  0.9118800E+02  0.7818608E-02  0.1130116E+00
         25   -1    0    0    0    0  0.00000000000E+00  0.00000000000E+00  0.99999998245E-14  0.12500000000E+03  0.12500000000E+03 0.  0.
        -13    1    3    3    0    0  0.48802564431E+02 -0.31353797881E+02  0.16133179218E+02  0.60208318132E+02  0.10566000000E+00 0.  1.
         23    2    1    0    0    0  0.23351189218E+02 -0.55820335315E+01  0.15475809341E+02  0.96435374832E+02  0.92107783102E+02 0.  0.
         13    1    3    3    0    0 -0.25451375213E+02  0.25771764349E+02 -0.65736987704E+00  0.36227056699E+02  0.10566000000E+00 0. -1.
         22    1    1    0    0    0 -0.23351189218E+02  0.55820335315E+01 -0.15475809341E+02  0.28564625168E+02  0.00000000000E+00 0.  1.
</event>
<event>
 5    1  0.6835419E-004  0.9118800E+02  0.7818608E-02  0.1130116E+00
         25   -1    0    0    0    0  0.00000000000E+00  0.00000000000E+00  0.99999998245E-14  0.12500000000E+03  0.12500000000E+03 0.  0.
        -13    1    3    3    0    0  0.18641430042E+02  0.42529054582E+02  0.37269481127E+02  0.59541991780E+02  0.10566000000E+00 0. -1.
         23    2    1    0    0    0  0.18820524276E+02  0.21172704013E+02  0.84005420083E+01  0.95452332828E+02  0.90763887131E+02 0.  0.
         13    1    3    3    0    0  0.17909423427E+00 -0.21356350569E+02 -0.28868939118E+02  0.35910341048E+02  0.10566000000E+00 0.  1.
         22    1    1    0    0    0 -0.18820524276E+02 -0.21172704013E+02 -0.84005420083E+01  0.29547667172E+02  0.00000000000E+00 0. -1.
</event>
<event>
 5    1  0.6835419E-004  0.9118800E+02  0.7818608E-02  0.1130116E+00
         25   -1    0    0    0    0  0.00000000000E+00  0.00000000000E+00  0.99999998245E-14  0.12500000000E+03  0.12500000000E+03 0.  0.
        -13    1    3    3    0    0  0.96306571225E+01 -0.37046472637E+02 -0.33420316536E+02  0.50814559064E+02  0.10566000000E+00 0.  1.
         23    2    1    0    0    0 -0.76924547664E+01 -0.33172565814E+02  0.24730037764E+01  0.90857523073E+02  0.84198460606E+02 0.  0.
         13    1    3    3    0    0 -0.17323111889E+02  0.38739068228E+01  0.35893320313E+02  0.40042964010E+02  0.10566000000E+00 0. -1.
         22    1    1    0    0    0  0.76924547664E+01  0.33172565814E+02 -0.24730037764E+01  0.34142476927E+02  0.00000000000E+00 0.  1.
</event>
<event>
 5    1  0.6835419E-004  0.9118800E+02  0.7818608E-02  0.1130116E+00
         25   -1    0    0    0    0  0.00000000000E+00  0.00000000000E+00  0.99999998245E-14  0.12500000000E+03  0.12500000000E+03 0.  0.
        -13    1    3    3    0    0  0.93604792149E+01  0.54580114062E+02  0.15545908236E+02  0.57517769855E+02  0.10566000000E+00 0. -1.
         23    2    1    0    0    0 -0.10717945647E+02  0.38185608309E+02  0.77267412800E+01  0.84593099951E+02  0.74318739142E+02 0.  0.
         13    1    3    3    0    0 -0.20078424862E+02 -0.16394505754E+02 -0.78191669560E+01  0.27075330095E+02  0.10566000000E+00 0.  1.
         22    1    1    0    0    0  0.10717945647E+02 -0.38185608309E+02 -0.77267412800E+01  0.40406900049E+02  0.00000000000E+00 0. -1.
</event>
<event>
 5    1  0.6835419E-004  0.9118800E+02  0.7818608E-02  0.1130116E+00
         25   -1    0    0    0    0  0.00000000000E+00  0.00000000000E+00  0.99999998245E-14  0.12500000000E+03  0.12500000000E+03 0.  0.
        -13    1    3    3    0    0 -0.21356655597E+02 -0.10017251530E+02  0.25417816242E+02  0.34677494330E+02  0.10566000000E+00 0. -1.
         23    2    1    0    0    0  0.17318764931E+02 -0.21530748987E+01 -0.22351874729E+02  0.96641903200E+02  0.92387638783E+02 0.  0.
         13    1    3    3    0    0  0.38675420528E+02  0.78641766315E+01 -0.47769690971E+02  0.61964408869E+02  0.10566000000E+00 0.  1.
         22    1    1    0    0    0 -0.17318764931E+02  0.21530748987E+01  0.22351874729E+02  0.28358096800E+02  0.00000000000E+00 0.  1.
</event>
<event>
 5    1  0.6835419E-004  0.9118800E+02  0.7818608E-02  0.1130116E+00
         25   -1    0    0    0    0  0.00000000000E+00  0.00000000000E+00  0.99999998245E-14  0.12500000000E+03  0.12500000000E+03 0.  0.
        -13    1    3    3    0    0  0.19162123955E+02 -0.15621638190E+02 -0.22841886268E+02  0.33659850067E+02  0.10566000000E+00 0. -1.
         23    2    1    0    0    0  0.13850343134E+02  0.28215266456E+02  0.13444379686E+02  0.90813970525E+02  0.84133778182E+02 0.  0.
         13    1    3    3    0    0 -0.53117808208E+01  0.43836904647E+02  0.36286265953E+02  0.57154120458E+02  0.10566000000E+00 0.  1.
         22    1    1    0    0    0 -0.13850343134E+02 -0.28215266456E+02 -0.13444379686E+02  0.34186029475E+02  0.00000000000E+00 0.  1.
</event>
<event>
 5    1  0.6835419E-004  0.9118800E+02  0.7818608E-02  0.1130116E+00
         25   -1    0    0    0    0  0.00000000000E+00  0.00000000000E+00  0.99999998245E-14  0.12500000000E+03  0.12500000000E+03 0.  0.
        -13    1    3    3    0    0  0.21426015501E+02  0.50936954940E+02  0.26327327699E+02  0.61211002823E+02  0.10566000000E+00 0.  1.
         23    2    1    0    0    0  0.17078936432E+02  0.26085173583E+02  0.68664289433E+01  0.93073926065E+02  0.87427006790E+02 0.  0.
         13    1    3    3    0    0 -0.43470790694E+01 -0.24851781358E+02 -0.19460898755E+02  0.31862923242E+02  0.10566000000E+00 0. -1.
         22    1    1    0    0    0 -0.17078936432E+02 -0.26085173583E+02 -0.68664289433E+01  0.31926073935E+02  0.00000000000E+00 0.  1.
</event>
<event>
 5    1  0.6835419E-004  0.9118800E+02  0.7818608E-02  0.1130116E+00
         25   -1    0    0    0    0  0.00000000000E+00  0.00000000000E+00  0.99999998245E-14  0.12500000000E+03  0.12500000000E+03 0.  0.
        -13    1    3    3    0    0 -0.24074188807E+02  0.14076158499E+02 -0.14206505637E+02  0.31297616064E+02  0.10566000000E+00 0.  1.
         23    2    1    0    0    0  0.23104024914E+02 -0.48508591919E+01  0.21219391639E+02  0.93257451525E+02  0.87689012318E+02 0.  0.
         13    1    3    3    0    0  0.47178213721E+02 -0.18927017690E+02  0.35425897277E+02  0.61959835462E+02  0.10566000000E+00 0. -1.
         22    1    1    0    0    0 -0.23104024914E+02  0.48508591919E+01 -0.21219391639E+02  0.31742548475E+02  0.00000000000E+00 0. -1.
</event>
<event>
 5    1  0.6835419E-004  0.9118800E+02  0.7818608E-02  0.1130116E+00
         25   -1    0    0    0    0  0.00000000000E+00  0.00000000000E+00  0.99999998245E-14  0.12500000000E+03  0.12500000000E+03 0.  0.
        -13    1    3    3    0    0 -0.18708960163E+02 -0.27483603050E+02  0.20030533928E+02  0.38815036783E+02  0.10566000000E+00 0.  1.
         23    2    1    0    0    0  0.29047741559E+02 -0.70481636711E+01 -0.15600989852E+01  0.95068715202E+02  0.90234022411E+02 0.  0.
         13    1    3    3    0    0  0.47756701723E+02  0.20435439379E+02 -0.21590632913E+02  0.56253678419E+02  0.10566000000E+00 0. -1.
         22    1    1    0    0    0 -0.29047741559E+02  0.70481636711E+01  0.15600989852E+01  0.29931284798E+02  0.00000000000E+00 0. -1.
</event>
<event>
 5    1  0.6835419E-004  0.9118800E+02  0.7818608E-02  0.1130116E+00
         25   -1    0    0    0    0  0.00000000000E+00  0.00000000000E+00  0.99999998245E-14  0.12500000000E+03  0.12500000000E+03 0.  0.
        -13    1    3    3    0    0  0.80318556567E+01 -0.30655453966E+02 -0.24910504946E+02  0.40308956621E+02  0.10566000000E+00 0. -1.
         23    2    1    0    0    0  0.23118211541E+02  0.14827695336E+02  0.53986703014E+01  0.97009682123E+02  0.92883908890E+02 0.  0.
         13    1    3    3    0    0  0.15086355884E+02  0.45483149302E+02  0.30309175248E+02  0.56700725502E+02  0.10566000000E+00 0.  1.
         22    1    1    0    0    0 -0.23118211541E+02 -0.14827695336E+02 -0.53986703014E+01  0.27990317877E+02  0.00000000000E+00 0.  1.
</event>
<event>
 5    1  0.6835419E-004  0.9118800E+02  0.7818608E-02  0.1130116E+00
         25   -1    0    0    0    0  0.00000000000E+00  0.00000000000E+00  0.99999998245E-14  0.12500000000E+03  0.12500000000E+03 0.  0.
        -13    1    3    3    0    0 -0.44664285463E+02 -0.24017246554E+02 -0.23916261499E+02  0.56068933074E+02  0.10566000000E+00 0.  1.
         23    2    1    0    0    0 -0.50819004601E+01 -0.22000474700E+02 -0.17961371038E+02  0.96147661293E+02  0.91716494281E+02 0.  0.
         13    1    3    3    0    0  0.39582385002E+02  0.20167718537E+01  0.59548904614E+01  0.40078728219E+02  0.10566000000E+00 0. -1.
         22    1    1    0    0    0  0.50819004601E+01  0.22000474700E+02  0.17961371038E+02  0.28852338707E+02  0.00000000000E+00 0.  1.
</event>
<event>
 5    1  0.6835419E-004  0.9118800E+02  0.7818608E-02  0.1130116E+00
         25   -1    0    0    0    0  0.00000000000E+00  0.00000000000E+00  0.99999998245E-14  0.12500000000E+03  0.12500000000E+03 0.  0.
        -13    1    3    3    0    0  0.29911623570E+02 -0.20650908731E+02 -0.17221597485E+02  0.40221385356E+02  0.10566000000E+00 0.  1.
         23    2    1    0    0    0 -0.14672896920E+02 -0.32623967503E+02 -0.14292927909E+02  0.86478513166E+02  0.77424984931E+02 0.  0.
         13    1    3    3    0    0 -0.44584520490E+02 -0.11973058773E+02  0.29286695765E+01  0.46257127810E+02  0.10566000000E+00 0. -1.
         22    1    1    0    0    0  0.14672896920E+02  0.32623967503E+02  0.14292927909E+02  0.38521486834E+02  0.00000000000E+00 0. -1.
</event>
<event>
 5    1  0.6835419E-004  0.9118800E+02  0.7818608E-02  0.1130116E+00
         25   -1    0    0    0    0  0.00000000000E+00  0.00000000000E+00  0.99999998245E-14  0.12500000000E+03  0.12500000000E+03 0.  0.
        -13    1    3    3    0    0 -0.23714364166E+02 -0.10613167713E+02 -0.29562954003E+02  0.39357207855E+02  0.10566000000E+00 0. -1.
         23    2    1    0    0    0  0.26430793414E+02 -0.12503420058E+02 -0.46101163137E+01  0.95399737736E+02  0.90691424258E+02 0.  0.
         13    1    3    3    0    0  0.50145157580E+02 -0.18902523452E+01  0.24952837690E+02  0.56042529881E+02  0.10566000000E+00 0.  1.
         22    1    1    0    0    0 -0.26430793414E+02  0.12503420058E+02  0.46101163137E+01  0.29600262264E+02  0.00000000000E+00 0.  1.
</event>
<event>
 5    1  0.6835419E-004  0.9118800E+02  0.7818608E-02  0.1130116E+00
         25   -1    0    0    0    0  0.00000000000E+00  0.00000000000E+00  0.99999998245E-14  0.12500000000E+03  0.12500000000E+03 0.  0.
        -13    1    3    3    0    0  0.29073112393E+02 -0.10037864747E+02 -0.18333176067E+02  0.35806718666E+02  0.10566000000E+00 0.  1.
         23    2    1    0    0    0 -0.88605976788E+01  0.26832880504E+02  0.89899205738E+01  0.95346461606E+02  0.90617964010E+02 0.  0.
         13    1    3    3    0    0 -0.37933710072E+02  0.36870745251E+02  0.27323096641E+02  0.59539742939E+02  0.10566000000E+00 0. -1.
         22    1    1    0    0    0  0.88605976788E+01 -0.26832880504E+02 -0.89899205738E+01  0.29653538394E+02  0.00000000000E+00 0. -1.
</event>
<event>
 5    1  0.6835419E-004  0.9118800E+02  0.7818608E-02  0.1130116E+00
         25   -1    0    0    0    0  0.00000000000E+00  0.00000000000E+00  0.99999998245E-14  0.12500000000E+03  0.12500000000E+03 0.  0.
        -13    1    3    3    0    0 -0.15221356295E+02  0.42783961757E+02  0.30284838809E+01  0.45511975893E+02  0.10566000000E+00 0. -1.
         23    2    1    0    0    0 -0.21817098438E+02 -0.18422714075E+01 -0.19269725981E+02  0.95833202308E+02  0.91286913504E+02 0.  0.
         13    1    3    3    0    0 -0.65957421428E+01 -0.44626233164E+02 -0.22298209862E+02  0.50321226415E+02  0.10566000000E+00 0.  1.
         22    1    1    0    0    0  0.21817098438E+02  0.18422714075E+01  0.19269725981E+02  0.29166797692E+02  0.00000000000E+00 0. -1.
</event>
<event>
 5    1  0.6835419E-004  0.9118800E+02  0.7818608E-02  0.1130116E+00
         25   -1    0    0    0    0  0.00000000000E+00  0.00000000000E+00  0.99999998245E-14  0.12500000000E+03  0.12500000000E+03 0.  0.
        -13    1    3    3    0    0  0.35914890015E+02  0.48654237705E+02  0.41340091797E+01  0.60615306379E+02  0.10566000000E+00 0. -1.
         23    2    1    0    0    0  0.89520004111E+01  0.26268652422E+02 -0.49307003667E+01  0.96813261672E+02  0.92619195732E+02 0.  0.
         13    1    3    3    0    0 -0.26962889604E+02 -0.22385585283E+02 -0.90647095464E+01  0.36197955294E+02  0.10566000000E+00 0.  1.
         22    1    1    0    0    0 -0.89520004111E+01 -0.26268652422E+02  0.49307003667E+01  0.28186738328E+02  0.00000000000E+00 0. -1.
</event>
<event>
 5    1  0.6835419E-004  0.9118800E+02  0.7818608E-02  0.1130116E+00
         25   -1    0    0    0    0  0.00000000000E+00  0.00000000000E+00  0.99999998245E-14  0.12500000000E+03  0.12500000000E+03 0.  0.
        -13    1    3    3    0    0  0.30951796486E+02  0.15195813402E+02  0.32542243490E+02  0.47412395278E+02  0.10566000000E+00 0. -1.
         23    2    1    0    0    0  0.23187564258E+02 -0.14891123520E+02 -0.58753936216E+01  0.96823255225E+02  0.92632682171E+02 0.  0.
         13    1    3    3    0    0 -0.77642322275E+01 -0.30086936922E+02 -0.38417637111E+02  0.49410859947E+02  0.10566000000E+00 0.  1.
         22    1    1    0    0    0 -0.23187564258E+02  0.14891123520E+02  0.58753936216E+01  0.28176744775E+02  0.00000000000E+00 0.  1.
</event>
<event>
 5    1  0.6835419E-004  0.9118800E+02  0.7818608E-02  0.1130116E+00
         25   -1    0    0    0    0  0.00000000000E+00  0.00000000000E+00  0.99999998245E-14  0.12500000000E+03  0.12500000000E+03 0.  0.
        -13    1    3    3    0    0 -0.27444428353E+02 -0.61987353243E+01  0.52952335178E+02  0.59963171464E+02  0.10566000000E+00 0.  1.
         23    2    1    0    0    0 -0.89631349096E+01  0.92167862892E+01  0.25292545697E+02  0.96627481523E+02  0.92368124268E+02 0.  0.
         13    1    3    3    0    0  0.18481293443E+02  0.15415521613E+02 -0.27659789481E+02  0.36664310059E+02  0.10566000000E+00 0. -1.
         22    1    1    0    0    0  0.89631349096E+01 -0.92167862892E+01 -0.25292545697E+02  0.28372518477E+02  0.00000000000E+00 0.  1.
</event>
<event>
 5    1  0.6835419E-004  0.9118800E+02  0.7818608E-02  0.1130116E+00
         25   -1    0    0    0    0  0.00000000000E+00  0.00000000000E+00  0.99999998245E-14  0.12500000000E+03  0.12500000000E+03 0.  0.
        -13    1    3    3    0    0  0.26956529212E+02 -0.41374683984E+02 -0.38079768366E+02  0.62358631037E+02  0.10566000000E+00 0. -1.
         23    2    1    0    0    0  0.92643566634E+01 -0.18739898989E+02 -0.14050275410E+02  0.99812257791E+02  0.96581905385E+02 0.  0.
         13    1    3    3    0    0 -0.17692172549E+02  0.22634784996E+02  0.24029492956E+02  0.37453626754E+02  0.10566000000E+00 0.  1.
         22    1    1    0    0    0 -0.92643566634E+01  0.18739898989E+02  0.14050275410E+02  0.25187742209E+02  0.00000000000E+00 0. -1.
</event>
<event>
 5    1  0.6835419E-004  0.9118800E+02  0.7818608E-02  0.1130116E+00
         25   -1    0    0    0    0  0.00000000000E+00  0.00000000000E+00  0.99999998245E-14  0.12500000000E+03  0.12500000000E+03 0.  0.
        -13    1    3    3    0    0 -0.14992847658E+02 -0.24087967827E+02 -0.26577472636E+02  0.38876585378E+02  0.10566000000E+00 0. -1.
         23    2    1    0    0    0  0.27538846475E+02  0.64619144918E+01 -0.22331318881E+01  0.96625164633E+02  0.92364988812E+02 0.  0.
         13    1    3    3    0    0  0.42531694133E+02  0.30549882319E+02  0.24344340747E+02  0.57748579255E+02  0.10566000000E+00 0.  1.
         22    1    1    0    0    0 -0.27538846475E+02 -0.64619144918E+01  0.22331318881E+01  0.28374835367E+02  0.00000000000E+00 0.  1.
</event>
<event>
 5    1  0.6835419E-004  0.9118800E+02  0.7818608E-02  0.1130116E+00
         25   -1    0    0    0    0  0.00000000000E+00  0.00000000000E+00  0.99999998245E-14  0.12500000000E+03  0.12500000000E+03 0.  0.
        -13    1    3    3    0    0 -0.24916189323E+01 -0.46189317809E+02 -0.34914936877E+02  0.57954509969E+02  0.10566000000E+00 0. -1.
         23    2    1    0    0    0 -0.15426222459E+02 -0.23682470186E+02 -0.73969807758E+01  0.95784540769E+02  0.91220256479E+02 0.  0.
         13    1    3    3    0    0 -0.12934603527E+02  0.22506847622E+02  0.27517956101E+02  0.37830030800E+02  0.10566000000E+00 0.  1.
         22    1    1    0    0    0  0.15426222459E+02  0.23682470186E+02  0.73969807758E+01  0.29215459231E+02  0.00000000000E+00 0. -1.
</event>
<event>
 5    1  0.6835419E-004  0.9118800E+02  0.7818608E-02  0.1130116E+00
         25   -1    0    0    0    0  0.00000000000E+00  0.00000000000E+00  0.99999998245E-14  0.12500000000E+03  0.12500000000E+03 0.  0.
        -13    1    3    3    0    0 -0.10610197222E+02 -0.14643656521E+02 -0.41186149190E+02  0.44981362925E+02  0.10566000000E+00 0.  1.
         23    2    1    0    0    0  0.37363691435E+01  0.25598155450E+02 -0.14778522063E+02  0.95206867718E+02  0.90425200743E+02 0.  0.
         13    1    3    3    0    0  0.14346566366E+02  0.40241811971E+02  0.26407627127E+02  0.50225504793E+02  0.10566000000E+00 0. -1.
         22    1    1    0    0    0 -0.37363691435E+01 -0.25598155450E+02  0.14778522063E+02  0.29793132282E+02  0.00000000000E+00 0. -1.
</event>
<event>
 5    1  0.6835419E-004  0.9118800E+02  0.7818608E-02  0.1130116E+00
         25   -1    0    0    0    0  0.00000000000E+00  0.00000000000E+00  0.99999998245E-14  0.12500000000E+03  0.12500000000E+03 0.  0.
        -13    1    3    3    0    0  0.54999502969E+00  0.23823658564E+02  0.55709443489E+02  0.60592264026E+02  0.10566000000E+00 0. -1.
         23    2    1    0    0    0  0.11053621650E+02  0.10024721777E+02  0.23832062460E+02  0.96881593228E+02  0.92711370970E+02 0.  0.
         13    1    3    3    0    0  0.10503626621E+02 -0.13798936787E+02 -0.31877381029E+02  0.36289329203E+02  0.10566000000E+00 0.  1.
         22    1    1    0    0    0 -0.11053621650E+02 -0.10024721777E+02 -0.23832062460E+02  0.28118406772E+02  0.00000000000E+00 0. -1.
</event>
<event>
 5    1  0.6835419E-004  0.9118800E+02  0.7818608E-02  0.1130116E+00
         25   -1    0    0    0    0  0.00000000000E+00  0.00000000000E+00  0.99999998245E-14  0.12500000000E+03  0.12500000000E+03 0.  0.
        -13    1    3    3    0    0 -0.39262007038E+02  0.46152556714E+02 -0.57768627798E+01  0.60868275772E+02  0.10566000000E+00 0.  1.
         23    2    1    0    0    0 -0.25404830008E+02  0.14569089888E+02 -0.43985479699E+01  0.95385628621E+02  0.90671975579E+02 0.  0.
         13    1    3    3    0    0  0.13857177030E+02 -0.31583466826E+02  0.13783148099E+01  0.34517352849E+02  0.10566000000E+00 0. -1.
         22    1    1    0    0    0  0.25404830008E+02 -0.14569089888E+02  0.43985479699E+01  0.29614371379E+02  0.00000000000E+00 0.  1.
</event>
<event>
 5    1  0.6835419E-004  0.9118800E+02  0.7818608E-02  0.1130116E+00
         25   -1    0    0    0    0  0.00000000000E+00  0.00000000000E+00  0.99999998245E-14  0.12500000000E+03  0.12500000000E+03 0.  0.
        -13    1    3    3    0    0  0.10263841252E+02 -0.24216875727E+02 -0.15432254661E+02  0.30495395639E+02  0.10566000000E+00 0. -1.
         23    2    1    0    0    0  0.16233167764E+02  0.15822101976E+02  0.27405286614E+02  0.89434505753E+02  0.82058676801E+02 0.  0.
         13    1    3    3    0    0  0.59693265118E+01  0.40038977703E+02  0.42837541276E+02  0.58939110114E+02  0.10566000000E+00 0.  1.
         22    1    1    0    0    0 -0.16233167764E+02 -0.15822101976E+02 -0.27405286614E+02  0.35565494247E+02  0.00000000000E+00 0.  1.
</event>
<event>
 5    1  0.6835419E-004  0.9118800E+02  0.7818608E-02  0.1130116E+00
         25   -1    0    0    0    0  0.00000000000E+00  0.00000000000E+00  0.99999998245E-14  0.12500000000E+03  0.12500000000E+03 0.  0.
        -13    1    3    3    0    0  0.45356330023E+02  0.10498761905E+02  0.24567572178E+02  0.52640264451E+02  0.10566000000E+00 0. -1.
         23    2    1    0    0    0  0.16483727291E+02 -0.20087928154E+02  0.10107882429E+02  0.97117973350E+02  0.93029529384E+02 0.  0.
         13    1    3    3    0    0 -0.28872602732E+02 -0.30586690059E+02 -0.14459689749E+02  0.44477708899E+02  0.10566000000E+00 0.  1.
         22    1    1    0    0    0 -0.16483727291E+02  0.20087928154E+02 -0.10107882429E+02  0.27882026650E+02  0.00000000000E+00 0. -1.
</event>
<event>
 5    1  0.6835419E-004  0.9118800E+02  0.7818608E-02  0.1130116E+00
         25   -1    0    0    0    0  0.00000000000E+00  0.00000000000E+00  0.99999998245E-14  0.12500000000E+03  0.12500000000E+03 0.  0.
        -13    1    3    3    0    0 -0.11154622131E+02 -0.33056089447E+02  0.18909837927E+02  0.39682789454E+02  0.10566000000E+00 0.  1.
         23    2    1    0    0    0  0.11522552574E+02 -0.73462377220E+01 -0.25669600566E+02  0.95919683294E+02  0.91405255995E+02 0.  0.
         13    1    3    3    0    0  0.22677174705E+02  0.25709851725E+02 -0.44579438493E+02  0.56236893840E+02  0.10566000000E+00 0. -1.
         22    1    1    0    0    0 -0.11522552574E+02  0.73462377220E+01  0.25669600566E+02  0.29080316706E+02  0.00000000000E+00 0. -1.
</event>
<event>
 5    1  0.6835419E-004  0.9118800E+02  0.7818608E-02  0.1130116E+00
         25   -1    0    0    0    0  0.00000000000E+00  0.00000000000E+00  0.99999998245E-14  0.12500000000E+03  0.12500000000E+03 0.  0.
        -13    1    3    3    0    0  0.17010527727E+02  0.47905879987E+02 -0.22223681730E+01  0.50884982806E+02  0.10566000000E+00 0. -1.
         23    2    1    0    0    0  0.17140252549E+02  0.13133961056E+02  0.22702725782E+02  0.93667860776E+02  0.88272108811E+02 0.  0.
         13    1    3    3    0    0  0.12972482222E+00 -0.34771918931E+02  0.24925093955E+02  0.42782877970E+02  0.10566000000E+00 0.  1.
         22    1    1    0    0    0 -0.17140252549E+02 -0.13133961056E+02 -0.22702725782E+02  0.31332139224E+02  0.00000000000E+00 0. -1.
</event>
<event>
 5    1  0.6835419E-004  0.9118800E+02  0.7818608E-02  0.1130116E+00
         25   -1    0    0    0    0  0.00000000000E+00  0.00000000000E+00  0.99999998245E-14  0.12500000000E+03  0.12500000000E+03 0.  0.
        -13    1    3    3    0    0 -0.59826694324E+01 -0.17826105258E+02  0.31624238995E+02  0.36792200508E+02  0.10566000000E+00 0.  1.
         23    2    1    0    0    0  0.30499817632E+02  0.57563353816E+01 -0.49375980884E+01  0.93571443757E+02  0.88135469246E+02 0.  0.
         13    1    3    3    0    0  0.36482487065E+02  0.23582440639E+02 -0.36561837083E+02  0.56779243249E+02  0.10566000000E+00 0. -1.
         22    1    1    0    0    0 -0.30499817632E+02 -0.57563353816E+01  0.49375980884E+01  0.31428556243E+02  0.00000000000E+00 0. -1.
</event>
<event>
 5    1  0.6835419E-004  0.9118800E+02  0.7818608E-02  0.1130116E+00
         25   -1    0    0    0    0  0.00000000000E+00  0.00000000000E+00  0.99999998245E-14  0.12500000000E+03  0.12500000000E+03 0.  0.
        -13    1    3    3    0    0  0.15208677889E+02 -0.19232629388E+02  0.27456244944E+02  0.36811064461E+02  0.10566000000E+00 0. -1.
         23    2    1    0    0    0 -0.27062714317E+02 -0.30127278528E+01 -0.10423129063E+02  0.95843377171E+02  0.91300844973E+02 0.  0.
         13    1    3    3    0    0 -0.42271392206E+02  0.16219901535E+02 -0.37879374007E+02  0.59032312711E+02  0.10566000000E+00 0.  1.
         22    1    1    0    0    0  0.27062714317E+02  0.30127278528E+01  0.10423129063E+02  0.29156622829E+02  0.00000000000E+00 0.  1.
</event>
<event>
 5    1  0.6835419E-004  0.9118800E+02  0.7818608E-02  0.1130116E+00
         25   -1    0    0    0    0  0.00000000000E+00  0.00000000000E+00  0.99999998245E-14  0.12500000000E+03  0.12500000000E+03 0.  0.
        -13    1    3    3    0    0  0.24640867647E+02  0.19422904125E+02 -0.47770429854E+02  0.57152836286E+02  0.10566000000E+00 0.  1.
         23    2    1    0    0    0  0.20526258513E+00 -0.26843834345E+01 -0.30546855913E+02  0.94334735394E+02  0.89211455814E+02 0.  0.
         13    1    3    3    0    0 -0.24435605062E+02 -0.22107287560E+02  0.17223573941E+02  0.37181899108E+02  0.10566000000E+00 0. -1.
         22    1    1    0    0    0 -0.20526258513E+00  0.26843834345E+01  0.30546855913E+02  0.30665264606E+02  0.00000000000E+00 0.  1.
</event>
<event>
 5    1  0.6835419E-004  0.9118800E+02  0.7818608E-02  0.1130116E+00
         25   -1    0    0    0    0  0.00000000000E+00  0.00000000000E+00  0.99999998245E-14  0.12500000000E+03  0.12500000000E+03 0.  0.
        -13    1    3    3    0    0 -0.24239122952E+02 -0.33055614995E+02  0.39591869361E+02  0.56988911621E+02  0.10566000000E+00 0.  1.
         23    2    1    0    0    0 -0.95061307276E+01  0.13134820908E+01  0.26837826369E+02  0.96498058297E+02  0.92192811945E+02 0.  0.
         13    1    3    3    0    0  0.14732992224E+02  0.34369097086E+02 -0.12754042992E+02  0.39509146676E+02  0.10566000000E+00 0. -1.
         22    1    1    0    0    0  0.95061307276E+01 -0.13134820908E+01 -0.26837826369E+02  0.28501941703E+02  0.00000000000E+00 0.  1.
</event>
<event>
 5    1  0.6835419E-004  0.9118800E+02  0.7818608E-02  0.1130116E+00
         25   -1    0    0    0    0  0.00000000000E+00  0.00000000000E+00  0.99999998245E-14  0.12500000000E+03  0.12500000000E+03 0.  0.
        -13    1    3    3    0    0  0.20117510370E+02 -0.50883870487E+02 -0.23603841749E+02  0.59590561405E+02  0.10566000000E+00 0. -1.
         23    2    1    0    0    0  0.17671792035E+02 -0.28164957957E+02 -0.26308884936E+02  0.82600536359E+02  0.70888180184E+02 0.  0.
         13    1    3    3    0    0 -0.24457183348E+01  0.22718912530E+02 -0.27050431874E+01  0.23009974955E+02  0.10566000000E+00 0.  1.
         22    1    1    0    0    0 -0.17671792035E+02  0.28164957957E+02  0.26308884936E+02  0.42399463641E+02  0.00000000000E+00 0. -1.
</event>
<event>
 5    1  0.6835419E-004  0.9118800E+02  0.7818608E-02  0.1130116E+00
         25   -1    0    0    0    0  0.00000000000E+00  0.00000000000E+00  0.99999998245E-14  0.12500000000E+03  0.12500000000E+03 0.  0.
        -13    1    3    3    0    0  0.22756510230E+01  0.95619290522E+01  0.57370065861E+02  0.58206053772E+02  0.10566000000E+00 0. -1.
         23    2    1    0    0    0 -0.92059350314E+01  0.16399443490E+02  0.21771182396E+02  0.96230652258E+02  0.91829532638E+02 0.  0.
         13    1    3    3    0    0 -0.11481586054E+02  0.68375144375E+01 -0.35598883465E+02  0.38024598486E+02  0.10566000000E+00 0.  1.
         22    1    1    0    0    0  0.92059350314E+01 -0.16399443490E+02 -0.21771182396E+02  0.28769347742E+02  0.00000000000E+00 0. -1.
</event>
<event>
 5    1  0.6835419E-004  0.9118800E+02  0.7818608E-02  0.1130116E+00
         25   -1    0    0    0    0  0.00000000000E+00  0.00000000000E+00  0.99999998245E-14  0.12500000000E+03  0.12500000000E+03 0.  0.
        -13    1    3    3    0    0  0.45230958762E+02 -0.15500684922E+02 -0.11939354463E+02  0.49281540282E+02  0.10566000000E+00 0.  1.
         23    2    1    0    0    0  0.27995703791E+00 -0.19834731024E+02 -0.21821569342E+02  0.95509733482E+02  0.90842904899E+02 0.  0.
         13    1    3    3    0    0 -0.44951001724E+02 -0.43340461024E+01 -0.98822148787E+01  0.46228193200E+02  0.10566000000E+00 0. -1.
         22    1    1    0    0    0 -0.27995703791E+00  0.19834731024E+02  0.21821569342E+02  0.29490266518E+02  0.00000000000E+00 0.  1.
</event>
<event>
 5    1  0.6835419E-004  0.9118800E+02  0.7818608E-02  0.1130116E+00
         25   -1    0    0    0    0  0.00000000000E+00  0.00000000000E+00  0.99999998245E-14  0.12500000000E+03  0.12500000000E+03 0.  0.
        -13    1    3    3    0    0 -0.23687710080E+02 -0.23723131885E+02  0.26364280725E+02  0.42649514153E+02  0.10566000000E+00 0.  1.
         23    2    1    0    0    0 -0.20127556008E+02 -0.83319063272E-01 -0.21127851342E+02  0.95819329082E+02  0.91267914792E+02 0.  0.
         13    1    3    3    0    0  0.35601540726E+01  0.23639812822E+02 -0.47492132067E+02  0.53169814929E+02  0.10566000000E+00 0. -1.
         22    1    1    0    0    0  0.20127556008E+02  0.83319063272E-01  0.21127851342E+02  0.29180670918E+02  0.00000000000E+00 0. -1.
</event>
<event>
 5    1  0.6835419E-004  0.9118800E+02  0.7818608E-02  0.1130116E+00
         25   -1    0    0    0    0  0.00000000000E+00  0.00000000000E+00  0.99999998245E-14  0.12500000000E+03  0.12500000000E+03 0.  0.
        -13    1    3    3    0    0 -0.22714704525E+02 -0.30095803757E+01  0.41278772169E+02  0.47211900741E+02  0.10566000000E+00 0. -1.
         23    2    1    0    0    0 -0.25630139003E+02  0.21530216331E+02  0.49301399853E+01  0.91165690182E+02  0.84654725477E+02 0.  0.
         13    1    3    3    0    0 -0.29154344775E+01  0.24539796707E+02 -0.36348632184E+02  0.43953789442E+02  0.10566000000E+00 0.  1.
         22    1    1    0    0    0  0.25630139003E+02 -0.21530216331E+02 -0.49301399853E+01  0.33834309818E+02  0.00000000000E+00 0. -1.
</event>
<event>
 5    1  0.6835419E-004  0.9118800E+02  0.7818608E-02  0.1130116E+00
         25   -1    0    0    0    0  0.00000000000E+00  0.00000000000E+00  0.99999998245E-14  0.12500000000E+03  0.12500000000E+03 0.  0.
        -13    1    3    3    0    0  0.38143253790E+02 -0.35800810471E+02 -0.97403339415E+00  0.52321752122E+02  0.10566000000E+00 0. -1.
         23    2    1    0    0    0 -0.72797400361E+01 -0.13633949098E+02 -0.13593800051E+02  0.10441674023E+03  0.10236789075E+03 0.  0.
         13    1    3    3    0    0 -0.45422993826E+02  0.22166861373E+02 -0.12619766657E+02  0.52094988106E+02  0.10566000000E+00 0.  1.
         22    1    1    0    0    0  0.72797400361E+01  0.13633949098E+02  0.13593800051E+02  0.20583259772E+02  0.00000000000E+00 0. -1.
</event>
<event>
 5    1  0.6835419E-004  0.9118800E+02  0.7818608E-02  0.1130116E+00
         25   -1    0    0    0    0  0.00000000000E+00  0.00000000000E+00  0.99999998245E-14  0.12500000000E+03  0.12500000000E+03 0.  0.
        -13    1    3    3    0    0 -0.55575378668E+02  0.40202444255E+01  0.87382619995E+01  0.56401715099E+02  0.10566000000E+00 0.  1.
         23    2    1    0    0    0 -0.18166451992E+02  0.75804043591E+01  0.21274507800E+02  0.96015742370E+02  0.91536526002E+02 0.  0.
         13    1    3    3    0    0  0.37408926676E+02  0.35601599336E+01  0.12536245801E+02  0.39614027271E+02  0.10566000000E+00 0. -1.
         22    1    1    0    0    0  0.18166451992E+02 -0.75804043591E+01 -0.21274507800E+02  0.28984257630E+02  0.00000000000E+00 0.  1.
</event>
<event>
 5    1  0.6835419E-004  0.9118800E+02  0.7818608E-02  0.1130116E+00
         25   -1    0    0    0    0  0.00000000000E+00  0.00000000000E+00  0.99999998245E-14  0.12500000000E+03  0.12500000000E+03 0.  0.
        -13    1    3    3    0    0 -0.23521133229E+02  0.49607958025E+02  0.21591773149E+02  0.58994991648E+02  0.10566000000E+00 0. -1.
         23    2    1    0    0    0 -0.11194319682E+02  0.27887744912E+02 -0.39182767758E+01  0.94695016873E+02  0.89714849486E+02 0.  0.
         13    1    3    3    0    0  0.12326813547E+02 -0.21720213113E+02 -0.25510049924E+02  0.35700025225E+02  0.10566000000E+00 0.  1.
         22    1    1    0    0    0  0.11194319682E+02 -0.27887744912E+02  0.39182767758E+01  0.30304983127E+02  0.00000000000E+00 0. -1.
</event>
<event>
 5    1  0.6835419E-004  0.9118800E+02  0.7818608E-02  0.1130116E+00
         25   -1    0    0    0    0  0.00000000000E+00  0.00000000000E+00  0.99999998245E-14  0.12500000000E+03  0.12500000000E+03 0.  0.
        -13    1    3    3    0    0 -0.33731031418E+02 -0.66318629294E+01 -0.87632536599E+01  0.35476328237E+02  0.10566000000E+00 0. -1.
         23    2    1    0    0    0 -0.19933268710E+02  0.24360834273E+02 -0.34677696977E+02  0.78167018933E+02  0.62583981444E+02 0.  0.
         13    1    3    3    0    0  0.13797762708E+02  0.30992697203E+02 -0.25914443317E+02  0.42690690697E+02  0.10566000000E+00 0.  1.
         22    1    1    0    0    0  0.19933268710E+02 -0.24360834273E+02  0.34677696977E+02  0.46832981067E+02  0.00000000000E+00 0.  1.
</event>
<event>
 5    1  0.6835419E-004  0.9118800E+02  0.7818608E-02  0.1130116E+00
         25   -1    0    0    0    0  0.00000000000E+00  0.00000000000E+00  0.99999998245E-14  0.12500000000E+03  0.12500000000E+03 0.  0.
        -13    1    3    3    0    0  0.10963227374E+02 -0.33565826485E+02  0.78275855335E+01  0.36168208711E+02  0.10566000000E+00 0.  1.
         23    2    1    0    0    0 -0.79725492304E+01  0.23354372297E+02  0.14258409588E+02  0.96499289648E+02  0.92194481462E+02 0.  0.
         13    1    3    3    0    0 -0.18935776605E+02  0.56920198781E+02  0.64308240541E+01  0.60331080937E+02  0.10566000000E+00 0. -1.
         22    1    1    0    0    0  0.79725492304E+01 -0.23354372297E+02 -0.14258409588E+02  0.28500710352E+02  0.00000000000E+00 0. -1.
</event>
<event>
 5    1  0.6835419E-004  0.9118800E+02  0.7818608E-02  0.1130116E+00
         25   -1    0    0    0    0  0.00000000000E+00  0.00000000000E+00  0.99999998245E-14  0.12500000000E+03  0.12500000000E+03 0.  0.
        -13    1    3    3    0    0 -0.37443523519E+02 -0.30288259236E+01  0.73527822783E+01  0.38278790620E+02  0.10566000000E+00 0. -1.
         23    2    1    0    0    0  0.91330766749E+01 -0.54580137549E+00 -0.27184872398E+02  0.96316759667E+02  0.91946668873E+02 0.  0.
         13    1    3    3    0    0  0.46576600194E+02  0.24830245481E+01 -0.34537654676E+02  0.58037969048E+02  0.10566000000E+00 0.  1.
         22    1    1    0    0    0 -0.91330766749E+01  0.54580137549E+00  0.27184872398E+02  0.28683240333E+02  0.00000000000E+00 0.  1.
</event>
<event>
 5    1  0.6835419E-004  0.9118800E+02  0.7818608E-02  0.1130116E+00
         25   -1    0    0    0    0  0.00000000000E+00  0.00000000000E+00  0.99999998245E-14  0.12500000000E+03  0.12500000000E+03 0.  0.
        -13    1    3    3    0    0  0.27822368221E+01 -0.71659601236E+01  0.36234496436E+02  0.37041081547E+02  0.10566000000E+00 0.  1.
         23    2    1    0    0    0  0.16728611142E+01 -0.17493000425E+02 -0.22366753396E+02  0.96555753030E+02  0.92271004425E+02 0.  0.
         13    1    3    3    0    0 -0.11093757079E+01 -0.10327040302E+02 -0.58601249832E+02  0.59514671483E+02  0.10566000000E+00 0. -1.
         22    1    1    0    0    0 -0.16728611142E+01  0.17493000425E+02  0.22366753396E+02  0.28444246970E+02  0.00000000000E+00 0. -1.
</event>
<event>
 5    1  0.6835419E-004  0.9118800E+02  0.7818608E-02  0.1130116E+00
         25   -1    0    0    0    0  0.00000000000E+00  0.00000000000E+00  0.99999998245E-14  0.12500000000E+03  0.12500000000E+03 0.  0.
        -13    1    3    3    0    0 -0.38036957466E+02 -0.88939295476E+01 -0.16496901525E+02  0.42403667766E+02  0.10566000000E+00 0.  1.
         23    2    1    0    0    0  0.86737634541E+01 -0.28113028913E+02  0.12670517399E+00  0.95579044521E+02  0.90938227001E+02 0.  0.
         13    1    3    3    0    0  0.46710720920E+02 -0.19219099365E+02  0.16623606699E+02  0.53175376755E+02  0.10566000000E+00 0. -1.
         22    1    1    0    0    0 -0.86737634541E+01  0.28113028913E+02 -0.12670517399E+00  0.29420955479E+02  0.00000000000E+00 0.  1.
</event>
<event>
 5    1  0.6835419E-004  0.9118800E+02  0.7818608E-02  0.1130116E+00
         25   -1    0    0    0    0  0.00000000000E+00  0.00000000000E+00  0.99999998245E-14  0.12500000000E+03  0.12500000000E+03 0.  0.
        -13    1    3    3    0    0  0.27949439548E+02  0.41286382561E+02  0.21125349251E+01  0.49902009216E+02  0.10566000000E+00 0.  1.
         23    2    1    0    0    0 -0.79907967153E+01  0.21705802492E+02  0.19861280265E+02  0.94512869146E+02  0.89460702470E+02 0.  0.
         13    1    3    3    0    0 -0.35940236263E+02 -0.19580580069E+02  0.17748745340E+02  0.44610859930E+02  0.10566000000E+00 0. -1.
         22    1    1    0    0    0  0.79907967153E+01 -0.21705802492E+02 -0.19861280265E+02  0.30487130854E+02  0.00000000000E+00 0.  1.
</event>
<event>
 5    1  0.6835419E-004  0.9118800E+02  0.7818608E-02  0.1130116E+00
         25   -1    0    0    0    0  0.00000000000E+00  0.00000000000E+00  0.99999998245E-14  0.12500000000E+03  0.12500000000E+03 0.  0.
        -13    1    3    3    0    0  0.37385816034E+02  0.12894842508E+02 -0.79739450088E+01  0.40343167537E+02  0.10566000000E+00 0.  1.
         23    2    1    0    0    0 -0.12390527052E+02 -0.14842410470E+02 -0.18443069922E+02  0.98279799078E+02  0.94577744578E+02 0.  0.
         13    1    3    3    0    0 -0.49776343086E+02 -0.27737252978E+02 -0.10469124913E+02  0.57936631541E+02  0.10566000000E+00 0. -1.
         22    1    1    0    0    0  0.12390527052E+02  0.14842410470E+02  0.18443069922E+02  0.26720200922E+02  0.00000000000E+00 0. -1.
</event>
<event>
 5    1  0.6835419E-004  0.9118800E+02  0.7818608E-02  0.1130116E+00
         25   -1    0    0    0    0  0.00000000000E+00  0.00000000000E+00  0.99999998245E-14  0.12500000000E+03  0.12500000000E+03 0.  0.
        -13    1    3    3    0    0 -0.43316331489E+02  0.20026805504E+02 -0.23989098402E+02  0.53412222557E+02  0.10566000000E+00 0.  1.
         23    2    1    0    0    0 -0.28190580624E+02  0.12528624996E+02  0.10989379905E+02  0.92251843549E+02  0.86243613603E+02 0.  0.
         13    1    3    3    0    0  0.15125750865E+02 -0.74981805072E+01  0.34978478306E+02  0.38839620992E+02  0.10566000000E+00 0. -1.
         22    1    1    0    0    0  0.28190580624E+02 -0.12528624996E+02 -0.10989379905E+02  0.32748156451E+02  0.00000000000E+00 0.  1.
</event>
<event>
 5    1  0.6835419E-004  0.9118800E+02  0.7818608E-02  0.1130116E+00
         25   -1    0    0    0    0  0.00000000000E+00  0.00000000000E+00  0.99999998245E-14  0.12500000000E+03  0.12500000000E+03 0.  0.
        -13    1    3    3    0    0 -0.37915103482E+02 -0.50991845459E+01  0.47615973717E+02  0.61080675112E+02  0.10566000000E+00 0.  1.
         23    2    1    0    0    0 -0.10501187876E+02 -0.93550692641E+01  0.22286531707E+02  0.98646978099E+02  0.95061793192E+02 0.  0.
         13    1    3    3    0    0  0.27413915606E+02 -0.42558847182E+01 -0.25329442010E+02  0.37566302987E+02  0.10566000000E+00 0. -1.
         22    1    1    0    0    0  0.10501187876E+02  0.93550692641E+01 -0.22286531707E+02  0.26353021901E+02  0.00000000000E+00 0.  1.
</event>
<event>
 5    1  0.6835419E-004  0.9118800E+02  0.7818608E-02  0.1130116E+00
         25   -1    0    0    0    0  0.00000000000E+00  0.00000000000E+00  0.99999998245E-14  0.12500000000E+03  0.12500000000E+03 0.  0.
        -13    1    3    3    0    0  0.12498284713E+02  0.21326512521E+02 -0.19807327764E+02  0.31675994921E+02  0.10566000000E+00 0. -1.
         23    2    1    0    0    0 -0.17956785735E+02 -0.24212941251E+02  0.89565721356E+01  0.93552697057E+02  0.88108877330E+02 0.  0.
         13    1    3    3    0    0 -0.30455070448E+02 -0.45539453772E+02  0.28763899900E+02  0.61876702136E+02  0.10566000000E+00 0.  1.
         22    1    1    0    0    0  0.17956785735E+02  0.24212941251E+02 -0.89565721356E+01  0.31447302943E+02  0.00000000000E+00 0.  1.
</event>
<event>
 5    1  0.6835419E-004  0.9118800E+02  0.7818608E-02  0.1130116E+00
         25   -1    0    0    0    0  0.00000000000E+00  0.00000000000E+00  0.99999998245E-14  0.12500000000E+03  0.12500000000E+03 0.  0.
        -13    1    3    3    0    0 -0.66918050332E+01 -0.24169982894E+02  0.55370693712E+02  0.60785633285E+02  0.10566000000E+00 0. -1.
         23    2    1    0    0    0 -0.11730692554E+02 -0.10188165329E+02  0.16820606699E+02  0.10210151380E+03  0.99500645474E+02 0.  0.
         13    1    3    3    0    0 -0.50388875213E+01  0.13981817565E+02 -0.38550087013E+02  0.41315880513E+02  0.10566000000E+00 0.  1.
         22    1    1    0    0    0  0.11730692554E+02  0.10188165329E+02 -0.16820606699E+02  0.22898486201E+02  0.00000000000E+00 0. -1.
</event>
<event>
 5    1  0.6835419E-004  0.9118800E+02  0.7818608E-02  0.1130116E+00
         25   -1    0    0    0    0  0.00000000000E+00  0.00000000000E+00  0.99999998245E-14  0.12500000000E+03  0.12500000000E+03 0.  0.
        -13    1    3    3    0    0 -0.29903041634E+02  0.23476513366E+02  0.29922887887E+02  0.48381080624E+02  0.10566000000E+00 0. -1.
         23    2    1    0    0    0  0.10269583033E+01  0.28254946286E+02 -0.60742969099E+01  0.96081256668E+02  0.91625947018E+02 0.  0.
         13    1    3    3    0    0  0.30929999937E+02  0.47784329201E+01 -0.35997184797E+02  0.47700176044E+02  0.10566000000E+00 0.  1.
         22    1    1    0    0    0 -0.10269583033E+01 -0.28254946286E+02  0.60742969099E+01  0.28918743332E+02  0.00000000000E+00 0.  1.
</event>
<event>
 5    1  0.6835419E-004  0.9118800E+02  0.7818608E-02  0.1130116E+00
         25   -1    0    0    0    0  0.00000000000E+00  0.00000000000E+00  0.99999998245E-14  0.12500000000E+03  0.12500000000E+03 0.  0.
        -13    1    3    3    0    0  0.53930074080E+02  0.26534484499E+02  0.13248610180E+02  0.61547287459E+02  0.10566000000E+00 0. -1.
         23    2    1    0    0    0  0.21107476093E+02  0.18822997604E+02  0.46972628761E+01  0.96331287710E+02  0.91966417390E+02 0.  0.
         13    1    3    3    0    0 -0.32822597987E+02 -0.77114868945E+01 -0.85513473037E+01  0.34784000251E+02  0.10566000000E+00 0.  1.
         22    1    1    0    0    0 -0.21107476093E+02 -0.18822997604E+02 -0.46972628761E+01  0.28668712290E+02  0.00000000000E+00 0. -1.
</event>
<event>
 5    1  0.6835419E-004  0.9118800E+02  0.7818608E-02  0.1130116E+00
         25   -1    0    0    0    0  0.00000000000E+00  0.00000000000E+00  0.99999998245E-14  0.12500000000E+03  0.12500000000E+03 0.  0.
        -13    1    3    3    0    0  0.36574834134E+02  0.28592235209E+02 -0.34945394564E+02  0.58107023426E+02  0.10566000000E+00 0. -1.
         23    2    1    0    0    0  0.21975931105E+02  0.34356203548E+02 -0.20883577436E+02  0.79180636444E+02  0.64576769128E+02 0.  0.
         13    1    3    3    0    0 -0.14598903030E+02  0.57639683387E+01  0.14061817127E+02  0.21073613018E+02  0.10566000000E+00 0.  1.
         22    1    1    0    0    0 -0.21975931105E+02 -0.34356203548E+02  0.20883577436E+02  0.45819363556E+02  0.00000000000E+00 0. -1.
</event>
<event>
 5    1  0.6835419E-004  0.9118800E+02  0.7818608E-02  0.1130116E+00
         25   -1    0    0    0    0  0.00000000000E+00  0.00000000000E+00  0.99999998245E-14  0.12500000000E+03  0.12500000000E+03 0.  0.
        -13    1    3    3    0    0 -0.50786301565E+02  0.32900792800E+02  0.11971186353E+01  0.60524002268E+02  0.10566000000E+00 0.  1.
         23    2    1    0    0    0 -0.15683985960E+02  0.10980558668E+02  0.10814100782E+02  0.10301125606E+03  0.10063704097E+03 0.  0.
         13    1    3    3    0    0  0.35102315606E+02 -0.21920234132E+02  0.96169821468E+01  0.42487253794E+02  0.10566000000E+00 0. -1.
         22    1    1    0    0    0  0.15683985960E+02 -0.10980558668E+02 -0.10814100782E+02  0.21988743938E+02  0.00000000000E+00 0.  1.
</event>
<event>
 5    1  0.6835419E-004  0.9118800E+02  0.7818608E-02  0.1130116E+00
         25   -1    0    0    0    0  0.00000000000E+00  0.00000000000E+00  0.99999998245E-14  0.12500000000E+03  0.12500000000E+03 0.  0.
        -13    1    3    3    0    0 -0.35694486143E+02  0.65140771466E+01  0.14265831625E+02  0.38987878348E+02  0.10566000000E+00 0.  1.
         23    2    1    0    0    0  0.17823191801E+02 -0.11842767646E+02  0.19812331505E+02  0.95837596273E+02  0.91292930002E+02 0.  0.
         13    1    3    3    0    0  0.53517677944E+02 -0.18356844792E+02  0.55464998796E+01  0.56849717925E+02  0.10566000000E+00 0. -1.
         22    1    1    0    0    0 -0.17823191801E+02  0.11842767646E+02 -0.19812331505E+02  0.29162403727E+02  0.00000000000E+00 0. -1.
</event>
<event>
 5    1  0.6835419E-004  0.9118800E+02  0.7818608E-02  0.1130116E+00
         25   -1    0    0    0    0  0.00000000000E+00  0.00000000000E+00  0.99999998245E-14  0.12500000000E+03  0.12500000000E+03 0.  0.
        -13    1    3    3    0    0 -0.31425798531E+02  0.44620042087E+02 -0.99958341696E+01  0.55483842999E+02  0.10566000000E+00 0. -1.
         23    2    1    0    0    0 -0.18372036754E+02  0.71232966078E+01 -0.20511761295E+02  0.96556979055E+02  0.92272665312E+02 0.  0.
         13    1    3    3    0    0  0.13053761777E+02 -0.37496745480E+02 -0.10515927126E+02  0.41073136056E+02  0.10566000000E+00 0.  1.
         22    1    1    0    0    0  0.18372036754E+02 -0.71232966078E+01  0.20511761295E+02  0.28443020945E+02  0.00000000000E+00 0. -1.
</event>
<event>
 5    1  0.6835419E-004  0.9118800E+02  0.7818608E-02  0.1130116E+00
         25   -1    0    0    0    0  0.00000000000E+00  0.00000000000E+00  0.99999998245E-14  0.12500000000E+03  0.12500000000E+03 0.  0.
        -13    1    3    3    0    0  0.26410010469E+02  0.47529922004E+02  0.26158235057E+02  0.60339427939E+02  0.10566000000E+00 0.  1.
         23    2    1    0    0    0  0.22148830257E+02  0.16079997759E+02  0.11169113924E+02  0.95438435165E+02  0.90744745254E+02 0.  0.
         13    1    3    3    0    0 -0.42611802124E+01 -0.31449924245E+02 -0.14989121133E+02  0.35099007225E+02  0.10566000000E+00 0. -1.
         22    1    1    0    0    0 -0.22148830257E+02 -0.16079997759E+02 -0.11169113924E+02  0.29561564835E+02  0.00000000000E+00 0.  1.
</event>
<event>
 5    1  0.6835419E-004  0.9118800E+02  0.7818608E-02  0.1130116E+00
         25   -1    0    0    0    0  0.00000000000E+00  0.00000000000E+00  0.99999998245E-14  0.12500000000E+03  0.12500000000E+03 0.  0.
        -13    1    3    3    0    0 -0.23130597412E+02  0.20203452259E+02 -0.15719577721E+02  0.34501018936E+02  0.10566000000E+00 0.  1.
         23    2    1    0    0    0 -0.17557136592E+02 -0.31853014376E+02 -0.22544542746E+01  0.88558949875E+02  0.80713923637E+02 0.  0.
         13    1    3    3    0    0  0.55734608208E+01 -0.52056466635E+02  0.13465123446E+02  0.54057930940E+02  0.10566000000E+00 0. -1.
         22    1    1    0    0    0  0.17557136592E+02  0.31853014376E+02  0.22544542746E+01  0.36441050125E+02  0.00000000000E+00 0. -1.
</event>
<event>
 5    1  0.6835419E-004  0.9118800E+02  0.7818608E-02  0.1130116E+00
         25   -1    0    0    0    0  0.00000000000E+00  0.00000000000E+00  0.99999998245E-14  0.12500000000E+03  0.12500000000E+03 0.  0.
        -13    1    3    3    0    0 -0.14441540335E+02  0.40742244094E+02  0.44648120086E+02  0.62144624323E+02  0.10566000000E+00 0.  1.
         23    2    1    0    0    0 -0.85748684734E+01  0.17722020202E+02  0.26225406601E+02  0.92207160526E+02  0.86178826469E+02 0.  0.
         13    1    3    3    0    0  0.58666718614E+01 -0.23020223892E+02 -0.18422713485E+02  0.30062536203E+02  0.10566000000E+00 0. -1.
         22    1    1    0    0    0  0.85748684734E+01 -0.17722020202E+02 -0.26225406601E+02  0.32792839474E+02  0.00000000000E+00 0.  1.
</event>
<event>
 5    1  0.6835419E-004  0.9118800E+02  0.7818608E-02  0.1130116E+00
         25   -1    0    0    0    0  0.00000000000E+00  0.00000000000E+00  0.99999998245E-14  0.12500000000E+03  0.12500000000E+03 0.  0.
        -13    1    3    3    0    0  0.31521290925E+02 -0.31510969630E+02  0.45524572442E+01  0.44802555949E+02  0.10566000000E+00 0. -1.
         23    2    1    0    0    0 -0.17158614949E+02 -0.25846387609E+02  0.29400171963E+01  0.93837562346E+02  0.88512092883E+02 0.  0.
         13    1    3    3    0    0 -0.48679905874E+02  0.56645820210E+01 -0.16124400479E+01  0.49035006397E+02  0.10566000000E+00 0.  1.
         22    1    1    0    0    0  0.17158614949E+02  0.25846387609E+02 -0.29400171963E+01  0.31162437654E+02  0.00000000000E+00 0.  1.
</event>
<event>
 5    1  0.6835419E-004  0.9118800E+02  0.7818608E-02  0.1130116E+00
         25   -1    0    0    0    0  0.00000000000E+00  0.00000000000E+00  0.99999998245E-14  0.12500000000E+03  0.12500000000E+03 0.  0.
        -13    1    3    3    0    0 -0.19262194507E+02 -0.21136955246E+02  0.49254625460E+02  0.56954651325E+02  0.10566000000E+00 0.  1.
         23    2    1    0    0    0 -0.24237892119E+02 -0.11282237032E+02  0.12211258704E+02  0.95608179268E+02  0.90978265630E+02 0.  0.
         13    1    3    3    0    0 -0.49756976116E+01  0.98547182142E+01 -0.37043366756E+02  0.38653527943E+02  0.10566000000E+00 0. -1.
         22    1    1    0    0    0  0.24237892119E+02  0.11282237032E+02 -0.12211258704E+02  0.29391820732E+02  0.00000000000E+00 0.  1.
</event>
<event>
 5    1  0.6835419E-004  0.9118800E+02  0.7818608E-02  0.1130116E+00
         25   -1    0    0    0    0  0.00000000000E+00  0.00000000000E+00  0.99999998245E-14  0.12500000000E+03  0.12500000000E+03 0.  0.
        -13    1    3    3    0    0  0.15474848370E+02 -0.53649542170E+02  0.23621012126E+02  0.60627614872E+02  0.10566000000E+00 0.  1.
         23    2    1    0    0    0  0.13525752074E+02 -0.19070478611E+02  0.17493983197E+02  0.95799510762E+02  0.91240767700E+02 0.  0.
         13    1    3    3    0    0 -0.19490962960E+01  0.34579063559E+02 -0.61270289294E+01  0.35171895890E+02  0.10566000000E+00 0. -1.
         22    1    1    0    0    0 -0.13525752074E+02  0.19070478611E+02 -0.17493983197E+02  0.29200489238E+02  0.00000000000E+00 0.  1.
</event>
<event>
 5    1  0.6835419E-004  0.9118800E+02  0.7818608E-02  0.1130116E+00
         25   -1    0    0    0    0  0.00000000000E+00  0.00000000000E+00  0.99999998245E-14  0.12500000000E+03  0.12500000000E+03 0.  0.
        -13    1    3    3    0    0 -0.22504530637E+02 -0.28961314768E+02 -0.55386201659E+01  0.37093114316E+02  0.10566000000E+00 0.  1.
         23    2    1    0    0    0  0.26026166935E+02 -0.10157134681E+02  0.15288942722E+02  0.93152228967E+02  0.87538889881E+02 0.  0.
         13    1    3    3    0    0  0.48530697572E+02  0.18804180087E+02  0.20827562888E+02  0.56059114651E+02  0.10566000000E+00 0. -1.
         22    1    1    0    0    0 -0.26026166935E+02  0.10157134681E+02 -0.15288942722E+02  0.31847771033E+02  0.00000000000E+00 0. -1.
</event>
<event>
 5    1  0.6835419E-004  0.9118800E+02  0.7818608E-02  0.1130116E+00
         25   -1    0    0    0    0  0.00000000000E+00  0.00000000000E+00  0.99999998245E-14  0.12500000000E+03  0.12500000000E+03 0.  0.
        -13    1    3    3    0    0 -0.55624794373E+01 -0.72918023408E+01 -0.39438206787E+02  0.40490676427E+02  0.10566000000E+00 0.  1.
         23    2    1    0    0    0  0.29275995759E+02  0.58939414184E+00  0.25391270487E+01  0.95608190268E+02  0.90978280743E+02 0.  0.
         13    1    3    3    0    0  0.34838475197E+02  0.78811964826E+01  0.41977333836E+02  0.55117513841E+02  0.10566000000E+00 0. -1.
         22    1    1    0    0    0 -0.29275995759E+02 -0.58939414184E+00 -0.25391270487E+01  0.29391809732E+02  0.00000000000E+00 0. -1.
</event>
<event>
 5    1  0.6835419E-004  0.9118800E+02  0.7818608E-02  0.1130116E+00
         25   -1    0    0    0    0  0.00000000000E+00  0.00000000000E+00  0.99999998245E-14  0.12500000000E+03  0.12500000000E+03 0.  0.
        -13    1    3    3    0    0 -0.99144400282E+01 -0.34979653753E+02 -0.33454650602E+01  0.36511307813E+02  0.10566000000E+00 0.  1.
         23    2    1    0    0    0 -0.76754152887E+01  0.21247535965E+02  0.17399097672E+02  0.96485119951E+02  0.92175267766E+02 0.  0.
         13    1    3    3    0    0  0.22390247395E+01  0.56227189717E+02  0.20744562732E+02  0.59973812137E+02  0.10566000000E+00 0. -1.
         22    1    1    0    0    0  0.76754152887E+01 -0.21247535965E+02 -0.17399097672E+02  0.28514880049E+02  0.00000000000E+00 0. -1.
</event>
<event>
 5    1  0.6835419E-004  0.9118800E+02  0.7818608E-02  0.1130116E+00
         25   -1    0    0    0    0  0.00000000000E+00  0.00000000000E+00  0.99999998245E-14  0.12500000000E+03  0.12500000000E+03 0.  0.
        -13    1    3    3    0    0 -0.31066393681E+02 -0.74722901649E+01  0.15339139037E+02  0.35443705888E+02  0.10566000000E+00 0.  1.
         23    2    1    0    0    0  0.20356537502E+02 -0.59980362680E+01 -0.18356349414E+02  0.96940765835E+02  0.92791117348E+02 0.  0.
         13    1    3    3    0    0  0.51422931184E+02  0.14742538969E+01 -0.33695488450E+02  0.61497059946E+02  0.10566000000E+00 0. -1.
         22    1    1    0    0    0 -0.20356537502E+02  0.59980362680E+01  0.18356349414E+02  0.28059234165E+02  0.00000000000E+00 0. -1.
</event>
<event>
 5    1  0.6835419E-004  0.9118800E+02  0.7818608E-02  0.1130116E+00
         25   -1    0    0    0    0  0.00000000000E+00  0.00000000000E+00  0.99999998245E-14  0.12500000000E+03  0.12500000000E+03 0.  0.
        -13    1    3    3    0    0  0.16161415375E+02 -0.49360468186E+02 -0.18105512122E+02  0.55004253469E+02  0.10566000000E+00 0. -1.
         23    2    1    0    0    0 -0.10076252623E+01 -0.27038098837E+02  0.11262433505E+02  0.95692722648E+02  0.91094350329E+02 0.  0.
         13    1    3    3    0    0 -0.17169040637E+02  0.22322369349E+02  0.29367945626E+02  0.40688469179E+02  0.10566000000E+00 0.  1.
         22    1    1    0    0    0  0.10076252623E+01  0.27038098837E+02 -0.11262433505E+02  0.29307277352E+02  0.00000000000E+00 0. -1.
</event>
<event>
 5    1  0.6835419E-004  0.9118800E+02  0.7818608E-02  0.1130116E+00
         25   -1    0    0    0    0  0.00000000000E+00  0.00000000000E+00  0.99999998245E-14  0.12500000000E+03  0.12500000000E+03 0.  0.
        -13    1    3    3    0    0 -0.32190519326E+02 -0.83199342959E+01  0.10216650443E+02  0.34782782400E+02  0.10566000000E+00 0.  1.
         23    2    1    0    0    0  0.24227556551E+02  0.14490433691E+02 -0.13936650618E+01  0.96735367201E+02  0.92514008670E+02 0.  0.
         13    1    3    3    0    0  0.56418075877E+02  0.22810367987E+02 -0.11610315505E+02  0.61952584801E+02  0.10566000000E+00 0. -1.
         22    1    1    0    0    0 -0.24227556551E+02 -0.14490433691E+02  0.13936650618E+01  0.28264632799E+02  0.00000000000E+00 0. -1.
</event>
<event>
 5    1  0.6835419E-004  0.9118800E+02  0.7818608E-02  0.1130116E+00
         25   -1    0    0    0    0  0.00000000000E+00  0.00000000000E+00  0.99999998245E-14  0.12500000000E+03  0.12500000000E+03 0.  0.
        -13    1    3    3    0    0  0.26854321512E+02 -0.32737626711E+02 -0.25862553207E+02  0.49616424790E+02  0.10566000000E+00 0.  1.
         23    2    1    0    0    0 -0.16122343262E+02 -0.20323147548E+02 -0.11730969171E+02  0.96529385040E+02  0.92235276657E+02 0.  0.
         13    1    3    3    0    0 -0.42976664774E+02  0.12414479163E+02  0.14131584036E+02  0.46912960250E+02  0.10566000000E+00 0. -1.
         22    1    1    0    0    0  0.16122343262E+02  0.20323147548E+02  0.11730969171E+02  0.28470614960E+02  0.00000000000E+00 0. -1.
</event>
<event>
 5    1  0.6835419E-004  0.9118800E+02  0.7818608E-02  0.1130116E+00
         25   -1    0    0    0    0  0.00000000000E+00  0.00000000000E+00  0.99999998245E-14  0.12500000000E+03  0.12500000000E+03 0.  0.
        -13    1    3    3    0    0 -0.10758032970E+02 -0.29520997942E+01 -0.50701983619E+02  0.51914857926E+02  0.10566000000E+00 0. -1.
         23    2    1    0    0    0 -0.26415255628E+02 -0.16912139664E+00 -0.81280954059E+01  0.97361977877E+02  0.93356812655E+02 0.  0.
         13    1    3    3    0    0 -0.15657222659E+02  0.27829783976E+01  0.42573888213E+02  0.45447119950E+02  0.10566000000E+00 0.  1.
         22    1    1    0    0    0  0.26415255628E+02  0.16912139664E+00  0.81280954059E+01  0.27638022123E+02  0.00000000000E+00 0. -1.
</event>
<event>
 5    1  0.6835419E-004  0.9118800E+02  0.7818608E-02  0.1130116E+00
         25   -1    0    0    0    0  0.00000000000E+00  0.00000000000E+00  0.99999998245E-14  0.12500000000E+03  0.12500000000E+03 0.  0.
        -13    1    3    3    0    0 -0.24761358868E+01 -0.43131815573E+02  0.38043073757E+01  0.43370135833E+02  0.10566000000E+00 0.  1.
         23    2    1    0    0    0 -0.51630125524E+01 -0.20691478858E+01 -0.28672725565E+02  0.95792753247E+02  0.91231509423E+02 0.  0.
         13    1    3    3    0    0 -0.26868766656E+01  0.41062667687E+02 -0.32477032941E+02  0.52422617413E+02  0.10566000000E+00 0. -1.
         22    1    1    0    0    0  0.51630125524E+01  0.20691478858E+01  0.28672725565E+02  0.29207246753E+02  0.00000000000E+00 0. -1.
</event>
<event>
 5    1  0.6835419E-004  0.9118800E+02  0.7818608E-02  0.1130116E+00
         25   -1    0    0    0    0  0.00000000000E+00  0.00000000000E+00  0.99999998245E-14  0.12500000000E+03  0.12500000000E+03 0.  0.
        -13    1    3    3    0    0 -0.15955866685E+02 -0.10804847341E+02 -0.41254404285E+02  0.45533190583E+02  0.10566000000E+00 0. -1.
         23    2    1    0    0    0 -0.16968711668E+02 -0.20445200588E+02  0.91788056158E+01  0.96889612680E+02  0.92722182729E+02 0.  0.
         13    1    3    3    0    0 -0.10128449830E+01 -0.96403532465E+01  0.50433209901E+02  0.51356422097E+02  0.10566000000E+00 0.  1.
         22    1    1    0    0    0  0.16968711668E+02  0.20445200588E+02 -0.91788056158E+01  0.28110387320E+02  0.00000000000E+00 0. -1.
</event>
<event>
 5    1  0.6835419E-004  0.9118800E+02  0.7818608E-02  0.1130116E+00
         25   -1    0    0    0    0  0.00000000000E+00  0.00000000000E+00  0.99999998245E-14  0.12500000000E+03  0.12500000000E+03 0.  0.
        -13    1    3    3    0    0  0.10608834951E+01 -0.57247300884E+02 -0.34822702781E+01  0.57363022084E+02  0.10566000000E+00 0.  1.
         23    2    1    0    0    0 -0.36253231273E+01 -0.21989880012E+02 -0.18562416681E+02  0.95995498560E+02  0.91508877384E+02 0.  0.
         13    1    3    3    0    0 -0.46862066223E+01  0.35257420872E+02 -0.15080146403E+02  0.38632476476E+02  0.10566000000E+00 0. -1.
         22    1    1    0    0    0  0.36253231273E+01  0.21989880012E+02  0.18562416681E+02  0.29004501440E+02  0.00000000000E+00 0.  1.
</event>
<event>
 5    1  0.6835419E-004  0.9118800E+02  0.7818608E-02  0.1130116E+00
         25   -1    0    0    0    0  0.00000000000E+00  0.00000000000E+00  0.99999998245E-14  0.12500000000E+03  0.12500000000E+03 0.  0.
        -13    1    3    3    0    0  0.23652816404E+02  0.25065342961E+02 -0.53917750107E+01  0.34882797242E+02  0.10566000000E+00 0. -1.
         23    2    1    0    0    0 -0.22416181517E+02 -0.49056245911E+01  0.19187007526E+02  0.95088604108E+02  0.90261570045E+02 0.  0.
         13    1    3    3    0    0 -0.46068997921E+02 -0.29970967552E+02  0.24578782536E+02  0.60205806866E+02  0.10566000000E+00 0.  1.
         22    1    1    0    0    0  0.22416181517E+02  0.49056245911E+01 -0.19187007526E+02  0.29911395892E+02  0.00000000000E+00 0.  1.
</event>
<event>
 5    1  0.6835419E-004  0.9118800E+02  0.7818608E-02  0.1130116E+00
         25   -1    0    0    0    0  0.00000000000E+00  0.00000000000E+00  0.99999998245E-14  0.12500000000E+03  0.12500000000E+03 0.  0.
        -13    1    3    3    0    0  0.33732890496E+02 -0.25646429768E+02 -0.69375898026E+01  0.42939359303E+02  0.10566000000E+00 0.  1.
         23    2    1    0    0    0 -0.17699551483E+02 -0.14208687925E+02  0.12486731992E+02  0.99094799535E+02  0.95648836291E+02 0.  0.
         13    1    3    3    0    0 -0.51432441980E+02  0.11437741843E+02  0.19424321795E+02  0.56155440232E+02  0.10566000000E+00 0. -1.
         22    1    1    0    0    0  0.17699551483E+02  0.14208687925E+02 -0.12486731992E+02  0.25905200465E+02  0.00000000000E+00 0. -1.
</event>
<event>
 5    1  0.6835419E-004  0.9118800E+02  0.7818608E-02  0.1130116E+00
         25   -1    0    0    0    0  0.00000000000E+00  0.00000000000E+00  0.99999998245E-14  0.12500000000E+03  0.12500000000E+03 0.  0.
        -13    1    3    3    0    0 -0.12815760660E+02  0.26418585182E+02  0.12840948677E+02  0.32048190140E+02  0.10566000000E+00 0. -1.
         23    2    1    0    0    0  0.13895232945E+02 -0.24885813113E+02  0.19783315783E+02  0.90304744182E+02  0.83373773128E+02 0.  0.
         13    1    3    3    0    0  0.26710993605E+02 -0.51304398295E+02  0.69423671062E+01  0.58256554042E+02  0.10566000000E+00 0.  1.
         22    1    1    0    0    0 -0.13895232945E+02  0.24885813113E+02 -0.19783315783E+02  0.34695255818E+02  0.00000000000E+00 0.  1.
</event>
<event>
 5    1  0.6835419E-004  0.9118800E+02  0.7818608E-02  0.1130116E+00
         25   -1    0    0    0    0  0.00000000000E+00  0.00000000000E+00  0.99999998245E-14  0.12500000000E+03  0.12500000000E+03 0.  0.
        -13    1    3    3    0    0 -0.26492161530E+02  0.21069801359E+02 -0.71279548174E+01  0.34591762831E+02  0.10566000000E+00 0.  1.
         23    2    1    0    0    0  0.13606217040E+02 -0.19183517007E+02 -0.21430497972E+02  0.93181723645E+02  0.87580996290E+02 0.  0.
         13    1    3    3    0    0  0.40098378570E+02 -0.40253318366E+02 -0.14302543155E+02  0.58589960814E+02  0.10566000000E+00 0. -1.
         22    1    1    0    0    0 -0.13606217040E+02  0.19183517007E+02  0.21430497972E+02  0.31818276355E+02  0.00000000000E+00 0. -1.
</event>
<event>
 5    1  0.6835419E-004  0.9118800E+02  0.7818608E-02  0.1130116E+00
         25   -1    0    0    0    0  0.00000000000E+00  0.00000000000E+00  0.99999998245E-14  0.12500000000E+03  0.12500000000E+03 0.  0.
        -13    1    3    3    0    0 -0.31306816600E+02 -0.20341066609E+02  0.58158402953E+01  0.37785062112E+02  0.10566000000E+00 0.  1.
         23    2    1    0    0    0  0.22898033197E+02 -0.36363479735E+00  0.16810886184E+02  0.96591232888E+02  0.92319056657E+02 0.  0.
         13    1    3    3    0    0  0.54204849797E+02  0.19977431812E+02  0.10995045889E+02  0.58806170776E+02  0.10566000000E+00 0. -1.
         22    1    1    0    0    0 -0.22898033197E+02  0.36363479735E+00 -0.16810886184E+02  0.28408767112E+02  0.00000000000E+00 0. -1.
</event>
<event>
 5    1  0.6835419E-004  0.9118800E+02  0.7818608E-02  0.1130116E+00
         25   -1    0    0    0    0  0.00000000000E+00  0.00000000000E+00  0.99999998245E-14  0.12500000000E+03  0.12500000000E+03 0.  0.
        -13    1    3    3    0    0  0.28270045571E+02  0.20215778984E+01 -0.20147339474E+02  0.34773678346E+02  0.10566000000E+00 0. -1.
         23    2    1    0    0    0 -0.22267632656E+02  0.17659744247E+02  0.90188373857E+01  0.95183000507E+02  0.90392201693E+02 0.  0.
         13    1    3    3    0    0 -0.50537678227E+02  0.15638166348E+02  0.29166176860E+02  0.60409322161E+02  0.10566000000E+00 0.  1.
         22    1    1    0    0    0  0.22267632656E+02 -0.17659744247E+02 -0.90188373857E+01  0.29816999493E+02  0.00000000000E+00 0.  1.
</event>
<event>
 5    1  0.6835419E-004  0.9118800E+02  0.7818608E-02  0.1130116E+00
         25   -1    0    0    0    0  0.00000000000E+00  0.00000000000E+00  0.99999998245E-14  0.12500000000E+03  0.12500000000E+03 0.  0.
        -13    1    3    3    0    0 -0.11083007785E+02  0.49834480387E+02 -0.55343121407E+01  0.51351224639E+02  0.10566000000E+00 0. -1.
         23    2    1    0    0    0  0.32708196803E+01  0.28725792373E+02  0.21829398206E+02  0.88773048225E+02  0.81044815111E+02 0.  0.
         13    1    3    3    0    0  0.14353827465E+02 -0.21108688014E+02  0.27363710347E+02  0.37421823587E+02  0.10566000000E+00 0.  1.
         22    1    1    0    0    0 -0.32708196803E+01 -0.28725792373E+02 -0.21829398206E+02  0.36226951775E+02  0.00000000000E+00 0. -1.
</event>
<event>
 5    1  0.6835419E-004  0.9118800E+02  0.7818608E-02  0.1130116E+00
         25   -1    0    0    0    0  0.00000000000E+00  0.00000000000E+00  0.99999998245E-14  0.12500000000E+03  0.12500000000E+03 0.  0.
        -13    1    3    3    0    0 -0.36084278148E+02  0.44851483314E+02  0.20117315868E+02  0.60979080403E+02  0.10566000000E+00 0. -1.
         23    2    1    0    0    0 -0.11014764280E+02  0.26537845008E+02  0.15456896180E+02  0.92373356144E+02  0.86419552394E+02 0.  0.
         13    1    3    3    0    0  0.25069513868E+02 -0.18313638307E+02 -0.46604196880E+01  0.31394275741E+02  0.10566000000E+00 0.  1.
         22    1    1    0    0    0  0.11014764280E+02 -0.26537845008E+02 -0.15456896180E+02  0.32626643856E+02  0.00000000000E+00 0. -1.
</event>
<event>
 5    1  0.6835419E-004  0.9118800E+02  0.7818608E-02  0.1130116E+00
         25   -1    0    0    0    0  0.00000000000E+00  0.00000000000E+00  0.99999998245E-14  0.12500000000E+03  0.12500000000E+03 0.  0.
        -13    1    3    3    0    0 -0.16904913875E+02  0.45113636603E+02  0.14532616486E+02  0.50321212492E+02  0.10566000000E+00 0. -1.
         23    2    1    0    0    0 -0.19654999386E+02 -0.52357324439E+01  0.13177814379E+02  0.10076393830E+03  0.97805851430E+02 0.  0.
         13    1    3    3    0    0 -0.27500855110E+01 -0.50349369047E+02 -0.13548021067E+01  0.50442725804E+02  0.10566000000E+00 0.  1.
         22    1    1    0    0    0  0.19654999386E+02  0.52357324439E+01 -0.13177814379E+02  0.24236061704E+02  0.00000000000E+00 0. -1.
</event>
<event>
 5    1  0.6835419E-004  0.9118800E+02  0.7818608E-02  0.1130116E+00
         25   -1    0    0    0    0  0.00000000000E+00  0.00000000000E+00  0.99999998245E-14  0.12500000000E+03  0.12500000000E+03 0.  0.
        -13    1    3    3    0    0  0.34554833043E+02  0.28158900789E+02  0.31575026537E+02  0.54625576841E+02  0.10566000000E+00 0.  1.
         23    2    1    0    0    0 -0.38949684679E+01  0.23382587798E+02  0.16087255979E+02  0.96351858761E+02  0.91994373145E+02 0.  0.
         13    1    3    3    0    0 -0.38449801511E+02 -0.47763129915E+01 -0.15487770558E+02  0.41726281921E+02  0.10566000000E+00 0. -1.
         22    1    1    0    0    0  0.38949684679E+01 -0.23382587798E+02 -0.16087255979E+02  0.28648141239E+02  0.00000000000E+00 0.  1.
</event>
<event>
 5    1  0.6835419E-004  0.9118800E+02  0.7818608E-02  0.1130116E+00
         25   -1    0    0    0    0  0.00000000000E+00  0.00000000000E+00  0.99999998245E-14  0.12500000000E+03  0.12500000000E+03 0.  0.
        -13    1    3    3    0    0 -0.13177370459E+02 -0.22365255087E+02  0.37625867592E+02  0.45711757824E+02  0.10566000000E+00 0. -1.
         23    2    1    0    0    0 -0.22410288918E+02  0.16977520381E+02  0.81617493491E+01  0.95724218198E+02  0.91137558392E+02 0.  0.
         13    1    3    3    0    0 -0.92329184590E+01  0.39342775468E+02 -0.29464118243E+02  0.50012460374E+02  0.10566000000E+00 0.  1.
         22    1    1    0    0    0  0.22410288918E+02 -0.16977520381E+02 -0.81617493491E+01  0.29275781802E+02  0.00000000000E+00 0.  1.
</event>
<event>
 5    1  0.6835419E-004  0.9118800E+02  0.7818608E-02  0.1130116E+00
         25   -1    0    0    0    0  0.00000000000E+00  0.00000000000E+00  0.99999998245E-14  0.12500000000E+03  0.12500000000E+03 0.  0.
        -13    1    3    3    0    0  0.42003516481E+02 -0.72034353795E+01  0.38684091498E+02  0.57555668505E+02  0.10566000000E+00 0. -1.
         23    2    1    0    0    0  0.14983008471E+02 -0.20220759214E+02  0.15762335366E+02  0.95304531285E+02  0.90560106124E+02 0.  0.
         13    1    3    3    0    0 -0.27020508010E+02 -0.13017323834E+02 -0.22921756132E+02  0.37748862780E+02  0.10566000000E+00 0.  1.
         22    1    1    0    0    0 -0.14983008471E+02  0.20220759214E+02 -0.15762335366E+02  0.29695468715E+02  0.00000000000E+00 0. -1.
</event>
<event>
 5    1  0.6835419E-004  0.9118800E+02  0.7818608E-02  0.1130116E+00
         25   -1    0    0    0    0  0.00000000000E+00  0.00000000000E+00  0.99999998245E-14  0.12500000000E+03  0.12500000000E+03 0.  0.
        -13    1    3    3    0    0  0.34996748051E+02  0.19544350587E+01  0.15399746409E+02  0.38285187005E+02  0.10566000000E+00 0. -1.
         23    2    1    0    0    0 -0.57989380376E+01 -0.22256538463E+02 -0.17570955831E+02  0.96056612577E+02  0.91592320334E+02 0.  0.
         13    1    3    3    0    0 -0.40795686088E+02 -0.24210973522E+02 -0.32970702240E+02  0.57771425571E+02  0.10566000000E+00 0.  1.
         22    1    1    0    0    0  0.57989380376E+01  0.22256538463E+02  0.17570955831E+02  0.28943387423E+02  0.00000000000E+00 0.  1.
</event>
<event>
 5    1  0.6835419E-004  0.9118800E+02  0.7818608E-02  0.1130116E+00
         25   -1    0    0    0    0  0.00000000000E+00  0.00000000000E+00  0.99999998245E-14  0.12500000000E+03  0.12500000000E+03 0.  0.
        -13    1    3    3    0    0 -0.31431220709E+02 -0.15689324895E+01 -0.11000292454E+02  0.33337678122E+02  0.10566000000E+00 0.  1.
         23    2    1    0    0    0  0.26639832548E+02  0.32967656575E+01  0.11489425610E+02  0.95801434233E+02  0.91243402820E+02 0.  0.
         13    1    3    3    0    0  0.58071053257E+02  0.48656981471E+01  0.22489718064E+02  0.62463756111E+02  0.10566000000E+00 0. -1.
         22    1    1    0    0    0 -0.26639832548E+02 -0.32967656575E+01 -0.11489425610E+02  0.29198565767E+02  0.00000000000E+00 0. -1.
</event>
<event>
 5    1  0.6835419E-004  0.9118800E+02  0.7818608E-02  0.1130116E+00
         25   -1    0    0    0    0  0.00000000000E+00  0.00000000000E+00  0.99999998245E-14  0.12500000000E+03  0.12500000000E+03 0.  0.
        -13    1    3    3    0    0 -0.26582375567E+01 -0.60590308573E+01 -0.38486564605E+02  0.39051311130E+02  0.10566000000E+00 0. -1.
         23    2    1    0    0    0  0.38903655688E+01  0.27159310436E+02  0.78710791962E+01  0.96456752544E+02  0.92136790350E+02 0.  0.
         13    1    3    3    0    0  0.65486031255E+01  0.33218341293E+02  0.46357643801E+02  0.57405441414E+02  0.10566000000E+00 0.  1.
         22    1    1    0    0    0 -0.38903655688E+01 -0.27159310436E+02 -0.78710791962E+01  0.28543247456E+02  0.00000000000E+00 0.  1.
</event>
<event>
 5    1  0.6835419E-004  0.9118800E+02  0.7818608E-02  0.1130116E+00
         25   -1    0    0    0    0  0.00000000000E+00  0.00000000000E+00  0.99999998245E-14  0.12500000000E+03  0.12500000000E+03 0.  0.
        -13    1    3    3    0    0  0.26887341655E+02  0.28839436681E+02 -0.12590940684E+02  0.41390641463E+02  0.10566000000E+00 0.  1.
         23    2    1    0    0    0 -0.22467328902E+02  0.79910882989E+01 -0.17831977149E+02  0.95223872494E+02  0.90448704378E+02 0.  0.
         13    1    3    3    0    0 -0.49354670557E+02 -0.20848348382E+02 -0.52410364654E+01  0.53833231032E+02  0.10566000000E+00 0. -1.
         22    1    1    0    0    0  0.22467328902E+02 -0.79910882989E+01  0.17831977149E+02  0.29776127506E+02  0.00000000000E+00 0. -1.
</event>
<event>
 5    1  0.6835419E-004  0.9118800E+02  0.7818608E-02  0.1130116E+00
         25   -1    0    0    0    0  0.00000000000E+00  0.00000000000E+00  0.99999998245E-14  0.12500000000E+03  0.12500000000E+03 0.  0.
        -13    1    3    3    0    0  0.38322006486E+02  0.20546696981E+02  0.40719486049E+01  0.43673045090E+02  0.10566000000E+00 0. -1.
         23    2    1    0    0    0 -0.77129152757E+01  0.17922568848E+02 -0.21145272290E+02  0.96227963639E+02  0.91825872769E+02 0.  0.
         13    1    3    3    0    0 -0.46034921761E+02 -0.26241281338E+01 -0.25217220895E+02  0.52554918549E+02  0.10566000000E+00 0.  1.
         22    1    1    0    0    0  0.77129152757E+01 -0.17922568848E+02  0.21145272290E+02  0.28772036361E+02  0.00000000000E+00 0. -1.
</event>
<event>
 5    1  0.6835419E-004  0.9118800E+02  0.7818608E-02  0.1130116E+00
         25   -1    0    0    0    0  0.00000000000E+00  0.00000000000E+00  0.99999998245E-14  0.12500000000E+03  0.12500000000E+03 0.  0.
        -13    1    3    3    0    0 -0.33946419243E+02 -0.12951231453E+02 -0.34694241190E+02  0.50237389575E+02  0.10566000000E+00 0. -1.
         23    2    1    0    0    0  0.59591689769E+01 -0.23633150568E+02 -0.17558599076E+02  0.94960993655E+02  0.90084673579E+02 0.  0.
         13    1    3    3    0    0  0.39905588220E+02 -0.10681919115E+02  0.17135642114E+02  0.44723604080E+02  0.10566000000E+00 0.  1.
         22    1    1    0    0    0 -0.59591689769E+01  0.23633150568E+02  0.17558599076E+02  0.30039006345E+02  0.00000000000E+00 0. -1.
</event>
<event>
 5    1  0.6835419E-004  0.9118800E+02  0.7818608E-02  0.1130116E+00
         25   -1    0    0    0    0  0.00000000000E+00  0.00000000000E+00  0.99999998245E-14  0.12500000000E+03  0.12500000000E+03 0.  0.
        -13    1    3    3    0    0 -0.23391044404E+02  0.21920452972E+02 -0.13661698158E+02  0.34846813016E+02  0.10566000000E+00 0. -1.
         23    2    1    0    0    0  0.27618857445E+02 -0.59800348919E+00  0.10273440231E+02  0.95526241011E+02  0.90865616449E+02 0.  0.
         13    1    3    3    0    0  0.51009901849E+02 -0.22518456461E+02  0.23935138389E+02  0.60679427995E+02  0.10566000000E+00 0.  1.
         22    1    1    0    0    0 -0.27618857445E+02  0.59800348919E+00 -0.10273440231E+02  0.29473758989E+02  0.00000000000E+00 0.  1.
</event>
<event>
 5    1  0.6835419E-004  0.9118800E+02  0.7818608E-02  0.1130116E+00
         25   -1    0    0    0    0  0.00000000000E+00  0.00000000000E+00  0.99999998245E-14  0.12500000000E+03  0.12500000000E+03 0.  0.
        -13    1    3    3    0    0 -0.30699563627E+02  0.40811193477E+01 -0.50223630079E+02  0.59004600875E+02  0.10566000000E+00 0.  1.
         23    2    1    0    0    0 -0.20104646373E+02 -0.10720590471E+02 -0.18205478833E+02  0.95835512599E+02  0.91290076951E+02 0.  0.
         13    1    3    3    0    0  0.10594917254E+02 -0.14801709819E+02  0.32018151246E+02  0.36830911724E+02  0.10566000000E+00 0. -1.
         22    1    1    0    0    0  0.20104646373E+02  0.10720590471E+02  0.18205478833E+02  0.29164487401E+02  0.00000000000E+00 0.  1.
</event>
<event>
 5    1  0.6835419E-004  0.9118800E+02  0.7818608E-02  0.1130116E+00
         25   -1    0    0    0    0  0.00000000000E+00  0.00000000000E+00  0.99999998245E-14  0.12500000000E+03  0.12500000000E+03 0.  0.
        -13    1    3    3    0    0  0.42042696420E+01 -0.31573477791E+02 -0.23219599938E+02  0.39417272462E+02  0.10566000000E+00 0. -1.
         23    2    1    0    0    0  0.31598773962E+02  0.58349097175E+01  0.30740525112E+01  0.92720308456E+02  0.86919946583E+02 0.  0.
         13    1    3    3    0    0  0.27394504321E+02  0.37408387508E+02  0.26293652450E+02  0.53303035994E+02  0.10566000000E+00 0.  1.
         22    1    1    0    0    0 -0.31598773962E+02 -0.58349097175E+01 -0.30740525112E+01  0.32279691544E+02  0.00000000000E+00 0.  1.
</event>
<event>
 5    1  0.6835419E-004  0.9118800E+02  0.7818608E-02  0.1130116E+00
         25   -1    0    0    0    0  0.00000000000E+00  0.00000000000E+00  0.99999998245E-14  0.12500000000E+03  0.12500000000E+03 0.  0.
        -13    1    3    3    0    0 -0.51139438203E+02 -0.94631554845E+01 -0.22400677613E+02  0.56626804369E+02  0.10566000000E+00 0.  1.
         23    2    1    0    0    0 -0.28500120433E+02  0.69392839586E+01  0.43811453408E+01  0.95341865179E+02  0.90611623397E+02 0.  0.
         13    1    3    3    0    0  0.22639317770E+02  0.16402439443E+02  0.26781822954E+02  0.38715060810E+02  0.10566000000E+00 0. -1.
         22    1    1    0    0    0  0.28500120433E+02 -0.69392839586E+01 -0.43811453408E+01  0.29658134821E+02  0.00000000000E+00 0.  1.
</event>
<event>
 5    1  0.6835419E-004  0.9118800E+02  0.7818608E-02  0.1130116E+00
         25   -1    0    0    0    0  0.00000000000E+00  0.00000000000E+00  0.99999998245E-14  0.12500000000E+03  0.12500000000E+03 0.  0.
        -13    1    3    3    0    0  0.30786830539E+02  0.11695749678E+02 -0.27968496691E+02  0.43207261731E+02  0.10566000000E+00 0.  1.
         23    2    1    0    0    0 -0.19356933440E+02 -0.40640540184E+01 -0.20869864531E+02  0.96246588849E+02  0.91851223249E+02 0.  0.
         13    1    3    3    0    0 -0.50143763979E+02 -0.15759803697E+02  0.70986321599E+01  0.53039327118E+02  0.10566000000E+00 0. -1.
         22    1    1    0    0    0  0.19356933440E+02  0.40640540184E+01  0.20869864531E+02  0.28753411151E+02  0.00000000000E+00 0. -1.
</event>
<event>
 5    1  0.6835419E-004  0.9118800E+02  0.7818608E-02  0.1130116E+00
         25   -1    0    0    0    0  0.00000000000E+00  0.00000000000E+00  0.99999998245E-14  0.12500000000E+03  0.12500000000E+03 0.  0.
        -13    1    3    3    0    0 -0.18959429138E+02 -0.22235551585E+02  0.42461954020E+01  0.29528309247E+02  0.10566000000E+00 0.  1.
         23    2    1    0    0    0 -0.22187527338E+02  0.85403457959E+01 -0.36956105696E+02  0.81057109518E+02  0.68112241040E+02 0.  0.
         13    1    3    3    0    0 -0.32280982002E+01  0.30775897381E+02 -0.41202301098E+02  0.51528800271E+02  0.10566000000E+00 0. -1.
         22    1    1    0    0    0  0.22187527338E+02 -0.85403457959E+01  0.36956105696E+02  0.43942890482E+02  0.00000000000E+00 0. -1.
</event>
<event>
 5    1  0.6835419E-004  0.9118800E+02  0.7818608E-02  0.1130116E+00
         25   -1    0    0    0    0  0.00000000000E+00  0.00000000000E+00  0.99999998245E-14  0.12500000000E+03  0.12500000000E+03 0.  0.
        -13    1    3    3    0    0 -0.13339235552E+02  0.23061039914E+02 -0.45902729062E+02  0.53073707864E+02  0.10566000000E+00 0.  1.
         23    2    1    0    0    0 -0.13866137648E+02 -0.10973801344E+02 -0.28890695434E+02  0.91127203070E+02  0.84597876850E+02 0.  0.
         13    1    3    3    0    0 -0.52690209592E+00 -0.34034841257E+02  0.17012033628E+02  0.38053495207E+02  0.10566000000E+00 0. -1.
         22    1    1    0    0    0  0.13866137648E+02  0.10973801344E+02  0.28890695434E+02  0.33872796930E+02  0.00000000000E+00 0.  1.
</event>
<event>
 5    1  0.6835419E-004  0.9118800E+02  0.7818608E-02  0.1130116E+00
         25   -1    0    0    0    0  0.00000000000E+00  0.00000000000E+00  0.99999998245E-14  0.12500000000E+03  0.12500000000E+03 0.  0.
        -13    1    3    3    0    0  0.39071109399E+02  0.40472229139E+02 -0.72266038485E+01  0.56716733759E+02  0.10566000000E+00 0. -1.
         23    2    1    0    0    0  0.77852616443E+01  0.22545623539E+02 -0.18846621692E+02  0.94600812695E+02  0.89583498334E+02 0.  0.
         13    1    3    3    0    0 -0.31285847755E+02 -0.17926605600E+02 -0.11620017843E+02  0.37884078935E+02  0.10566000000E+00 0.  1.
         22    1    1    0    0    0 -0.77852616443E+01 -0.22545623539E+02  0.18846621692E+02  0.30399187305E+02  0.00000000000E+00 0. -1.
</event>
<event>
 5    1  0.6835419E-004  0.9118800E+02  0.7818608E-02  0.1130116E+00
         25   -1    0    0    0    0  0.00000000000E+00  0.00000000000E+00  0.99999998245E-14  0.12500000000E+03  0.12500000000E+03 0.  0.
        -13    1    3    3    0    0 -0.29353084509E+02 -0.28457740074E+02 -0.22185507528E+02  0.46515099147E+02  0.10566000000E+00 0. -1.
         23    2    1    0    0    0 -0.26070479447E+02  0.51417110575E+01  0.13120970869E+02  0.95364430700E+02  0.90642747503E+02 0.  0.
         13    1    3    3    0    0  0.32826050620E+01  0.33599451132E+02  0.35306478397E+02  0.48849331553E+02  0.10566000000E+00 0.  1.
         22    1    1    0    0    0  0.26070479447E+02 -0.51417110575E+01 -0.13120970869E+02  0.29635569300E+02  0.00000000000E+00 0.  1.
</event>
<event>
 5    1  0.6835419E-004  0.9118800E+02  0.7818608E-02  0.1130116E+00
         25   -1    0    0    0    0  0.00000000000E+00  0.00000000000E+00  0.99999998245E-14  0.12500000000E+03  0.12500000000E+03 0.  0.
        -13    1    3    3    0    0  0.46697033026E+01 -0.44963231622E+02 -0.10059551858E+02  0.46310949833E+02  0.10566000000E+00 0.  1.
         23    2    1    0    0    0  0.26443795633E+02 -0.39050072764E+01  0.93575799780E+01  0.96678846910E+02  0.92437609919E+02 0.  0.
         13    1    3    3    0    0  0.21774092330E+02  0.41058224346E+02  0.19417131836E+02  0.50367897077E+02  0.10566000000E+00 0. -1.
         22    1    1    0    0    0 -0.26443795633E+02  0.39050072764E+01 -0.93575799780E+01  0.28321153090E+02  0.00000000000E+00 0.  1.
</event>
<event>
 5    1  0.6835419E-004  0.9118800E+02  0.7818608E-02  0.1130116E+00
         25   -1    0    0    0    0  0.00000000000E+00  0.00000000000E+00  0.99999998245E-14  0.12500000000E+03  0.12500000000E+03 0.  0.
        -13    1    3    3    0    0 -0.45774837790E+02  0.18021030449E+02  0.10957690489E+01  0.49206759566E+02  0.10566000000E+00 0. -1.
         23    2    1    0    0    0 -0.38873877797E+01  0.16511475396E+02 -0.22122483064E+02  0.97122681972E+02  0.93035855954E+02 0.  0.
         13    1    3    3    0    0  0.41887450010E+02 -0.15095550527E+01 -0.23218252113E+02  0.47915922406E+02  0.10566000000E+00 0.  1.
         22    1    1    0    0    0  0.38873877797E+01 -0.16511475396E+02  0.22122483064E+02  0.27877318028E+02  0.00000000000E+00 0. -1.
</event>
<event>
 5    1  0.6835419E-004  0.9118800E+02  0.7818608E-02  0.1130116E+00
         25   -1    0    0    0    0  0.00000000000E+00  0.00000000000E+00  0.99999998245E-14  0.12500000000E+03  0.12500000000E+03 0.  0.
        -13    1    3    3    0    0  0.30613977645E+02 -0.23471184545E+02 -0.37006729464E+02  0.53456723814E+02  0.10566000000E+00 0.  1.
         23    2    1    0    0    0  0.19245597776E+02 -0.22700740146E+02  0.30316082236E+01  0.95084998991E+02  0.90256577311E+02 0.  0.
         13    1    3    3    0    0 -0.11368379869E+02  0.77044439931E+00  0.40038337688E+02  0.41628275178E+02  0.10566000000E+00 0. -1.
         22    1    1    0    0    0 -0.19245597776E+02  0.22700740146E+02 -0.30316082236E+01  0.29915001009E+02  0.00000000000E+00 0. -1.
</event>
<event>
 5    1  0.6835419E-004  0.9118800E+02  0.7818608E-02  0.1130116E+00
         25   -1    0    0    0    0  0.00000000000E+00  0.00000000000E+00  0.99999998245E-14  0.12500000000E+03  0.12500000000E+03 0.  0.
        -13    1    3    3    0    0 -0.16090266158E+02  0.24042635518E+02  0.25985752087E+02  0.38887214650E+02  0.10566000000E+00 0.  1.
         23    2    1    0    0    0  0.20390833567E+02 -0.18540666059E+01 -0.15045034707E+02  0.99591798059E+02  0.96296155244E+02 0.  0.
         13    1    3    3    0    0  0.36481099725E+02 -0.25896702123E+02 -0.41030786793E+02  0.60704583410E+02  0.10566000000E+00 0. -1.
         22    1    1    0    0    0 -0.20390833567E+02  0.18540666059E+01  0.15045034707E+02  0.25408201941E+02  0.00000000000E+00 0. -1.
</event>
<event>
 5    1  0.6835419E-004  0.9118800E+02  0.7818608E-02  0.1130116E+00
         25   -1    0    0    0    0  0.00000000000E+00  0.00000000000E+00  0.99999998245E-14  0.12500000000E+03  0.12500000000E+03 0.  0.
        -13    1    3    3    0    0 -0.12457156811E+02  0.46325881717E+02  0.34730108849E+02  0.59223810223E+02  0.10566000000E+00 0. -1.
         23    2    1    0    0    0 -0.59048603327E+00  0.12807788541E+02  0.26262283775E+02  0.95775084771E+02  0.91207297914E+02 0.  0.
         13    1    3    3    0    0  0.11866670778E+02 -0.33518093177E+02 -0.84678250739E+01  0.36551274548E+02  0.10566000000E+00 0.  1.
         22    1    1    0    0    0  0.59048603327E+00 -0.12807788541E+02 -0.26262283775E+02  0.29224915229E+02  0.00000000000E+00 0. -1.
</event>
<event>
 5    1  0.6835419E-004  0.9118800E+02  0.7818608E-02  0.1130116E+00
         25   -1    0    0    0    0  0.00000000000E+00  0.00000000000E+00  0.99999998245E-14  0.12500000000E+03  0.12500000000E+03 0.  0.
        -13    1    3    3    0    0 -0.26407395023E+01 -0.13994809991E+01  0.45677288019E+02  0.45775078995E+02  0.10566000000E+00 0.  1.
         23    2    1    0    0    0  0.24242536542E+02  0.14659158812E+02  0.64921337577E+01  0.95935600543E+02  0.91427020818E+02 0.  0.
         13    1    3    3    0    0  0.26883276045E+02  0.16058639812E+02 -0.39185154261E+02  0.50160521548E+02  0.10566000000E+00 0. -1.
         22    1    1    0    0    0 -0.24242536542E+02 -0.14659158812E+02 -0.64921337577E+01  0.29064399457E+02  0.00000000000E+00 0. -1.
</event>
<event>
 5    1  0.6835419E-004  0.9118800E+02  0.7818608E-02  0.1130116E+00
         25   -1    0    0    0    0  0.00000000000E+00  0.00000000000E+00  0.99999998245E-14  0.12500000000E+03  0.12500000000E+03 0.  0.
        -13    1    3    3    0    0  0.84242885569E+01  0.11426740251E+02 -0.36553349714E+02  0.39213487090E+02  0.10566000000E+00 0.  1.
         23    2    1    0    0    0  0.23356510938E+01  0.28271310632E+02  0.14373778166E+02  0.93198620004E+02  0.87605108304E+02 0.  0.
         13    1    3    3    0    0 -0.60886374631E+01  0.16844570381E+02  0.50927127880E+02  0.53985132913E+02  0.10566000000E+00 0. -1.
         22    1    1    0    0    0 -0.23356510938E+01 -0.28271310632E+02 -0.14373778166E+02  0.31801379996E+02  0.00000000000E+00 0.  1.
</event>
<event>
 5    1  0.6835419E-004  0.9118800E+02  0.7818608E-02  0.1130116E+00
         25   -1    0    0    0    0  0.00000000000E+00  0.00000000000E+00  0.99999998245E-14  0.12500000000E+03  0.12500000000E+03 0.  0.
        -13    1    3    3    0    0 -0.12506598337E+02  0.39828289274E+02 -0.16272731596E+02  0.44805363362E+02  0.10566000000E+00 0.  1.
         23    2    1    0    0    0  0.25432557482E+02  0.65436169561E+01 -0.13794402254E+02  0.95336563981E+02  0.90604310025E+02 0.  0.
         13    1    3    3    0    0  0.37939155819E+02 -0.33284672317E+02  0.24783293419E+01  0.50531200618E+02  0.10566000000E+00 0. -1.
         22    1    1    0    0    0 -0.25432557482E+02 -0.65436169561E+01  0.13794402254E+02  0.29663436019E+02  0.00000000000E+00 0. -1.
</event>
<event>
 5    1  0.6835419E-004  0.9118800E+02  0.7818608E-02  0.1130116E+00
         25   -1    0    0    0    0  0.00000000000E+00  0.00000000000E+00  0.99999998245E-14  0.12500000000E+03  0.12500000000E+03 0.  0.
        -13    1    3    3    0    0  0.10101739254E+02 -0.49491631571E+02 -0.95524922429E+01  0.51407470310E+02  0.10566000000E+00 0.  1.
         23    2    1    0    0    0 -0.89390768734E+01 -0.23758481801E+02  0.18192540609E+02  0.93769548728E+02  0.88415989402E+02 0.  0.
         13    1    3    3    0    0 -0.19040816128E+02  0.25733149770E+02  0.27745032852E+02  0.42362078418E+02  0.10566000000E+00 0. -1.
         22    1    1    0    0    0  0.89390768734E+01  0.23758481801E+02 -0.18192540609E+02  0.31230451272E+02  0.00000000000E+00 0.  1.
</event>
<event>
 5    1  0.6835419E-004  0.9118800E+02  0.7818608E-02  0.1130116E+00
         25   -1    0    0    0    0  0.00000000000E+00  0.00000000000E+00  0.99999998245E-14  0.12500000000E+03  0.12500000000E+03 0.  0.
        -13    1    3    3    0    0 -0.13516435978E+02 -0.46234703477E+02 -0.15579438322E+01  0.48195230056E+02  0.10566000000E+00 0. -1.
         23    2    1    0    0    0  0.22357639594E+01 -0.10285835715E+02  0.26529393514E+02  0.96458700502E+02  0.92139433064E+02 0.  0.
         13    1    3    3    0    0  0.15752199937E+02  0.35948867762E+02  0.28087337346E+02  0.48263470446E+02  0.10566000000E+00 0.  1.
         22    1    1    0    0    0 -0.22357639594E+01  0.10285835715E+02 -0.26529393514E+02  0.28541299498E+02  0.00000000000E+00 0.  1.
</event>
<event>
 5    1  0.6835419E-004  0.9118800E+02  0.7818608E-02  0.1130116E+00
         25   -1    0    0    0    0  0.00000000000E+00  0.00000000000E+00  0.99999998245E-14  0.12500000000E+03  0.12500000000E+03 0.  0.
        -13    1    3    3    0    0 -0.12158249739E+02  0.18139378582E+02 -0.32793041085E+02  0.39398664949E+02  0.10566000000E+00 0.  1.
         23    2    1    0    0    0  0.13504625703E+02 -0.22450659491E+02  0.20360947035E+01  0.98721630405E+02  0.95159905429E+02 0.  0.
         13    1    3    3    0    0  0.25662875442E+02 -0.40590038072E+02  0.34829135789E+02  0.59322965456E+02  0.10566000000E+00 0. -1.
         22    1    1    0    0    0 -0.13504625703E+02  0.22450659491E+02 -0.20360947035E+01  0.26278369595E+02  0.00000000000E+00 0. -1.
</event>
<event>
 5    1  0.6835419E-004  0.9118800E+02  0.7818608E-02  0.1130116E+00
         25   -1    0    0    0    0  0.00000000000E+00  0.00000000000E+00  0.99999998245E-14  0.12500000000E+03  0.12500000000E+03 0.  0.
        -13    1    3    3    0    0  0.33004907958E+02 -0.49313756056E+02  0.19241722431E+02  0.62381291521E+02  0.10566000000E+00 0. -1.
         23    2    1    0    0    0  0.13916690184E+02 -0.24744853275E+02  0.74970002680E+01  0.95636978318E+02  0.91017825614E+02 0.  0.
         13    1    3    3    0    0 -0.19088217774E+02  0.24568902781E+02 -0.11744722163E+02  0.33255686797E+02  0.10566000000E+00 0.  1.
         22    1    1    0    0    0 -0.13916690184E+02  0.24744853275E+02 -0.74970002680E+01  0.29363021682E+02  0.00000000000E+00 0. -1.
</event>
<event>
 5    1  0.6835419E-004  0.9118800E+02  0.7818608E-02  0.1130116E+00
         25   -1    0    0    0    0  0.00000000000E+00  0.00000000000E+00  0.99999998245E-14  0.12500000000E+03  0.12500000000E+03 0.  0.
        -13    1    3    3    0    0  0.77426044491E+01  0.37853423222E+02  0.46769739238E+02  0.60665057864E+02  0.10566000000E+00 0.  1.
         23    2    1    0    0    0  0.39297128900E+01  0.11075046264E+02  0.30701104767E+02  0.92126650201E+02  0.86061969244E+02 0.  0.
         13    1    3    3    0    0 -0.38128915591E+01 -0.26778376958E+02 -0.16068634471E+02  0.31461592337E+02  0.10566000000E+00 0. -1.
         22    1    1    0    0    0 -0.39297128900E+01 -0.11075046264E+02 -0.30701104767E+02  0.32873349799E+02  0.00000000000E+00 0.  1.
</event>
<event>
 5    1  0.6835419E-004  0.9118800E+02  0.7818608E-02  0.1130116E+00
         25   -1    0    0    0    0  0.00000000000E+00  0.00000000000E+00  0.99999998245E-14  0.12500000000E+03  0.12500000000E+03 0.  0.
        -13    1    3    3    0    0 -0.40317499392E+02  0.40752650777E+02 -0.14890029170E+02  0.59228400580E+02  0.10566000000E+00 0.  1.
         23    2    1    0    0    0 -0.18157504628E+02  0.20663657710E+02  0.73802855538E+01  0.96519298830E+02  0.92221606511E+02 0.  0.
         13    1    3    3    0    0  0.22159994763E+02 -0.20088993067E+02  0.22270314724E+02  0.37290898250E+02  0.10566000000E+00 0. -1.
         22    1    1    0    0    0  0.18157504628E+02 -0.20663657710E+02 -0.73802855538E+01  0.28480701170E+02  0.00000000000E+00 0.  1.
</event>
<event>
 5    1  0.6835419E-004  0.9118800E+02  0.7818608E-02  0.1130116E+00
         25   -1    0    0    0    0  0.00000000000E+00  0.00000000000E+00  0.99999998245E-14  0.12500000000E+03  0.12500000000E+03 0.  0.
        -13    1    3    3    0    0  0.42764257566E+02  0.76025392773E+01  0.29735298820E+02  0.52638194200E+02  0.10566000000E+00 0. -1.
         23    2    1    0    0    0  0.12407649445E+02 -0.20264844525E+02  0.17047918628E+02  0.95755424129E+02  0.91180348937E+02 0.  0.
         13    1    3    3    0    0 -0.30356608121E+02 -0.27867383802E+02 -0.12687380193E+02  0.43117229929E+02  0.10566000000E+00 0.  1.
         22    1    1    0    0    0 -0.12407649445E+02  0.20264844525E+02 -0.17047918628E+02  0.29244575871E+02  0.00000000000E+00 0.  1.
</event>
<event>
 5    1  0.6835419E-004  0.9118800E+02  0.7818608E-02  0.1130116E+00
         25   -1    0    0    0    0  0.00000000000E+00  0.00000000000E+00  0.99999998245E-14  0.12500000000E+03  0.12500000000E+03 0.  0.
        -13    1    3    3    0    0  0.30268438883E+02 -0.42597834708E+02 -0.98441057053E+01  0.53175854440E+02  0.10566000000E+00 0.  1.
         23    2    1    0    0    0 -0.67177849829E+01 -0.29693674323E+02  0.30191193820E+01  0.94406569141E+02  0.89312050056E+02 0.  0.
         13    1    3    3    0    0 -0.36986223866E+02  0.12904160385E+02  0.12863225087E+02  0.41230714701E+02  0.10566000000E+00 0. -1.
         22    1    1    0    0    0  0.67177849829E+01  0.29693674323E+02 -0.30191193820E+01  0.30593430859E+02  0.00000000000E+00 0.  1.
</event>
<event>
 5    1  0.6835419E-004  0.9118800E+02  0.7818608E-02  0.1130116E+00
         25   -1    0    0    0    0  0.00000000000E+00  0.00000000000E+00  0.99999998245E-14  0.12500000000E+03  0.12500000000E+03 0.  0.
        -13    1    3    3    0    0 -0.25304873847E+02 -0.55299927604E+02  0.12977287523E+02  0.62183919054E+02  0.10566000000E+00 0.  1.
         23    2    1    0    0    0 -0.11211820485E+02 -0.28067599399E+02  0.21611193462E+01  0.94698754292E+02  0.89720056693E+02 0.  0.
         13    1    3    3    0    0  0.14093053362E+02  0.27232328204E+02 -0.10816168177E+02  0.32514835238E+02  0.10566000000E+00 0. -1.
         22    1    1    0    0    0  0.11211820485E+02  0.28067599399E+02 -0.21611193462E+01  0.30301245708E+02  0.00000000000E+00 0.  1.
</event>
<event>
 5    1  0.6835419E-004  0.9118800E+02  0.7818608E-02  0.1130116E+00
         25   -1    0    0    0    0  0.00000000000E+00  0.00000000000E+00  0.99999998245E-14  0.12500000000E+03  0.12500000000E+03 0.  0.
        -13    1    3    3    0    0 -0.13668308306E+02  0.38588574417E+02 -0.13100918990E+01  0.40958860242E+02  0.10566000000E+00 0.  1.
         23    2    1    0    0    0 -0.20343350151E+02 -0.10118966033E+02 -0.21135339064E+02  0.93968597739E+02  0.88696952793E+02 0.  0.
         13    1    3    3    0    0 -0.66750418443E+01 -0.48707540450E+02 -0.19825247165E+02  0.53009737497E+02  0.10566000000E+00 0. -1.
         22    1    1    0    0    0  0.20343350151E+02  0.10118966033E+02  0.21135339064E+02  0.31031402261E+02  0.00000000000E+00 0. -1.
</event>
<event>
 5    1  0.6835419E-004  0.9118800E+02  0.7818608E-02  0.1130116E+00
         25   -1    0    0    0    0  0.00000000000E+00  0.00000000000E+00  0.99999998245E-14  0.12500000000E+03  0.12500000000E+03 0.  0.
        -13    1    3    3    0    0 -0.27140877686E+02 -0.20849703912E+02  0.11987475216E+02  0.36263592222E+02  0.10566000000E+00 0. -1.
         23    2    1    0    0    0  0.27621704628E+02 -0.17702061376E+02  0.11784444120E+01  0.92171502094E+02  0.86127089371E+02 0.  0.
         13    1    3    3    0    0  0.54762582314E+02  0.31476425352E+01 -0.10809030804E+02  0.55907909872E+02  0.10566000000E+00 0.  1.
         22    1    1    0    0    0 -0.27621704628E+02  0.17702061376E+02 -0.11784444120E+01  0.32828497906E+02  0.00000000000E+00 0.  1.
</event>
<event>
 5    1  0.6835419E-004  0.9118800E+02  0.7818608E-02  0.1130116E+00
         25   -1    0    0    0    0  0.00000000000E+00  0.00000000000E+00  0.99999998245E-14  0.12500000000E+03  0.12500000000E+03 0.  0.
        -13    1    3    3    0    0 -0.19084653905E+02 -0.46500102411E+02  0.24923885908E+01  0.50326004251E+02  0.10566000000E+00 0. -1.
         23    2    1    0    0    0  0.24879695877E+01 -0.15204936561E+02 -0.23874277491E+02  0.96585897617E+02  0.92311832418E+02 0.  0.
         13    1    3    3    0    0  0.21572623493E+02  0.31295165850E+02 -0.26366666082E+02  0.46259893366E+02  0.10566000000E+00 0.  1.
         22    1    1    0    0    0 -0.24879695877E+01  0.15204936561E+02  0.23874277491E+02  0.28414102383E+02  0.00000000000E+00 0. -1.
</event>
<event>
 5    1  0.6835419E-004  0.9118800E+02  0.7818608E-02  0.1130116E+00
         25   -1    0    0    0    0  0.00000000000E+00  0.00000000000E+00  0.99999998245E-14  0.12500000000E+03  0.12500000000E+03 0.  0.
        -13    1    3    3    0    0  0.38902895884E+01 -0.26321485518E+02 -0.39486869465E+02  0.47614902889E+02  0.10566000000E+00 0. -1.
         23    2    1    0    0    0  0.92488222721E+01 -0.26141144426E+02  0.85752503457E+01  0.95975268066E+02  0.91481238605E+02 0.  0.
         13    1    3    3    0    0  0.53585326837E+01  0.18034109185E+00  0.48062119810E+02  0.48360365178E+02  0.10566000000E+00 0.  1.
         22    1    1    0    0    0 -0.92488222721E+01  0.26141144426E+02 -0.85752503457E+01  0.29024731934E+02  0.00000000000E+00 0.  1.
</event>
<event>
 5    1  0.6835419E-004  0.9118800E+02  0.7818608E-02  0.1130116E+00
         25   -1    0    0    0    0  0.00000000000E+00  0.00000000000E+00  0.99999998245E-14  0.12500000000E+03  0.12500000000E+03 0.  0.
        -13    1    3    3    0    0  0.17712809439E+01  0.30422535485E+02 -0.12552848566E+02  0.32958356644E+02  0.10566000000E+00 0. -1.
         23    2    1    0    0    0  0.45983320665E+01 -0.23815922676E+02  0.17555561027E+02  0.95057712952E+02  0.90218779852E+02 0.  0.
         13    1    3    3    0    0  0.28270511226E+01 -0.54238458160E+02  0.30108409593E+02  0.62099356308E+02  0.10566000000E+00 0.  1.
         22    1    1    0    0    0 -0.45983320665E+01  0.23815922676E+02 -0.17555561027E+02  0.29942287048E+02  0.00000000000E+00 0.  1.
</event>
<event>
 5    1  0.6835419E-004  0.9118800E+02  0.7818608E-02  0.1130116E+00
         25   -1    0    0    0    0  0.00000000000E+00  0.00000000000E+00  0.99999998245E-14  0.12500000000E+03  0.12500000000E+03 0.  0.
        -13    1    3    3    0    0 -0.38248250010E+02  0.15745260780E+02  0.39360488832E+02  0.57097295129E+02  0.10566000000E+00 0.  1.
         23    2    1    0    0    0 -0.11552381255E+02 -0.10493270596E+02  0.21126750800E+02  0.98733941296E+02  0.95176075376E+02 0.  0.
         13    1    3    3    0    0  0.26695868756E+02 -0.26238531376E+02 -0.18233738032E+02  0.41636646167E+02  0.10566000000E+00 0. -1.
         22    1    1    0    0    0  0.11552381255E+02  0.10493270596E+02 -0.21126750800E+02  0.26266058704E+02  0.00000000000E+00 0.  1.
</event>
<event>
 5    1  0.6835419E-004  0.9118800E+02  0.7818608E-02  0.1130116E+00
         25   -1    0    0    0    0  0.00000000000E+00  0.00000000000E+00  0.99999998245E-14  0.12500000000E+03  0.12500000000E+03 0.  0.
        -13    1    3    3    0    0  0.53415533173E+02 -0.13241778847E+01  0.13140425408E+02  0.55024127209E+02  0.10566000000E+00 0.  1.
         23    2    1    0    0    0  0.16873312230E+02 -0.10995452030E+02  0.23335578442E+02  0.94175369392E+02  0.88987877533E+02 0.  0.
         13    1    3    3    0    0 -0.36542220943E+02 -0.96712741451E+01  0.10195153034E+02  0.39151242182E+02  0.10566000000E+00 0. -1.
         22    1    1    0    0    0 -0.16873312230E+02  0.10995452030E+02 -0.23335578442E+02  0.30824630608E+02  0.00000000000E+00 0.  1.
</event>
<event>
 5    1  0.6835419E-004  0.9118800E+02  0.7818608E-02  0.1130116E+00
         25   -1    0    0    0    0  0.00000000000E+00  0.00000000000E+00  0.99999998245E-14  0.12500000000E+03  0.12500000000E+03 0.  0.
        -13    1    3    3    0    0 -0.10150598321E+01  0.96548023053E+00  0.42129742263E+02  0.42153159380E+02  0.10566000000E+00 0.  1.
         23    2    1    0    0    0 -0.14528005294E+02 -0.24263035077E+02 -0.39986882805E+01  0.96438709466E+02  0.92112308442E+02 0.  0.
         13    1    3    3    0    0 -0.13512945462E+02 -0.25228515307E+02 -0.46128430544E+02  0.54285550086E+02  0.10566000000E+00 0. -1.
         22    1    1    0    0    0  0.14528005294E+02  0.24263035077E+02  0.39986882805E+01  0.28561290534E+02  0.00000000000E+00 0. -1.
</event>
<event>
 5    1  0.6835419E-004  0.9118800E+02  0.7818608E-02  0.1130116E+00
         25   -1    0    0    0    0  0.00000000000E+00  0.00000000000E+00  0.99999998245E-14  0.12500000000E+03  0.12500000000E+03 0.  0.
        -13    1    3    3    0    0 -0.49551588800E+02  0.20441157653E+02  0.65302622136E+01  0.53998670052E+02  0.10566000000E+00 0. -1.
         23    2    1    0    0    0 -0.32390710707E+02 -0.95737128293E+01  0.12305556121E+02  0.89052248625E+02  0.81474303656E+02 0.  0.
         13    1    3    3    0    0  0.17160878092E+02 -0.30014870483E+02  0.57752939076E+01  0.35053578573E+02  0.10566000000E+00 0.  1.
         22    1    1    0    0    0  0.32390710707E+02  0.95737128293E+01 -0.12305556121E+02  0.35947751375E+02  0.00000000000E+00 0. -1.
</event>
<event>
 5    1  0.6835419E-004  0.9118800E+02  0.7818608E-02  0.1130116E+00
         25   -1    0    0    0    0  0.00000000000E+00  0.00000000000E+00  0.99999998245E-14  0.12500000000E+03  0.12500000000E+03 0.  0.
        -13    1    3    3    0    0  0.17208013757E+02 -0.10012369548E+02 -0.30664767995E+02  0.36560941476E+02  0.10566000000E+00 0. -1.
         23    2    1    0    0    0  0.14596476227E+02  0.24341832915E+02  0.14308453823E+02  0.93214566249E+02  0.87627858369E+02 0.  0.
         13    1    3    3    0    0 -0.26115375301E+01  0.34354202463E+02  0.44973221818E+02  0.56653624773E+02  0.10566000000E+00 0.  1.
         22    1    1    0    0    0 -0.14596476227E+02 -0.24341832915E+02 -0.14308453823E+02  0.31785433751E+02  0.00000000000E+00 0.  1.
</event>
<event>
 5    1  0.6835419E-004  0.9118800E+02  0.7818608E-02  0.1130116E+00
         25   -1    0    0    0    0  0.00000000000E+00  0.00000000000E+00  0.99999998245E-14  0.12500000000E+03  0.12500000000E+03 0.  0.
        -13    1    3    3    0    0  0.17612239421E+02  0.37820998444E+02  0.41914244838E+01  0.41930872922E+02  0.10566000000E+00 0.  1.
         23    2    1    0    0    0 -0.17498028003E+02 -0.28261911664E+01  0.20343023900E+02  0.98018395862E+02  0.94231624020E+02 0.  0.
         13    1    3    3    0    0 -0.35110267423E+02 -0.40647189611E+02  0.16151599416E+02  0.56087522940E+02  0.10566000000E+00 0. -1.
         22    1    1    0    0    0  0.17498028003E+02  0.28261911664E+01 -0.20343023900E+02  0.26981604138E+02  0.00000000000E+00 0. -1.
</event>
<event>
 5    1  0.6835419E-004  0.9118800E+02  0.7818608E-02  0.1130116E+00
         25   -1    0    0    0    0  0.00000000000E+00  0.00000000000E+00  0.99999998245E-14  0.12500000000E+03  0.12500000000E+03 0.  0.
        -13    1    3    3    0    0  0.52403288059E+01 -0.22262088354E+00  0.43545584074E+02  0.43860456705E+02  0.10566000000E+00 0.  1.
         23    2    1    0    0    0  0.21612074004E+02  0.22164659607E+02  0.17860480153E+01  0.93991229535E+02  0.88728841893E+02 0.  0.
         13    1    3    3    0    0  0.16371745198E+02  0.22387280491E+02 -0.41759536058E+02  0.50130772829E+02  0.10566000000E+00 0. -1.
         22    1    1    0    0    0 -0.21612074004E+02 -0.22164659607E+02 -0.17860480153E+01  0.31008770465E+02  0.00000000000E+00 0.  1.
</event>
<event>
 5    1  0.6835419E-004  0.9118800E+02  0.7818608E-02  0.1130116E+00
         25   -1    0    0    0    0  0.00000000000E+00  0.00000000000E+00  0.99999998245E-14  0.12500000000E+03  0.12500000000E+03 0.  0.
        -13    1    3    3    0    0 -0.22382074671E+02 -0.17467606650E+02  0.43894626987E+02  0.52276419072E+02  0.10566000000E+00 0. -1.
         23    2    1    0    0    0 -0.19190160549E+02  0.15512384730E+02  0.15982393147E+02  0.95600455231E+02  0.90967652535E+02 0.  0.
         13    1    3    3    0    0  0.31919141221E+01  0.32979991379E+02 -0.27912233840E+02  0.43324036159E+02  0.10566000000E+00 0.  1.
         22    1    1    0    0    0  0.19190160549E+02 -0.15512384730E+02 -0.15982393147E+02  0.29399544769E+02  0.00000000000E+00 0. -1.
</event>
<event>
 5    1  0.6835419E-004  0.9118800E+02  0.7818608E-02  0.1130116E+00
         25   -1    0    0    0    0  0.00000000000E+00  0.00000000000E+00  0.99999998245E-14  0.12500000000E+03  0.12500000000E+03 0.  0.
        -13    1    3    3    0    0 -0.36139446789E+02 -0.21098585937E+02 -0.41079141334E+01  0.42048734408E+02  0.10566000000E+00 0.  1.
         23    2    1    0    0    0  0.12274868741E+02 -0.27439839152E+02 -0.13953033266E+02  0.91859325405E+02  0.85672815707E+02 0.  0.
         13    1    3    3    0    0  0.48414315531E+02 -0.63412532151E+01 -0.98451191323E+01  0.49810590997E+02  0.10566000000E+00 0. -1.
         22    1    1    0    0    0 -0.12274868741E+02  0.27439839152E+02  0.13953033266E+02  0.33140674595E+02  0.00000000000E+00 0. -1.
</event>
<event>
 5    1  0.6835419E-004  0.9118800E+02  0.7818608E-02  0.1130116E+00
         25   -1    0    0    0    0  0.00000000000E+00  0.00000000000E+00  0.99999998245E-14  0.12500000000E+03  0.12500000000E+03 0.  0.
        -13    1    3    3    0    0  0.10060513493E+02  0.43787753804E+02  0.36904233451E+02  0.58142195741E+02  0.10566000000E+00 0.  1.
         23    2    1    0    0    0 -0.11762450277E+02  0.19444402786E+02  0.18752399741E+02  0.95536589942E+02  0.90879851923E+02 0.  0.
         13    1    3    3    0    0 -0.21822963771E+02 -0.24343351019E+02 -0.18151833710E+02  0.37394394201E+02  0.10566000000E+00 0. -1.
         22    1    1    0    0    0  0.11762450277E+02 -0.19444402786E+02 -0.18752399741E+02  0.29463410058E+02  0.00000000000E+00 0.  1.
</event>
<event>
 5    1  0.6835419E-004  0.9118800E+02  0.7818608E-02  0.1130116E+00
         25   -1    0    0    0    0  0.00000000000E+00  0.00000000000E+00  0.99999998245E-14  0.12500000000E+03  0.12500000000E+03 0.  0.
        -13    1    3    3    0    0  0.27639500174E+02 -0.28613779538E+02  0.25260170019E+01  0.39863294837E+02  0.10566000000E+00 0. -1.
         23    2    1    0    0    0 -0.21095491828E+02 -0.66949605801E+01  0.19051198153E+02  0.95797424365E+02  0.91237909288E+02 0.  0.
         13    1    3    3    0    0 -0.48734992003E+02  0.21918818958E+02  0.16525181151E+02  0.55934129528E+02  0.10566000000E+00 0.  1.
         22    1    1    0    0    0  0.21095491828E+02  0.66949605801E+01 -0.19051198153E+02  0.29202575635E+02  0.00000000000E+00 0.  1.
</event>
<event>
 5    1  0.6835419E-004  0.9118800E+02  0.7818608E-02  0.1130116E+00
         25   -1    0    0    0    0  0.00000000000E+00  0.00000000000E+00  0.99999998245E-14  0.12500000000E+03  0.12500000000E+03 0.  0.
        -13    1    3    3    0    0 -0.19160138504E+02  0.42018975741E+02 -0.11397544622E+02  0.47567009757E+02  0.10566000000E+00 0. -1.
         23    2    1    0    0    0 -0.28209335408E+02 -0.45939049758E+01 -0.86889736538E+01  0.95127456917E+02  0.90315359874E+02 0.  0.
         13    1    3    3    0    0 -0.90491969041E+01 -0.46612880717E+02  0.27085709678E+01  0.47560447160E+02  0.10566000000E+00 0.  1.
         22    1    1    0    0    0  0.28209335408E+02  0.45939049758E+01  0.86889736538E+01  0.29872543083E+02  0.00000000000E+00 0. -1.
</event>
<event>
 5    1  0.6835419E-004  0.9118800E+02  0.7818608E-02  0.1130116E+00
         25   -1    0    0    0    0  0.00000000000E+00  0.00000000000E+00  0.99999998245E-14  0.12500000000E+03  0.12500000000E+03 0.  0.
        -13    1    3    3    0    0  0.85178414030E+01 -0.24467236114E+02  0.25299662327E+02  0.36211646512E+02  0.10566000000E+00 0.  1.
         23    2    1    0    0    0  0.56167556171E+00  0.39270655744E+01 -0.27783150492E+02  0.96935061469E+02  0.92783432612E+02 0.  0.
         13    1    3    3    0    0 -0.79561658413E+01  0.28394301688E+02 -0.53082812819E+02  0.60723414957E+02  0.10566000000E+00 0. -1.
         22    1    1    0    0    0 -0.56167556171E+00 -0.39270655744E+01  0.27783150492E+02  0.28064938531E+02  0.00000000000E+00 0. -1.
</event>
<event>
 5    1  0.6835419E-004  0.9118800E+02  0.7818608E-02  0.1130116E+00
         25   -1    0    0    0    0  0.00000000000E+00  0.00000000000E+00  0.99999998245E-14  0.12500000000E+03  0.12500000000E+03 0.  0.
        -13    1    3    3    0    0  0.22520474424E+02 -0.40433511758E+01  0.46592540661E+02  0.51907576194E+02  0.10566000000E+00 0. -1.
         23    2    1    0    0    0  0.16896225482E+02 -0.23054104029E+02  0.79610685818E+01  0.95329260861E+02  0.90594233896E+02 0.  0.
         13    1    3    3    0    0 -0.56242489421E+01 -0.19010752853E+02 -0.38631472080E+02  0.43421684667E+02  0.10566000000E+00 0.  1.
         22    1    1    0    0    0 -0.16896225482E+02  0.23054104029E+02 -0.79610685818E+01  0.29670739139E+02  0.00000000000E+00 0.  1.
</event>
<event>
 5    1  0.6835419E-004  0.9118800E+02  0.7818608E-02  0.1130116E+00
         25   -1    0    0    0    0  0.00000000000E+00  0.00000000000E+00  0.99999998245E-14  0.12500000000E+03  0.12500000000E+03 0.  0.
        -13    1    3    3    0    0 -0.20102477472E+02  0.48119712270E+02  0.31696789985E+02  0.61027157634E+02  0.10566000000E+00 0. -1.
         23    2    1    0    0    0 -0.14146374482E+02  0.21150922687E+02  0.57704515375E+01  0.98908247425E+02  0.95404726593E+02 0.  0.
         13    1    3    3    0    0  0.59561029897E+01 -0.26968789583E+02 -0.25926338448E+02  0.37881089791E+02  0.10566000000E+00 0.  1.
         22    1    1    0    0    0  0.14146374482E+02 -0.21150922687E+02 -0.57704515375E+01  0.26091752575E+02  0.00000000000E+00 0. -1.
</event>
<event>
 5    1  0.6835419E-004  0.9118800E+02  0.7818608E-02  0.1130116E+00
         25   -1    0    0    0    0  0.00000000000E+00  0.00000000000E+00  0.99999998245E-14  0.12500000000E+03  0.12500000000E+03 0.  0.
        -13    1    3    3    0    0  0.65396676364E+01  0.37160059165E+02 -0.39964560868E+02  0.54961937186E+02  0.10566000000E+00 0.  1.
         23    2    1    0    0    0  0.31178901657E+01 -0.13669279168E+01 -0.29870453965E+02  0.94936172049E+02  0.90050224943E+02 0.  0.
         13    1    3    3    0    0 -0.34217774706E+01 -0.38526987082E+02  0.10094106903E+02  0.39974234862E+02  0.10566000000E+00 0. -1.
         22    1    1    0    0    0 -0.31178901657E+01  0.13669279168E+01  0.29870453965E+02  0.30063827951E+02  0.00000000000E+00 0.  1.
</event>
<event>
 5    1  0.6835419E-004  0.9118800E+02  0.7818608E-02  0.1130116E+00
         25   -1    0    0    0    0  0.00000000000E+00  0.00000000000E+00  0.99999998245E-14  0.12500000000E+03  0.12500000000E+03 0.  0.
        -13    1    3    3    0    0  0.35301597727E+02 -0.39844631543E+01  0.16952368004E+02  0.39363342003E+02  0.10566000000E+00 0.  1.
         23    2    1    0    0    0 -0.32951540886E+01  0.27390601979E+02 -0.96525734171E+01  0.95772011858E+02  0.91203086377E+02 0.  0.
         13    1    3    3    0    0 -0.38596751815E+02  0.31375065133E+02 -0.26604941421E+02  0.56408669855E+02  0.10566000000E+00 0. -1.
         22    1    1    0    0    0  0.32951540886E+01 -0.27390601979E+02  0.96525734171E+01  0.29227988142E+02  0.00000000000E+00 0.  1.
</event>
<event>
 5    1  0.6835419E-004  0.9118800E+02  0.7818608E-02  0.1130116E+00
         25   -1    0    0    0    0  0.00000000000E+00  0.00000000000E+00  0.99999998245E-14  0.12500000000E+03  0.12500000000E+03 0.  0.
        -13    1    3    3    0    0  0.18036490166E+02  0.11832450888E+02  0.25045062648E+02  0.33054321935E+02  0.10566000000E+00 0.  1.
         23    2    1    0    0    0 -0.13983838361E+02 -0.11533168347E+02 -0.23240615702E+02  0.95526487729E+02  0.90865955848E+02 0.  0.
         13    1    3    3    0    0 -0.32020328527E+02 -0.23365619235E+02 -0.48285678349E+02  0.62472165793E+02  0.10566000000E+00 0. -1.
         22    1    1    0    0    0  0.13983838361E+02  0.11533168347E+02  0.23240615702E+02  0.29473512271E+02  0.00000000000E+00 0. -1.
</event>
<event>
 5    1  0.6835419E-004  0.9118800E+02  0.7818608E-02  0.1130116E+00
         25   -1    0    0    0    0  0.00000000000E+00  0.00000000000E+00  0.99999998245E-14  0.12500000000E+03  0.12500000000E+03 0.  0.
        -13    1    3    3    0    0  0.26647055928E+02  0.27099242256E+02 -0.33252556728E+02  0.50499289237E+02  0.10566000000E+00 0.  1.
         23    2    1    0    0    0  0.16430945889E+02 -0.15627434702E+02 -0.12840344745E+02  0.98941083074E+02  0.95447738415E+02 0.  0.
         13    1    3    3    0    0 -0.10216110038E+02 -0.42726676957E+02  0.20412211982E+02  0.48441793838E+02  0.10566000000E+00 0. -1.
         22    1    1    0    0    0 -0.16430945889E+02  0.15627434702E+02  0.12840344745E+02  0.26058916926E+02  0.00000000000E+00 0.  1.
</event>
<event>
 5    1  0.6835419E-004  0.9118800E+02  0.7818608E-02  0.1130116E+00
         25   -1    0    0    0    0  0.00000000000E+00  0.00000000000E+00  0.99999998245E-14  0.12500000000E+03  0.12500000000E+03 0.  0.
        -13    1    3    3    0    0 -0.35686432419E+02  0.33357483189E+02 -0.22163591316E+02  0.53642139103E+02  0.10566000000E+00 0. -1.
         23    2    1    0    0    0 -0.56467448076E+01  0.73484744032E+01 -0.29526333000E+02  0.94053430830E+02  0.88816427013E+02 0.  0.
         13    1    3    3    0    0  0.30039687611E+02 -0.26009008786E+02 -0.73627416842E+01  0.40411291726E+02  0.10566000000E+00 0.  1.
         22    1    1    0    0    0  0.56467448076E+01 -0.73484744032E+01  0.29526333000E+02  0.30946569170E+02  0.00000000000E+00 0. -1.
</event>
<event>
 5    1  0.6835419E-004  0.9118800E+02  0.7818608E-02  0.1130116E+00
         25   -1    0    0    0    0  0.00000000000E+00  0.00000000000E+00  0.99999998245E-14  0.12500000000E+03  0.12500000000E+03 0.  0.
        -13    1    3    3    0    0  0.13696543122E+02 -0.30018114930E+02  0.27475458647E+02  0.42937099452E+02  0.10566000000E+00 0.  1.
         23    2    1    0    0    0  0.18992406871E+01  0.18468096022E+02  0.26243839164E+02  0.92853199538E+02  0.87110848260E+02 0.  0.
         13    1    3    3    0    0 -0.11797302435E+02  0.48486210952E+02 -0.12316194829E+01  0.49916100086E+02  0.10566000000E+00 0. -1.
         22    1    1    0    0    0 -0.18992406871E+01 -0.18468096022E+02 -0.26243839164E+02  0.32146800462E+02  0.00000000000E+00 0.  1.
</event>
<event>
 5    1  0.6835419E-004  0.9118800E+02  0.7818608E-02  0.1130116E+00
         25   -1    0    0    0    0  0.00000000000E+00  0.00000000000E+00  0.99999998245E-14  0.12500000000E+03  0.12500000000E+03 0.  0.
        -13    1    3    3    0    0  0.14140764442E+02  0.40939021054E+02  0.21807671354E+02  0.48492786658E+02  0.10566000000E+00 0.  1.
         23    2    1    0    0    0  0.47640799563E+01  0.24551979497E+02 -0.19089176011E+02  0.93537438187E+02  0.88087226922E+02 0.  0.
         13    1    3    3    0    0 -0.93766844861E+01 -0.16387041557E+02 -0.40896847365E+02  0.45044651529E+02  0.10566000000E+00 0. -1.
         22    1    1    0    0    0 -0.47640799563E+01 -0.24551979497E+02  0.19089176011E+02  0.31462561813E+02  0.00000000000E+00 0. -1.
</event>
<event>
 5    1  0.6835419E-004  0.9118800E+02  0.7818608E-02  0.1130116E+00
         25   -1    0    0    0    0  0.00000000000E+00  0.00000000000E+00  0.99999998245E-14  0.12500000000E+03  0.12500000000E+03 0.  0.
        -13    1    3    3    0    0  0.10503996288E+02  0.23165769091E+02 -0.31452531901E+02  0.40450707319E+02  0.10566000000E+00 0.  1.
         23    2    1    0    0    0 -0.99725440015E+01  0.26521662077E+02  0.16154856334E+02  0.92383599580E+02  0.86434367557E+02 0.  0.
         13    1    3    3    0    0 -0.20476540289E+02  0.33558929863E+01  0.47607388235E+02  0.51932892261E+02  0.10566000000E+00 0. -1.
         22    1    1    0    0    0  0.99725440015E+01 -0.26521662077E+02 -0.16154856334E+02  0.32616400420E+02  0.00000000000E+00 0.  1.
</event>
<event>
 5    1  0.6835419E-004  0.9118800E+02  0.7818608E-02  0.1130116E+00
         25   -1    0    0    0    0  0.00000000000E+00  0.00000000000E+00  0.99999998245E-14  0.12500000000E+03  0.12500000000E+03 0.  0.
        -13    1    3    3    0    0  0.40636906367E+02 -0.13320647571E+02  0.14343045884E+02  0.45105786105E+02  0.10566000000E+00 0.  1.
         23    2    1    0    0    0 -0.54231484031E+01 -0.19067592593E+02 -0.15105833576E+02  0.10007672104E+03  0.96923579489E+02 0.  0.
         13    1    3    3    0    0 -0.46060054771E+02 -0.57469450219E+01 -0.29448879461E+02  0.54970934939E+02  0.10566000000E+00 0. -1.
         22    1    1    0    0    0  0.54231484031E+01  0.19067592593E+02  0.15105833576E+02  0.24923278956E+02  0.00000000000E+00 0. -1.
</event>
<event>
 5    1  0.6835419E-004  0.9118800E+02  0.7818608E-02  0.1130116E+00
         25   -1    0    0    0    0  0.00000000000E+00  0.00000000000E+00  0.99999998245E-14  0.12500000000E+03  0.12500000000E+03 0.  0.
        -13    1    3    3    0    0 -0.28837541748E+02  0.24622817315E+02 -0.47489894047E+00  0.37922600644E+02  0.10566000000E+00 0.  1.
         23    2    1    0    0    0  0.53381968010E+01 -0.19700278509E+01 -0.32641829580E+02  0.91865933042E+02  0.85682455967E+02 0.  0.
         13    1    3    3    0    0  0.34175738549E+02 -0.26592845166E+02 -0.32166930640E+02  0.53943332398E+02  0.10566000000E+00 0. -1.
         22    1    1    0    0    0 -0.53381968010E+01  0.19700278509E+01  0.32641829580E+02  0.33134066958E+02  0.00000000000E+00 0. -1.
</event>
<event>
 5    1  0.6835419E-004  0.9118800E+02  0.7818608E-02  0.1130116E+00
         25   -1    0    0    0    0  0.00000000000E+00  0.00000000000E+00  0.99999998245E-14  0.12500000000E+03  0.12500000000E+03 0.  0.
        -13    1    3    3    0    0  0.18967749486E+02  0.20742924024E+02 -0.48755544996E+02  0.56277515488E+02  0.10566000000E+00 0. -1.
         23    2    1    0    0    0  0.34738411368E+01  0.20617247961E+02 -0.39031269450E+01  0.10373094065E+03  0.10152701691E+03 0.  0.
         13    1    3    3    0    0 -0.15493908349E+02 -0.12567606327E+00  0.44852418051E+02  0.47453425161E+02  0.10566000000E+00 0.  1.
         22    1    1    0    0    0 -0.34738411368E+01 -0.20617247961E+02  0.39031269450E+01  0.21269059351E+02  0.00000000000E+00 0. -1.
</event>
<event>
 5    1  0.6835419E-004  0.9118800E+02  0.7818608E-02  0.1130116E+00
         25   -1    0    0    0    0  0.00000000000E+00  0.00000000000E+00  0.99999998245E-14  0.12500000000E+03  0.12500000000E+03 0.  0.
        -13    1    3    3    0    0  0.13351420210E+02  0.41696340306E+02 -0.36056544506E+02  0.56717993461E+02  0.10566000000E+00 0.  1.
         23    2    1    0    0    0  0.22771504879E+02  0.99751654123E+01 -0.14300169360E+02  0.96320038299E+02  0.91951126011E+02 0.  0.
         13    1    3    3    0    0  0.94200846695E+01 -0.31721174893E+02  0.21756375146E+02  0.39602044838E+02  0.10566000000E+00 0. -1.
         22    1    1    0    0    0 -0.22771504879E+02 -0.99751654123E+01  0.14300169360E+02  0.28679961701E+02  0.00000000000E+00 0.  1.
</event>
<event>
 5    1  0.6835419E-004  0.9118800E+02  0.7818608E-02  0.1130116E+00
         25   -1    0    0    0    0  0.00000000000E+00  0.00000000000E+00  0.99999998245E-14  0.12500000000E+03  0.12500000000E+03 0.  0.
        -13    1    3    3    0    0  0.36304095708E+02  0.17587883465E+02 -0.13943594354E+02  0.42682033662E+02  0.10566000000E+00 0.  1.
         23    2    1    0    0    0 -0.54806406117E+00  0.17727243447E+02  0.23724286634E+02  0.95379106854E+02  0.90662984252E+02 0.  0.
         13    1    3    3    0    0 -0.36852159770E+02  0.13935998210E+00  0.37667880988E+02  0.52697073192E+02  0.10566000000E+00 0. -1.
         22    1    1    0    0    0  0.54806406117E+00 -0.17727243447E+02 -0.23724286634E+02  0.29620893146E+02  0.00000000000E+00 0. -1.
</event>
<event>
 5    1  0.6835419E-004  0.9118800E+02  0.7818608E-02  0.1130116E+00
         25   -1    0    0    0    0  0.00000000000E+00  0.00000000000E+00  0.99999998245E-14  0.12500000000E+03  0.12500000000E+03 0.  0.
        -13    1    3    3    0    0 -0.25413647099E+01  0.59867568844E+02  0.17248778093E+02  0.62354757987E+02  0.10566000000E+00 0. -1.
         23    2    1    0    0    0 -0.26069186940E+01  0.26659087665E+02  0.10420574066E+02  0.96258195184E+02  0.91867016910E+02 0.  0.
         13    1    3    3    0    0 -0.65553984163E-01 -0.33208481178E+02 -0.68282040268E+01  0.33903437197E+02  0.10566000000E+00 0.  1.
         22    1    1    0    0    0  0.26069186940E+01 -0.26659087665E+02 -0.10420574066E+02  0.28741804816E+02  0.00000000000E+00 0. -1.
</event>
<event>
 5    1  0.6835419E-004  0.9118800E+02  0.7818608E-02  0.1130116E+00
         25   -1    0    0    0    0  0.00000000000E+00  0.00000000000E+00  0.99999998245E-14  0.12500000000E+03  0.12500000000E+03 0.  0.
        -13    1    3    3    0    0 -0.11375481631E+02 -0.30552078841E+02 -0.42569653054E+02  0.53619190865E+02  0.10566000000E+00 0. -1.
         23    2    1    0    0    0 -0.12254710343E+01 -0.29846303714E+02 -0.24283575321E+01  0.95030005924E+02  0.90180383016E+02 0.  0.
         13    1    3    3    0    0  0.10150010597E+02  0.70577512743E+00  0.40141295522E+02  0.41410815059E+02  0.10566000000E+00 0.  1.
         22    1    1    0    0    0  0.12254710343E+01  0.29846303714E+02  0.24283575321E+01  0.29969994076E+02  0.00000000000E+00 0. -1.
</event>
<event>
 5    1  0.6835419E-004  0.9118800E+02  0.7818608E-02  0.1130116E+00
         25   -1    0    0    0    0  0.00000000000E+00  0.00000000000E+00  0.99999998245E-14  0.12500000000E+03  0.12500000000E+03 0.  0.
        -13    1    3    3    0    0  0.26908536228E+02 -0.15483992196E+02 -0.19208120173E+02  0.36507346944E+02  0.10566000000E+00 0. -1.
         23    2    1    0    0    0 -0.19271817662E+02  0.19696017193E+02 -0.11768529642E+02  0.95036116086E+02  0.90188851980E+02 0.  0.
         13    1    3    3    0    0 -0.46180353890E+02  0.35180009389E+02  0.74395905311E+01  0.58528769142E+02  0.10566000000E+00 0.  1.
         22    1    1    0    0    0  0.19271817662E+02 -0.19696017193E+02  0.11768529642E+02  0.29963883914E+02  0.00000000000E+00 0.  1.
</event>
<event>
 5    1  0.6835419E-004  0.9118800E+02  0.7818608E-02  0.1130116E+00
         25   -1    0    0    0    0  0.00000000000E+00  0.00000000000E+00  0.99999998245E-14  0.12500000000E+03  0.12500000000E+03 0.  0.
        -13    1    3    3    0    0 -0.15301761109E+02 -0.21443320046E+02  0.55235906395E+02  0.61196212195E+02  0.10566000000E+00 0. -1.
         23    2    1    0    0    0 -0.80391836223E+01 -0.14209752778E+01  0.28358861926E+02  0.95489447755E+02  0.90814987413E+02 0.  0.
         13    1    3    3    0    0  0.72625774868E+01  0.20022344769E+02 -0.26877044469E+02  0.34293235561E+02  0.10566000000E+00 0.  1.
         22    1    1    0    0    0  0.80391836223E+01  0.14209752778E+01 -0.28358861926E+02  0.29510552245E+02  0.00000000000E+00 0. -1.
</event>
<event>
 5    1  0.6835419E-004  0.9118800E+02  0.7818608E-02  0.1130116E+00
         25   -1    0    0    0    0  0.00000000000E+00  0.00000000000E+00  0.99999998245E-14  0.12500000000E+03  0.12500000000E+03 0.  0.
        -13    1    3    3    0    0  0.54420405556E+02  0.20734245924E+02 -0.35149797971E+01  0.58342572294E+02  0.10566000000E+00 0.  1.
         23    2    1    0    0    0  0.16702136420E+02  0.21558115212E+02  0.56100623260E+01  0.97157828896E+02  0.93083066257E+02 0.  0.
         13    1    3    3    0    0 -0.37718269136E+02  0.82386928860E+00  0.91250421232E+01  0.38815256601E+02  0.10566000000E+00 0. -1.
         22    1    1    0    0    0 -0.16702136420E+02 -0.21558115212E+02 -0.56100623260E+01  0.27842171104E+02  0.00000000000E+00 0.  1.
</event>
<event>
 5    1  0.6835419E-004  0.9118800E+02  0.7818608E-02  0.1130116E+00
         25   -1    0    0    0    0  0.00000000000E+00  0.00000000000E+00  0.99999998245E-14  0.12500000000E+03  0.12500000000E+03 0.  0.
        -13    1    3    3    0    0  0.26293073932E+02 -0.27721596816E+02  0.73783606686E+01  0.38913545675E+02  0.10566000000E+00 0. -1.
         23    2    1    0    0    0  0.10180937735E+02  0.26170682483E+02 -0.49183099049E+01  0.96491301554E+02  0.92183650331E+02 0.  0.
         13    1    3    3    0    0 -0.16112136197E+02  0.53892279298E+02 -0.12296670573E+02  0.57577755879E+02  0.10566000000E+00 0.  1.
         22    1    1    0    0    0 -0.10180937735E+02 -0.26170682483E+02  0.49183099049E+01  0.28508698446E+02  0.00000000000E+00 0.  1.
</event>
<event>
 5    1  0.6835419E-004  0.9118800E+02  0.7818608E-02  0.1130116E+00
         25   -1    0    0    0    0  0.00000000000E+00  0.00000000000E+00  0.99999998245E-14  0.12500000000E+03  0.12500000000E+03 0.  0.
        -13    1    3    3    0    0  0.27624027862E+02  0.14090266400E+02 -0.38656067589E+02  0.49557292582E+02  0.10566000000E+00 0.  1.
         23    2    1    0    0    0  0.30333477749E+02 -0.98907287006E+00  0.35360700388E+01  0.94445099758E+02  0.89365960743E+02 0.  0.
         13    1    3    3    0    0  0.27094498864E+01 -0.15079339270E+02  0.42192137628E+02  0.44887807177E+02  0.10566000000E+00 0. -1.
         22    1    1    0    0    0 -0.30333477749E+02  0.98907287006E+00 -0.35360700388E+01  0.30554900242E+02  0.00000000000E+00 0. -1.
</event>
<event>
 5    1  0.6835419E-004  0.9118800E+02  0.7818608E-02  0.1130116E+00
         25   -1    0    0    0    0  0.00000000000E+00  0.00000000000E+00  0.99999998245E-14  0.12500000000E+03  0.12500000000E+03 0.  0.
        -13    1    3    3    0    0  0.29740986382E+02  0.48615319204E+02  0.33809509739E+01  0.57091308671E+02  0.10566000000E+00 0. -1.
         23    2    1    0    0    0 -0.21007282128E+01  0.26990767705E+02  0.99861188119E+01  0.96144546975E+02  0.91712249694E+02 0.  0.
         13    1    3    3    0    0 -0.31841714595E+02 -0.21624551499E+02  0.66051678380E+01  0.39053238304E+02  0.10566000000E+00 0.  1.
         22    1    1    0    0    0  0.21007282128E+01 -0.26990767705E+02 -0.99861188119E+01  0.28855453025E+02  0.00000000000E+00 0. -1.
</event>
<event>
 5    1  0.6835419E-004  0.9118800E+02  0.7818608E-02  0.1130116E+00
         25   -1    0    0    0    0  0.00000000000E+00  0.00000000000E+00  0.99999998245E-14  0.12500000000E+03  0.12500000000E+03 0.  0.
        -13    1    3    3    0    0 -0.45452900775E+02 -0.17929093303E+02  0.32101412077E+02  0.58463068658E+02  0.10566000000E+00 0.  1.
         23    2    1    0    0    0 -0.29709428666E+02 -0.11236340535E+02  0.18915480317E+01  0.93180454840E+02  0.87579185369E+02 0.  0.
         13    1    3    3    0    0  0.15743472109E+02  0.66927527678E+01 -0.30209864045E+02  0.34717386182E+02  0.10566000000E+00 0. -1.
         22    1    1    0    0    0  0.29709428666E+02  0.11236340535E+02 -0.18915480317E+01  0.31819545160E+02  0.00000000000E+00 0.  1.
</event>
<event>
 5    1  0.6835419E-004  0.9118800E+02  0.7818608E-02  0.1130116E+00
         25   -1    0    0    0    0  0.00000000000E+00  0.00000000000E+00  0.99999998245E-14  0.12500000000E+03  0.12500000000E+03 0.  0.
        -13    1    3    3    0    0 -0.14289463095E+02  0.71422049033E-02  0.39594146431E+02  0.42093899821E+02  0.10566000000E+00 0.  1.
         23    2    1    0    0    0 -0.27204264419E+02  0.54124626354E+01 -0.11426843228E+02  0.95001008342E+02  0.90140180194E+02 0.  0.
         13    1    3    3    0    0 -0.12914801324E+02  0.54053204305E+01 -0.51020989659E+02  0.52907108521E+02  0.10566000000E+00 0. -1.
         22    1    1    0    0    0  0.27204264419E+02 -0.54124626354E+01  0.11426843228E+02  0.29998991658E+02  0.00000000000E+00 0. -1.
</event>
<event>
 5    1  0.6835419E-004  0.9118800E+02  0.7818608E-02  0.1130116E+00
         25   -1    0    0    0    0  0.00000000000E+00  0.00000000000E+00  0.99999998245E-14  0.12500000000E+03  0.12500000000E+03 0.  0.
        -13    1    3    3    0    0  0.51059136245E+02 -0.33808624573E+02  0.20657729057E+01  0.61272645376E+02  0.10566000000E+00 0. -1.
         23    2    1    0    0    0  0.26403505068E+02 -0.12154369022E+02 -0.65598245372E+01  0.95202264110E+02  0.90418836686E+02 0.  0.
         13    1    3    3    0    0 -0.24655631177E+02  0.21654255551E+02 -0.86255974429E+01  0.33929618735E+02  0.10566000000E+00 0.  1.
         22    1    1    0    0    0 -0.26403505068E+02  0.12154369022E+02  0.65598245372E+01  0.29797735890E+02  0.00000000000E+00 0. -1.
</event>
<event>
 5    1  0.6835419E-004  0.9118800E+02  0.7818608E-02  0.1130116E+00
         25   -1    0    0    0    0  0.00000000000E+00  0.00000000000E+00  0.99999998245E-14  0.12500000000E+03  0.12500000000E+03 0.  0.
        -13    1    3    3    0    0 -0.25981393045E+02  0.31317002228E+02  0.23440246269E+01  0.40758962555E+02  0.10566000000E+00 0.  1.
         23    2    1    0    0    0  0.82931192295E+01  0.46021370591E+01 -0.29096883349E+02  0.94396338247E+02  0.89297729880E+02 0.  0.
         13    1    3    3    0    0  0.34274512274E+02 -0.26714865169E+02 -0.31440907976E+02  0.53637375691E+02  0.10566000000E+00 0. -1.
         22    1    1    0    0    0 -0.82931192295E+01 -0.46021370591E+01  0.29096883349E+02  0.30603661753E+02  0.00000000000E+00 0. -1.
</event>
<event>
 5    1  0.6835419E-004  0.9118800E+02  0.7818608E-02  0.1130116E+00
         25   -1    0    0    0    0  0.00000000000E+00  0.00000000000E+00  0.99999998245E-14  0.12500000000E+03  0.12500000000E+03 0.  0.
        -13    1    3    3    0    0 -0.26958947405E+02 -0.26393363224E+02  0.12642124801E+02  0.39789809638E+02  0.10566000000E+00 0.  1.
         23    2    1    0    0    0  0.10291633935E+02  0.18856272942E+02  0.15563459856E+02  0.98472692541E+02  0.94832342243E+02 0.  0.
         13    1    3    3    0    0  0.37250581340E+02  0.45249636166E+02  0.29213350548E+01  0.58682882904E+02  0.10566000000E+00 0. -1.
         22    1    1    0    0    0 -0.10291633935E+02 -0.18856272942E+02 -0.15563459856E+02  0.26527307459E+02  0.00000000000E+00 0. -1.
</event>
<event>
 5    1  0.6835419E-004  0.9118800E+02  0.7818608E-02  0.1130116E+00
         25   -1    0    0    0    0  0.00000000000E+00  0.00000000000E+00  0.99999998245E-14  0.12500000000E+03  0.12500000000E+03 0.  0.
        -13    1    3    3    0    0 -0.19223051619E+02 -0.48036368614E+02  0.16651869486E+02  0.54353604706E+02  0.10566000000E+00 0.  1.
         23    2    1    0    0    0 -0.44316737586E+01 -0.10525881194E+02  0.26744413058E+02  0.95919120766E+02  0.91404486714E+02 0.  0.
         13    1    3    3    0    0  0.14791377861E+02  0.37510487420E+02  0.10092543573E+02  0.41565516059E+02  0.10566000000E+00 0. -1.
         22    1    1    0    0    0  0.44316737586E+01  0.10525881194E+02 -0.26744413058E+02  0.29080879234E+02  0.00000000000E+00 0.  1.
</event>
<event>
 5    1  0.6835419E-004  0.9118800E+02  0.7818608E-02  0.1130116E+00
         25   -1    0    0    0    0  0.00000000000E+00  0.00000000000E+00  0.99999998245E-14  0.12500000000E+03  0.12500000000E+03 0.  0.
        -13    1    3    3    0    0  0.30591585297E+02 -0.29082933028E+02 -0.40324592015E+02  0.58375902303E+02  0.10566000000E+00 0.  1.
         23    2    1    0    0    0  0.20237779260E+01 -0.23592460454E+02 -0.21423445303E+02  0.93067823814E+02  0.87418281574E+02 0.  0.
         13    1    3    3    0    0 -0.28567807371E+02  0.54904725743E+01  0.18901146712E+02  0.34691921511E+02  0.10566000000E+00 0. -1.
         22    1    1    0    0    0 -0.20237779260E+01  0.23592460454E+02  0.21423445303E+02  0.31932176186E+02  0.00000000000E+00 0. -1.
</event>
<event>
 5    1  0.6835419E-004  0.9118800E+02  0.7818608E-02  0.1130116E+00
         25   -1    0    0    0    0  0.00000000000E+00  0.00000000000E+00  0.99999998245E-14  0.12500000000E+03  0.12500000000E+03 0.  0.
        -13    1    3    3    0    0 -0.38737046389E+02 -0.17906435436E+02  0.18448637253E+02  0.46492607730E+02  0.10566000000E+00 0.  1.
         23    2    1    0    0    0 -0.17483474912E+02  0.16363335439E+02 -0.13110738002E+02  0.97699412228E+02  0.93807531985E+02 0.  0.
         13    1    3    3    0    0  0.21253571477E+02  0.34269770876E+02 -0.31559375256E+02  0.51206804499E+02  0.10566000000E+00 0. -1.
         22    1    1    0    0    0  0.17483474912E+02 -0.16363335439E+02  0.13110738002E+02  0.27300587772E+02  0.00000000000E+00 0. -1.
</event>
<event>
 5    1  0.6835419E-004  0.9118800E+02  0.7818608E-02  0.1130116E+00
         25   -1    0    0    0    0  0.00000000000E+00  0.00000000000E+00  0.99999998245E-14  0.12500000000E+03  0.12500000000E+03 0.  0.
        -13    1    3    3    0    0 -0.30768767571E+02 -0.15562871268E+02 -0.48525190126E+02  0.59528356778E+02  0.10566000000E+00 0.  1.
         23    2    1    0    0    0 -0.52310846255E+01  0.49404464821E+00 -0.29148422043E+02  0.95381782058E+02  0.90666672567E+02 0.  0.
         13    1    3    3    0    0  0.25537682945E+02  0.16056915916E+02  0.19376768083E+02  0.35853425280E+02  0.10566000000E+00 0. -1.
         22    1    1    0    0    0  0.52310846255E+01 -0.49404464821E+00  0.29148422043E+02  0.29618217942E+02  0.00000000000E+00 0.  1.
</event>
<event>
 5    1  0.6835419E-004  0.9118800E+02  0.7818608E-02  0.1130116E+00
         25   -1    0    0    0    0  0.00000000000E+00  0.00000000000E+00  0.99999998245E-14  0.12500000000E+03  0.12500000000E+03 0.  0.
        -13    1    3    3    0    0  0.29983201231E+02 -0.83022053578E+01  0.15650461894E+02  0.34826241419E+02  0.10566000000E+00 0.  1.
         23    2    1    0    0    0 -0.14186472990E+02  0.49367628591E+01 -0.24694584781E+02  0.96095845265E+02  0.91645847240E+02 0.  0.
         13    1    3    3    0    0 -0.44169674221E+02  0.13238968217E+02 -0.40345046675E+02  0.61269603846E+02  0.10566000000E+00 0. -1.
         22    1    1    0    0    0  0.14186472990E+02 -0.49367628591E+01  0.24694584781E+02  0.28904154735E+02  0.00000000000E+00 0. -1.
</event>
<event>
 5    1  0.6835419E-004  0.9118800E+02  0.7818608E-02  0.1130116E+00
         25   -1    0    0    0    0  0.00000000000E+00  0.00000000000E+00  0.99999998245E-14  0.12500000000E+03  0.12500000000E+03 0.  0.
        -13    1    3    3    0    0 -0.15742271945E+02  0.28753847020E+02  0.17471155778E+02  0.37146403497E+02  0.10566000000E+00 0. -1.
         23    2    1    0    0    0  0.26636173810E+02 -0.30281999074E+01  0.22012413111E+02  0.90312796583E+02  0.83385844996E+02 0.  0.
         13    1    3    3    0    0  0.42378445756E+02 -0.31782046928E+02  0.45412573330E+01  0.53166393086E+02  0.10566000000E+00 0.  1.
         22    1    1    0    0    0 -0.26636173810E+02  0.30281999074E+01 -0.22012413111E+02  0.34687203417E+02  0.00000000000E+00 0.  1.
</event>
<event>
 5    1  0.6835419E-004  0.9118800E+02  0.7818608E-02  0.1130116E+00
         25   -1    0    0    0    0  0.00000000000E+00  0.00000000000E+00  0.99999998245E-14  0.12500000000E+03  0.12500000000E+03 0.  0.
        -13    1    3    3    0    0  0.20902379778E+02 -0.34591330636E+02 -0.17759910226E+02  0.44146293285E+02  0.10566000000E+00 0.  1.
         23    2    1    0    0    0 -0.11100424702E+02  0.48461482919E+01 -0.26667882106E+02  0.95710402566E+02  0.91118607548E+02 0.  0.
         13    1    3    3    0    0 -0.32002804481E+02  0.39437478928E+02 -0.89079718801E+01  0.51564109280E+02  0.10566000000E+00 0. -1.
         22    1    1    0    0    0  0.11100424702E+02 -0.48461482919E+01  0.26667882106E+02  0.29289597434E+02  0.00000000000E+00 0. -1.
</event>
<event>
 5    1  0.6835419E-004  0.9118800E+02  0.7818608E-02  0.1130116E+00
         25   -1    0    0    0    0  0.00000000000E+00  0.00000000000E+00  0.99999998245E-14  0.12500000000E+03  0.12500000000E+03 0.  0.
        -13    1    3    3    0    0  0.26865986927E+02  0.28450829278E+02 -0.21894704672E+02  0.44839939751E+02  0.10566000000E+00 0. -1.
         23    2    1    0    0    0 -0.18528414320E+02  0.23297818978E+02 -0.64592721844E+00  0.95225720355E+02  0.90451258083E+02 0.  0.
         13    1    3    3    0    0 -0.45394401248E+02 -0.51530102992E+01  0.21248777454E+02  0.50385780604E+02  0.10566000000E+00 0.  1.
         22    1    1    0    0    0  0.18528414320E+02 -0.23297818978E+02  0.64592721844E+00  0.29774279645E+02  0.00000000000E+00 0.  1.
</event>
<event>
 5    1  0.6835419E-004  0.9118800E+02  0.7818608E-02  0.1130116E+00
         25   -1    0    0    0    0  0.00000000000E+00  0.00000000000E+00  0.99999998245E-14  0.12500000000E+03  0.12500000000E+03 0.  0.
        -13    1    3    3    0    0 -0.43490869625E+02 -0.41162343671E+02 -0.10080481909E+02  0.60724143113E+02  0.10566000000E+00 0. -1.
         23    2    1    0    0    0 -0.22879796056E+02 -0.16977736005E+02  0.52895092645E+01  0.96022293126E+02  0.91545471114E+02 0.  0.
         13    1    3    3    0    0  0.20611073569E+02  0.24184607666E+02  0.15369991173E+02  0.35298150013E+02  0.10566000000E+00 0.  1.
         22    1    1    0    0    0  0.22879796056E+02  0.16977736005E+02 -0.52895092645E+01  0.28977706874E+02  0.00000000000E+00 0. -1.
</event>
<event>
 5    1  0.6835419E-004  0.9118800E+02  0.7818608E-02  0.1130116E+00
         25   -1    0    0    0    0  0.00000000000E+00  0.00000000000E+00  0.99999998245E-14  0.12500000000E+03  0.12500000000E+03 0.  0.
        -13    1    3    3    0    0 -0.16810434017E+02  0.30443375540E+02  0.15675832624E+02  0.38146201628E+02  0.10566000000E+00 0.  1.
         23    2    1    0    0    0 -0.13674371190E+02 -0.14544550700E+02 -0.20816006702E+02  0.96158389131E+02  0.91731114038E+02 0.  0.
         13    1    3    3    0    0  0.31360628272E+01 -0.44987926240E+02 -0.36491839327E+02  0.58012187503E+02  0.10566000000E+00 0. -1.
         22    1    1    0    0    0  0.13674371190E+02  0.14544550700E+02  0.20816006702E+02  0.28841610869E+02  0.00000000000E+00 0. -1.
</event>
<event>
 5    1  0.6835419E-004  0.9118800E+02  0.7818608E-02  0.1130116E+00
         25   -1    0    0    0    0  0.00000000000E+00  0.00000000000E+00  0.99999998245E-14  0.12500000000E+03  0.12500000000E+03 0.  0.
        -13    1    3    3    0    0 -0.39703383750E+02 -0.29772577651E+02  0.18455610714E+01  0.49660671772E+02  0.10566000000E+00 0. -1.
         23    2    1    0    0    0 -0.11479721378E+02 -0.32190034108E+01 -0.25338832250E+02  0.96996385846E+02  0.92866013490E+02 0.  0.
         13    1    3    3    0    0  0.28223662372E+02  0.26553574240E+02 -0.27184393322E+02  0.47335714074E+02  0.10566000000E+00 0.  1.
         22    1    1    0    0    0  0.11479721378E+02  0.32190034108E+01  0.25338832250E+02  0.28003614154E+02  0.00000000000E+00 0. -1.
</event>
<event>
 5    1  0.6835419E-004  0.9118800E+02  0.7818608E-02  0.1130116E+00
         25   -1    0    0    0    0  0.00000000000E+00  0.00000000000E+00  0.99999998245E-14  0.12500000000E+03  0.12500000000E+03 0.  0.
        -13    1    3    3    0    0  0.40333418893E+02 -0.19240760905E+02  0.40818146648E+02  0.60523745915E+02  0.10566000000E+00 0.  1.
         23    2    1    0    0    0  0.25911518781E+02 -0.46020593263E+01  0.11611936971E+02  0.96235041530E+02  0.91835507199E+02 0.  0.
         13    1    3    3    0    0 -0.14421900112E+02  0.14638701579E+02 -0.29206209677E+02  0.35711295615E+02  0.10566000000E+00 0. -1.
         22    1    1    0    0    0 -0.25911518781E+02  0.46020593263E+01 -0.11611936971E+02  0.28764958470E+02  0.00000000000E+00 0.  1.
</event>
<event>
 5    1  0.6835419E-004  0.9118800E+02  0.7818608E-02  0.1130116E+00
         25   -1    0    0    0    0  0.00000000000E+00  0.00000000000E+00  0.99999998245E-14  0.12500000000E+03  0.12500000000E+03 0.  0.
        -13    1    3    3    0    0  0.34756336894E+02 -0.78111030291E+01  0.80426629177E+01  0.36520020203E+02  0.10566000000E+00 0. -1.
         23    2    1    0    0    0 -0.23583031944E+02 -0.12013862639E+02  0.13544338960E+02  0.95268847835E+02  0.90510838902E+02 0.  0.
         13    1    3    3    0    0 -0.58339368838E+02 -0.42027596100E+01  0.55016760427E+01  0.58748827631E+02  0.10566000000E+00 0.  1.
         22    1    1    0    0    0  0.23583031944E+02  0.12013862639E+02 -0.13544338960E+02  0.29731152165E+02  0.00000000000E+00 0.  1.
</event>
<event>
 5    1  0.6835419E-004  0.9118800E+02  0.7818608E-02  0.1130116E+00
         25   -1    0    0    0    0  0.00000000000E+00  0.00000000000E+00  0.99999998245E-14  0.12500000000E+03  0.12500000000E+03 0.  0.
        -13    1    3    3    0    0 -0.12956240340E+02 -0.11303347165E+02 -0.26953118324E+02  0.31970479701E+02  0.10566000000E+00 0. -1.
         23    2    1    0    0    0  0.69780897211E+01  0.15880443479E+02  0.25402751418E+02  0.94239928465E+02  0.89078516580E+02 0.  0.
         13    1    3    3    0    0  0.19934330061E+02  0.27183790643E+02  0.52355869743E+02  0.62269448763E+02  0.10566000000E+00 0.  1.
         22    1    1    0    0    0 -0.69780897211E+01 -0.15880443479E+02 -0.25402751418E+02  0.30760071535E+02  0.00000000000E+00 0.  1.
</event>
<event>
 5    1  0.6835419E-004  0.9118800E+02  0.7818608E-02  0.1130116E+00
         25   -1    0    0    0    0  0.00000000000E+00  0.00000000000E+00  0.99999998245E-14  0.12500000000E+03  0.12500000000E+03 0.  0.
        -13    1    3    3    0    0  0.17937013178E+02 -0.15868107055E+02 -0.32501895730E+02  0.40372238647E+02  0.10566000000E+00 0. -1.
         23    2    1    0    0    0  0.28120805472E+02  0.14346431717E+02  0.84944672497E+01  0.92308169564E+02  0.86325212951E+02 0.  0.
         13    1    3    3    0    0  0.10183792294E+02  0.30214538772E+02  0.40996362980E+02  0.51935930918E+02  0.10566000000E+00 0.  1.
         22    1    1    0    0    0 -0.28120805472E+02 -0.14346431717E+02 -0.84944672497E+01  0.32691830436E+02  0.00000000000E+00 0.  1.
</event>
<event>
 5    1  0.6835419E-004  0.9118800E+02  0.7818608E-02  0.1130116E+00
         25   -1    0    0    0    0  0.00000000000E+00  0.00000000000E+00  0.99999998245E-14  0.12500000000E+03  0.12500000000E+03 0.  0.
        -13    1    3    3    0    0  0.46079240715E+02  0.16387789994E+02 -0.14683441278E+02  0.51063398805E+02  0.10566000000E+00 0.  1.
         23    2    1    0    0    0  0.15639724357E+02  0.33550355815E+02 -0.32051633181E+01  0.87844913872E+02  0.79600430074E+02 0.  0.
         13    1    3    3    0    0 -0.30439516358E+02  0.17162565821E+02  0.11478277960E+02  0.36781515067E+02  0.10566000000E+00 0. -1.
         22    1    1    0    0    0 -0.15639724357E+02 -0.33550355815E+02  0.32051633181E+01  0.37155086128E+02  0.00000000000E+00 0.  1.
</event>
<event>
 5    1  0.6835419E-004  0.9118800E+02  0.7818608E-02  0.1130116E+00
         25   -1    0    0    0    0  0.00000000000E+00  0.00000000000E+00  0.99999998245E-14  0.12500000000E+03  0.12500000000E+03 0.  0.
        -13    1    3    3    0    0  0.41399195792E+02 -0.17883827514E+02  0.41329649368E+02  0.61170873622E+02  0.10566000000E+00 0. -1.
         23    2    1    0    0    0  0.22529219714E+02 -0.13296484878E+02  0.12312073922E+02  0.96087210178E+02  0.91634068689E+02 0.  0.
         13    1    3    3    0    0 -0.18869976078E+02  0.45873426352E+01 -0.29017575447E+02  0.34916336556E+02  0.10566000000E+00 0.  1.
         22    1    1    0    0    0 -0.22529219714E+02  0.13296484878E+02 -0.12312073922E+02  0.28912789822E+02  0.00000000000E+00 0. -1.
</event>
<event>
 5    1  0.6835419E-004  0.9118800E+02  0.7818608E-02  0.1130116E+00
         25   -1    0    0    0    0  0.00000000000E+00  0.00000000000E+00  0.99999998245E-14  0.12500000000E+03  0.12500000000E+03 0.  0.
        -13    1    3    3    0    0 -0.46355621864E+02 -0.26051279917E+02  0.12461666310E+02  0.54615173303E+02  0.10566000000E+00 0.  1.
         23    2    1    0    0    0 -0.28562336589E+02  0.58966319219E+01 -0.54426713867E+01  0.95331835054E+02  0.90597785644E+02 0.  0.
         13    1    3    3    0    0  0.17793285275E+02  0.31947911839E+02 -0.17904337697E+02  0.40716661751E+02  0.10566000000E+00 0. -1.
         22    1    1    0    0    0  0.28562336589E+02 -0.58966319219E+01  0.54426713867E+01  0.29668164946E+02  0.00000000000E+00 0.  1.
</event>
<event>
 5    1  0.6835419E-004  0.9118800E+02  0.7818608E-02  0.1130116E+00
         25   -1    0    0    0    0  0.00000000000E+00  0.00000000000E+00  0.99999998245E-14  0.12500000000E+03  0.12500000000E+03 0.  0.
        -13    1    3    3    0    0  0.16596725287E+02  0.38299317133E+02  0.19173909900E+02  0.45934071972E+02  0.10566000000E+00 0. -1.
         23    2    1    0    0    0  0.23616341012E+01 -0.10655156365E+02  0.25457160379E+02  0.97302045430E+02  0.93276531655E+02 0.  0.
         13    1    3    3    0    0 -0.14235091186E+02 -0.48954473498E+02  0.62832504787E+01  0.51367973458E+02  0.10566000000E+00 0.  1.
         22    1    1    0    0    0 -0.23616341012E+01  0.10655156365E+02 -0.25457160379E+02  0.27697954570E+02  0.00000000000E+00 0.  1.
</event>
<event>
 5    1  0.6835419E-004  0.9118800E+02  0.7818608E-02  0.1130116E+00
         25   -1    0    0    0    0  0.00000000000E+00  0.00000000000E+00  0.99999998245E-14  0.12500000000E+03  0.12500000000E+03 0.  0.
        -13    1    3    3    0    0  0.18977480601E+02 -0.49003279001E+02 -0.92746947068E+01  0.53361945699E+02  0.10566000000E+00 0. -1.
         23    2    1    0    0    0  0.94228780857E+01 -0.10035195534E+02 -0.25003721262E+02  0.96457367715E+02  0.92137624936E+02 0.  0.
         13    1    3    3    0    0 -0.95546025156E+01  0.38968083467E+02 -0.15729026555E+02  0.43095422016E+02  0.10566000000E+00 0.  1.
         22    1    1    0    0    0 -0.94228780857E+01  0.10035195534E+02  0.25003721262E+02  0.28542632285E+02  0.00000000000E+00 0. -1.
</event>
<event>
 5    1  0.6835419E-004  0.9118800E+02  0.7818608E-02  0.1130116E+00
         25   -1    0    0    0    0  0.00000000000E+00  0.00000000000E+00  0.99999998245E-14  0.12500000000E+03  0.12500000000E+03 0.  0.
        -13    1    3    3    0    0  0.30560133316E+01 -0.39542592741E+02  0.25746434668E+00  0.39661483962E+02  0.10566000000E+00 0. -1.
         23    2    1    0    0    0  0.29777247966E+02  0.78442865961E+01 -0.22814639467E+01  0.94122461135E+02  0.88913527001E+02 0.  0.
         13    1    3    3    0    0  0.26721234634E+02  0.47386879337E+02 -0.25389282934E+01  0.54460977173E+02  0.10566000000E+00 0.  1.
         22    1    1    0    0    0 -0.29777247966E+02 -0.78442865961E+01  0.22814639467E+01  0.30877538865E+02  0.00000000000E+00 0.  1.
</event>
<event>
 5    1  0.6835419E-004  0.9118800E+02  0.7818608E-02  0.1130116E+00
         25   -1    0    0    0    0  0.00000000000E+00  0.00000000000E+00  0.99999998245E-14  0.12500000000E+03  0.12500000000E+03 0.  0.
        -13    1    3    3    0    0  0.93418387280E+01 -0.49663234379E+02  0.20535367801E+02  0.54547404105E+02  0.10566000000E+00 0. -1.
         23    2    1    0    0    0  0.21637993415E+02 -0.70463247133E+01  0.10037439495E+02  0.10012825614E+03  0.96990020286E+02 0.  0.
         13    1    3    3    0    0  0.12296154687E+02  0.42616909666E+02 -0.10497928306E+02  0.45580852036E+02  0.10566000000E+00 0.  1.
         22    1    1    0    0    0 -0.21637993415E+02  0.70463247133E+01 -0.10037439495E+02  0.24871743859E+02  0.00000000000E+00 0. -1.
</event>
<event>
 5    1  0.6835419E-004  0.9118800E+02  0.7818608E-02  0.1130116E+00
         25   -1    0    0    0    0  0.00000000000E+00  0.00000000000E+00  0.99999998245E-14  0.12500000000E+03  0.12500000000E+03 0.  0.
        -13    1    3    3    0    0  0.57763662700E+02  0.63782493735E+01 -0.70071142786E+00  0.58119058442E+02  0.10566000000E+00 0. -1.
         23    2    1    0    0    0  0.24434346813E+02 -0.67017530690E+01  0.13082996317E+02  0.96484818237E+02  0.92174858607E+02 0.  0.
         13    1    3    3    0    0 -0.33329315888E+02 -0.13080002443E+02  0.13783707745E+02  0.38365759795E+02  0.10566000000E+00 0.  1.
         22    1    1    0    0    0 -0.24434346813E+02  0.67017530690E+01 -0.13082996317E+02  0.28515181763E+02  0.00000000000E+00 0. -1.
</event>
<event>
 5    1  0.6835419E-004  0.9118800E+02  0.7818608E-02  0.1130116E+00
         25   -1    0    0    0    0  0.00000000000E+00  0.00000000000E+00  0.99999998245E-14  0.12500000000E+03  0.12500000000E+03 0.  0.
        -13    1    3    3    0    0  0.21978198442E+02 -0.60561573721E+01 -0.33467185793E+02  0.40494221042E+02  0.10566000000E+00 0.  1.
         23    2    1    0    0    0 -0.16610325118E+02  0.23271946572E+02 -0.76856381499E+01  0.95393321166E+02  0.90682579868E+02 0.  0.
         13    1    3    3    0    0 -0.38588523560E+02  0.29328103945E+02  0.25781547643E+02  0.54899100124E+02  0.10566000000E+00 0. -1.
         22    1    1    0    0    0  0.16610325118E+02 -0.23271946572E+02  0.76856381499E+01  0.29606678834E+02  0.00000000000E+00 0. -1.
</event>
<event>
 5    1  0.6835419E-004  0.9118800E+02  0.7818608E-02  0.1130116E+00
         25   -1    0    0    0    0  0.00000000000E+00  0.00000000000E+00  0.99999998245E-14  0.12500000000E+03  0.12500000000E+03 0.  0.
        -13    1    3    3    0    0 -0.20926535553E+02 -0.19035795242E+02  0.54282715892E+01  0.28805532233E+02  0.10566000000E+00 0.  1.
         23    2    1    0    0    0  0.14164565035E+02  0.30481971781E+02  0.10701499454E+02  0.89725255538E+02  0.82500387178E+02 0.  0.
         13    1    3    3    0    0  0.35091100588E+02  0.49517767023E+02  0.52732278645E+01  0.60919723305E+02  0.10566000000E+00 0. -1.
         22    1    1    0    0    0 -0.14164565035E+02 -0.30481971781E+02 -0.10701499454E+02  0.35274744462E+02  0.00000000000E+00 0. -1.
</event>
<event>
 5    1  0.6835419E-004  0.9118800E+02  0.7818608E-02  0.1130116E+00
         25   -1    0    0    0    0  0.00000000000E+00  0.00000000000E+00  0.99999998245E-14  0.12500000000E+03  0.12500000000E+03 0.  0.
        -13    1    3    3    0    0  0.99335851774E+01  0.36705892780E+01 -0.36432360947E+02  0.37940445811E+02  0.10566000000E+00 0. -1.
         23    2    1    0    0    0  0.21959044057E+02 -0.56590123666E+01  0.18994623500E+02  0.95419267102E+02  0.90718337593E+02 0.  0.
         13    1    3    3    0    0  0.12025458880E+02 -0.93296016446E+01  0.55426984447E+02  0.57478821291E+02  0.10566000000E+00 0.  1.
         22    1    1    0    0    0 -0.21959044057E+02  0.56590123666E+01 -0.18994623500E+02  0.29580732898E+02  0.00000000000E+00 0.  1.
</event>
<event>
 5    1  0.6835419E-004  0.9118800E+02  0.7818608E-02  0.1130116E+00
         25   -1    0    0    0    0  0.00000000000E+00  0.00000000000E+00  0.99999998245E-14  0.12500000000E+03  0.12500000000E+03 0.  0.
        -13    1    3    3    0    0  0.87542133660E+01 -0.36417462069E+02 -0.43598235129E+02  0.57477691895E+02  0.10566000000E+00 0. -1.
         23    2    1    0    0    0 -0.13251055261E+02 -0.20296812071E+02 -0.19151481770E+02  0.94107763115E+02  0.88892861236E+02 0.  0.
         13    1    3    3    0    0 -0.22005268627E+02  0.16120649998E+02  0.24446753359E+02  0.36630071220E+02  0.10566000000E+00 0.  1.
         22    1    1    0    0    0  0.13251055261E+02  0.20296812071E+02  0.19151481770E+02  0.30892236885E+02  0.00000000000E+00 0. -1.
</event>
<event>
 5    1  0.6835419E-004  0.9118800E+02  0.7818608E-02  0.1130116E+00
         25   -1    0    0    0    0  0.00000000000E+00  0.00000000000E+00  0.99999998245E-14  0.12500000000E+03  0.12500000000E+03 0.  0.
        -13    1    3    3    0    0  0.19381695605E+02 -0.70979651543E+01 -0.54892978832E+02  0.58645387909E+02  0.10566000000E+00 0. -1.
         23    2    1    0    0    0  0.40256620627E+01 -0.17921198773E+02 -0.24439663773E+02  0.94427586195E+02  0.89341460414E+02 0.  0.
         13    1    3    3    0    0 -0.15356033542E+02 -0.10823233618E+02  0.30453315059E+02  0.35782198287E+02  0.10566000000E+00 0.  1.
         22    1    1    0    0    0 -0.40256620627E+01  0.17921198773E+02  0.24439663773E+02  0.30572413805E+02  0.00000000000E+00 0. -1.
</event>
<event>
 5    1  0.6835419E-004  0.9118800E+02  0.7818608E-02  0.1130116E+00
         25   -1    0    0    0    0  0.00000000000E+00  0.00000000000E+00  0.99999998245E-14  0.12500000000E+03  0.12500000000E+03 0.  0.
        -13    1    3    3    0    0  0.82557630528E+01 -0.11040821495E+02  0.58075874132E+02  0.59689828976E+02  0.10566000000E+00 0.  1.
         23    2    1    0    0    0  0.12867612387E+02 -0.14074159335E+02  0.23347588811E+02  0.94854232257E+02  0.89936411226E+02 0.  0.
         13    1    3    3    0    0  0.46118493339E+01 -0.30333378401E+01 -0.34728285321E+02  0.35164403281E+02  0.10566000000E+00 0. -1.
         22    1    1    0    0    0 -0.12867612387E+02  0.14074159335E+02 -0.23347588811E+02  0.30145767743E+02  0.00000000000E+00 0.  1.
</event>
<event>
 5    1  0.6835419E-004  0.9118800E+02  0.7818608E-02  0.1130116E+00
         25   -1    0    0    0    0  0.00000000000E+00  0.00000000000E+00  0.99999998245E-14  0.12500000000E+03  0.12500000000E+03 0.  0.
        -13    1    3    3    0    0 -0.80559384098E+01 -0.33432604785E+02 -0.18998447712E+02  0.39288540134E+02  0.10566000000E+00 0. -1.
         23    2    1    0    0    0  0.29278221481E+02  0.51797886008E+01 -0.44334586429E+01  0.94938396274E+02  0.90053312368E+02 0.  0.
         13    1    3    3    0    0  0.37334159891E+02  0.38612393386E+02  0.14564989069E+02  0.55649856140E+02  0.10566000000E+00 0.  1.
         22    1    1    0    0    0 -0.29278221481E+02 -0.51797886008E+01  0.44334586429E+01  0.30061603726E+02  0.00000000000E+00 0.  1.
</event>
<event>
 5    1  0.6835419E-004  0.9118800E+02  0.7818608E-02  0.1130116E+00
         25   -1    0    0    0    0  0.00000000000E+00  0.00000000000E+00  0.99999998245E-14  0.12500000000E+03  0.12500000000E+03 0.  0.
        -13    1    3    3    0    0  0.11443185985E+02 -0.47456320574E+02 -0.16232130965E+01  0.48843575347E+02  0.10566000000E+00 0. -1.
         23    2    1    0    0    0  0.17748903158E+02 -0.84182570451E+01  0.22473534371E+02  0.95151208364E+02  0.90348226828E+02 0.  0.
         13    1    3    3    0    0  0.63057171729E+01  0.39038063528E+02  0.24096747468E+02  0.46307633017E+02  0.10566000000E+00 0.  1.
         22    1    1    0    0    0 -0.17748903158E+02  0.84182570451E+01 -0.22473534371E+02  0.29848791636E+02  0.00000000000E+00 0.  1.
</event>
<event>
 5    1  0.6835419E-004  0.9118800E+02  0.7818608E-02  0.1130116E+00
         25   -1    0    0    0    0  0.00000000000E+00  0.00000000000E+00  0.99999998245E-14  0.12500000000E+03  0.12500000000E+03 0.  0.
        -13    1    3    3    0    0 -0.27077969806E+02 -0.19240061404E+02  0.51198195802E+02  0.61030015804E+02  0.10566000000E+00 0.  1.
         23    2    1    0    0    0 -0.41173491980E+01 -0.69841255872E+01  0.27846411832E+02  0.95997358284E+02  0.91511417708E+02 0.  0.
         13    1    3    3    0    0  0.22960620608E+02  0.12255935817E+02 -0.23351783970E+02  0.34967342480E+02  0.10566000000E+00 0. -1.
         22    1    1    0    0    0  0.41173491980E+01  0.69841255872E+01 -0.27846411832E+02  0.29002641716E+02  0.00000000000E+00 0.  1.
</event>
<event>
 5    1  0.6835419E-004  0.9118800E+02  0.7818608E-02  0.1130116E+00
         25   -1    0    0    0    0  0.00000000000E+00  0.00000000000E+00  0.99999998245E-14  0.12500000000E+03  0.12500000000E+03 0.  0.
        -13    1    3    3    0    0 -0.11528007962E+02 -0.43412453533E+02  0.26290670484E+02  0.52045620449E+02  0.10566000000E+00 0. -1.
         23    2    1    0    0    0  0.17568338975E+02 -0.23571735068E+02  0.67474837495E+00  0.95593733426E+02  0.90958415534E+02 0.  0.
         13    1    3    3    0    0  0.29096346937E+02  0.19840718465E+02 -0.25615922109E+02  0.43548112977E+02  0.10566000000E+00 0.  1.
         22    1    1    0    0    0 -0.17568338975E+02  0.23571735068E+02 -0.67474837495E+00  0.29406266574E+02  0.00000000000E+00 0. -1.
</event>
<event>
 5    1  0.6835419E-004  0.9118800E+02  0.7818608E-02  0.1130116E+00
         25   -1    0    0    0    0  0.00000000000E+00  0.00000000000E+00  0.99999998245E-14  0.12500000000E+03  0.12500000000E+03 0.  0.
        -13    1    3    3    0    0  0.37210283103E+02  0.29468519303E+02  0.34668790225E+02  0.58778694935E+02  0.10566000000E+00 0. -1.
         23    2    1    0    0    0  0.15548323198E+02  0.13232309658E+01  0.24900786395E+02  0.95613770954E+02  0.90985948028E+02 0.  0.
         13    1    3    3    0    0 -0.21661959905E+02 -0.28145288337E+02 -0.97680038300E+01  0.36835076020E+02  0.10566000000E+00 0.  1.
         22    1    1    0    0    0 -0.15548323198E+02 -0.13232309658E+01 -0.24900786395E+02  0.29386229046E+02  0.00000000000E+00 0. -1.
</event>
<event>
 5    1  0.6835419E-004  0.9118800E+02  0.7818608E-02  0.1130116E+00
         25   -1    0    0    0    0  0.00000000000E+00  0.00000000000E+00  0.99999998245E-14  0.12500000000E+03  0.12500000000E+03 0.  0.
        -13    1    3    3    0    0 -0.47347146727E+02  0.13773180450E+02  0.25647947713E+02  0.55581302511E+02  0.10566000000E+00 0. -1.
         23    2    1    0    0    0 -0.24764295621E+02  0.96625643125E+01 -0.88193978610E+01  0.96992549825E+02  0.92860849965E+02 0.  0.
         13    1    3    3    0    0  0.22582851106E+02 -0.41106161378E+01 -0.34467345574E+02  0.41411247313E+02  0.10566000000E+00 0.  1.
         22    1    1    0    0    0  0.24764295621E+02 -0.96625643125E+01  0.88193978610E+01  0.28007450175E+02  0.00000000000E+00 0. -1.
</event>
<event>
 5    1  0.6835419E-004  0.9118800E+02  0.7818608E-02  0.1130116E+00
         25   -1    0    0    0    0  0.00000000000E+00  0.00000000000E+00  0.99999998245E-14  0.12500000000E+03  0.12500000000E+03 0.  0.
        -13    1    3    3    0    0 -0.11609296988E+02  0.24276047865E+02  0.24265865290E+02  0.36234592019E+02  0.10566000000E+00 0.  1.
         23    2    1    0    0    0  0.13011069647E+02 -0.26090117142E+02  0.56761280776E+01  0.95298138513E+02  0.90551281759E+02 0.  0.
         13    1    3    3    0    0  0.24620366635E+02 -0.50366165007E+02 -0.18589737213E+02  0.59063546494E+02  0.10566000000E+00 0. -1.
         22    1    1    0    0    0 -0.13011069647E+02  0.26090117142E+02 -0.56761280776E+01  0.29701861487E+02  0.00000000000E+00 0. -1.
</event>
<event>
 5    1  0.6835419E-004  0.9118800E+02  0.7818608E-02  0.1130116E+00
         25   -1    0    0    0    0  0.00000000000E+00  0.00000000000E+00  0.99999998245E-14  0.12500000000E+03  0.12500000000E+03 0.  0.
        -13    1    3    3    0    0 -0.27325162078E+02 -0.79185403037E+00  0.27241089209E+02  0.38592481402E+02  0.10566000000E+00 0. -1.
         23    2    1    0    0    0  0.64228344130E+00 -0.22584408664E+02 -0.18029163231E+02  0.96094658460E+02  0.91644228487E+02 0.  0.
         13    1    3    3    0    0  0.27967445520E+02 -0.21792554634E+02 -0.45270252440E+02  0.57502177058E+02  0.10566000000E+00 0.  1.
         22    1    1    0    0    0 -0.64228344130E+00  0.22584408664E+02  0.18029163231E+02  0.28905341540E+02  0.00000000000E+00 0.  1.
</event>
<event>
 5    1  0.6835419E-004  0.9118800E+02  0.7818608E-02  0.1130116E+00
         25   -1    0    0    0    0  0.00000000000E+00  0.00000000000E+00  0.99999998245E-14  0.12500000000E+03  0.12500000000E+03 0.  0.
        -13    1    3    3    0    0  0.45260279141E+01  0.28771352723E+02 -0.36383929782E+02  0.46605548774E+02  0.10566000000E+00 0.  1.
         23    2    1    0    0    0  0.25777272148E+02  0.13428774449E+02  0.49169097811E+01  0.95521605465E+02  0.90859239300E+02 0.  0.
         13    1    3    3    0    0  0.21251244233E+02 -0.15342578273E+02  0.41300839563E+02  0.48916056691E+02  0.10566000000E+00 0. -1.
         22    1    1    0    0    0 -0.25777272148E+02 -0.13428774449E+02 -0.49169097811E+01  0.29478394535E+02  0.00000000000E+00 0. -1.
</event>
<event>
 5    1  0.6835419E-004  0.9118800E+02  0.7818608E-02  0.1130116E+00
         25   -1    0    0    0    0  0.00000000000E+00  0.00000000000E+00  0.99999998245E-14  0.12500000000E+03  0.12500000000E+03 0.  0.
        -13    1    3    3    0    0 -0.20253181561E+02  0.16249317154E+02 -0.33528023790E+02  0.42407207107E+02  0.10566000000E+00 0. -1.
         23    2    1    0    0    0  0.62479275790E+01  0.27406617586E+02  0.10500098460E+02  0.94993144880E+02  0.90129275044E+02 0.  0.
         13    1    3    3    0    0  0.26501109140E+02  0.11157300432E+02  0.44028122250E+02  0.52585937773E+02  0.10566000000E+00 0.  1.
         22    1    1    0    0    0 -0.62479275790E+01 -0.27406617586E+02 -0.10500098460E+02  0.30006855120E+02  0.00000000000E+00 0.  1.
</event>
<event>
 5    1  0.6835419E-004  0.9118800E+02  0.7818608E-02  0.1130116E+00
         25   -1    0    0    0    0  0.00000000000E+00  0.00000000000E+00  0.99999998245E-14  0.12500000000E+03  0.12500000000E+03 0.  0.
        -13    1    3    3    0    0  0.55241447565E+01 -0.17442316875E+02 -0.14868553801E+02  0.23576166979E+02  0.10566000000E+00 0.  1.
         23    2    1    0    0    0  0.14170577461E+02  0.23724298095E+02 -0.42788562238E+02  0.74063680501E+02  0.53767277459E+02 0.  0.
         13    1    3    3    0    0  0.86464327046E+01  0.41166614969E+02 -0.27920008437E+02  0.50487513523E+02  0.10566000000E+00 0. -1.
         22    1    1    0    0    0 -0.14170577461E+02 -0.23724298095E+02  0.42788562238E+02  0.50936319499E+02  0.00000000000E+00 0. -1.
</event>
<event>
 5    1  0.6835419E-004  0.9118800E+02  0.7818608E-02  0.1130116E+00
         25   -1    0    0    0    0  0.00000000000E+00  0.00000000000E+00  0.99999998245E-14  0.12500000000E+03  0.12500000000E+03 0.  0.
        -13    1    3    3    0    0  0.22516128600E+02 -0.38966111417E+02  0.18593225953E+01  0.45042226085E+02  0.10566000000E+00 0.  1.
         23    2    1    0    0    0  0.23285439291E+02  0.85113092160E+01  0.17066279542E+02  0.94901628534E+02  0.90002261824E+02 0.  0.
         13    1    3    3    0    0  0.76931069100E+00  0.47477420634E+02  0.15206956946E+02  0.49859402449E+02  0.10566000000E+00 0. -1.
         22    1    1    0    0    0 -0.23285439291E+02 -0.85113092160E+01 -0.17066279542E+02  0.30098371466E+02  0.00000000000E+00 0. -1.
</event>
<event>
 5    1  0.6835419E-004  0.9118800E+02  0.7818608E-02  0.1130116E+00
         25   -1    0    0    0    0  0.00000000000E+00  0.00000000000E+00  0.99999998245E-14  0.12500000000E+03  0.12500000000E+03 0.  0.
        -13    1    3    3    0    0  0.56261150179E+02  0.10749000115E+02 -0.15560476173E+02  0.59354844838E+02  0.10566000000E+00 0.  1.
         23    2    1    0    0    0  0.27586002159E+02  0.11173058179E+02  0.52360450108E+01  0.94780123899E+02  0.89833351128E+02 0.  0.
         13    1    3    3    0    0 -0.28675148020E+02  0.42405806307E+00  0.20796521184E+02  0.35425279062E+02  0.10566000000E+00 0. -1.
         22    1    1    0    0    0 -0.27586002159E+02 -0.11173058179E+02 -0.52360450108E+01  0.30219876101E+02  0.00000000000E+00 0.  1.
</event>
<event>
 5    1  0.6835419E-004  0.9118800E+02  0.7818608E-02  0.1130116E+00
         25   -1    0    0    0    0  0.00000000000E+00  0.00000000000E+00  0.99999998245E-14  0.12500000000E+03  0.12500000000E+03 0.  0.
        -13    1    3    3    0    0 -0.32388527406E+02 -0.10896683087E+01 -0.19336430291E+00  0.32407601552E+02  0.10566000000E+00 0.  1.
         23    2    1    0    0    0  0.23336210827E+02 -0.43587097091E+01 -0.22283589792E+02  0.92440278562E+02  0.86516296965E+02 0.  0.
         13    1    3    3    0    0  0.55724738233E+02 -0.32690414004E+01 -0.22090225489E+02  0.60032677010E+02  0.10566000000E+00 0. -1.
         22    1    1    0    0    0 -0.23336210827E+02  0.43587097091E+01  0.22283589792E+02  0.32559721438E+02  0.00000000000E+00 0. -1.
</event>
<event>
 5    1  0.6835419E-004  0.9118800E+02  0.7818608E-02  0.1130116E+00
         25   -1    0    0    0    0  0.00000000000E+00  0.00000000000E+00  0.99999998245E-14  0.12500000000E+03  0.12500000000E+03 0.  0.
        -13    1    3    3    0    0 -0.15867990273E+01 -0.42893304465E+02  0.35181509255E+02  0.55498677971E+02  0.10566000000E+00 0.  1.
         23    2    1    0    0    0  0.19396587027E+02 -0.13571711974E+02  0.16809193007E+02  0.95966090106E+02  0.91468696976E+02 0.  0.
         13    1    3    3    0    0  0.20983386054E+02  0.29321592490E+02 -0.18372316248E+02  0.40467412134E+02  0.10566000000E+00 0. -1.
         22    1    1    0    0    0 -0.19396587027E+02  0.13571711974E+02 -0.16809193007E+02  0.29033909894E+02  0.00000000000E+00 0. -1.
</event>
<event>
 5    1  0.6835419E-004  0.9118800E+02  0.7818608E-02  0.1130116E+00
         25   -1    0    0    0    0  0.00000000000E+00  0.00000000000E+00  0.99999998245E-14  0.12500000000E+03  0.12500000000E+03 0.  0.
        -13    1    3    3    0    0  0.12580938162E+02  0.21494550793E+02 -0.50355431925E+02  0.56178077639E+02  0.10566000000E+00 0.  1.
         23    2    1    0    0    0 -0.13116292324E+02  0.25053564325E+01 -0.23735009515E+02  0.97766479995E+02  0.93896858300E+02 0.  0.
         13    1    3    3    0    0 -0.25697230486E+02 -0.18989194361E+02  0.26620422410E+02  0.41588402355E+02  0.10566000000E+00 0. -1.
         22    1    1    0    0    0  0.13116292324E+02 -0.25053564325E+01  0.23735009515E+02  0.27233520005E+02  0.00000000000E+00 0.  1.
</event>
<event>
 5    1  0.6835419E-004  0.9118800E+02  0.7818608E-02  0.1130116E+00
         25   -1    0    0    0    0  0.00000000000E+00  0.00000000000E+00  0.99999998245E-14  0.12500000000E+03  0.12500000000E+03 0.  0.
        -13    1    3    3    0    0  0.90134627086E+01 -0.46010617438E+02 -0.45441318156E+01  0.47104986201E+02  0.10566000000E+00 0.  1.
         23    2    1    0    0    0 -0.21536350554E+00 -0.28340776635E+01 -0.27832768789E+02  0.97022484097E+02  0.92901135754E+02 0.  0.
         13    1    3    3    0    0 -0.92288262142E+01  0.43176539774E+02 -0.23288636973E+02  0.49917497897E+02  0.10566000000E+00 0. -1.
         22    1    1    0    0    0  0.21536350554E+00  0.28340776635E+01  0.27832768789E+02  0.27977515903E+02  0.00000000000E+00 0. -1.
</event>
<event>
 5    1  0.6835419E-004  0.9118800E+02  0.7818608E-02  0.1130116E+00
         25   -1    0    0    0    0  0.00000000000E+00  0.00000000000E+00  0.99999998245E-14  0.12500000000E+03  0.12500000000E+03 0.  0.
        -13    1    3    3    0    0  0.68004325008E+01  0.92999426769E+01  0.53905127691E+02  0.55122670213E+02  0.10566000000E+00 0. -1.
         23    2    1    0    0    0 -0.11718677733E+02 -0.11509111350E+02  0.23108973842E+02  0.96648426430E+02  0.92396464258E+02 0.  0.
         13    1    3    3    0    0 -0.18519110234E+02 -0.20809054027E+02 -0.30796153850E+02  0.41525756216E+02  0.10566000000E+00 0.  1.
         22    1    1    0    0    0  0.11718677733E+02  0.11509111350E+02 -0.23108973842E+02  0.28351573570E+02  0.00000000000E+00 0. -1.
</event>
<event>
 5    1  0.6835419E-004  0.9118800E+02  0.7818608E-02  0.1130116E+00
         25   -1    0    0    0    0  0.00000000000E+00  0.00000000000E+00  0.99999998245E-14  0.12500000000E+03  0.12500000000E+03 0.  0.
        -13    1    3    3    0    0  0.66332538541E+01  0.18353778197E+02  0.49201103013E+02  0.52930340378E+02  0.10566000000E+00 0. -1.
         23    2    1    0    0    0 -0.14384862437E+02  0.23221556548E+02  0.13779220007E+02  0.94405362237E+02  0.89310360873E+02 0.  0.
         13    1    3    3    0    0 -0.21018116291E+02  0.48677783515E+01 -0.35421883006E+02  0.41475021859E+02  0.10566000000E+00 0.  1.
         22    1    1    0    0    0  0.14384862437E+02 -0.23221556548E+02 -0.13779220007E+02  0.30594637763E+02  0.00000000000E+00 0. -1.
</event>
<event>
 5    1  0.6835419E-004  0.9118800E+02  0.7818608E-02  0.1130116E+00
         25   -1    0    0    0    0  0.00000000000E+00  0.00000000000E+00  0.99999998245E-14  0.12500000000E+03  0.12500000000E+03 0.  0.
        -13    1    3    3    0    0  0.28188988902E+02 -0.26591875727E+02 -0.21830873852E+02  0.44478592234E+02  0.10566000000E+00 0.  1.
         23    2    1    0    0    0  0.69592130706E+01 -0.17417220043E+02  0.23239116655E+02  0.95136196768E+02  0.90327455361E+02 0.  0.
         13    1    3    3    0    0 -0.21229775831E+02  0.91746556833E+01  0.45069990507E+02  0.50657604533E+02  0.10566000000E+00 0. -1.
         22    1    1    0    0    0 -0.69592130706E+01  0.17417220043E+02 -0.23239116655E+02  0.29863803232E+02  0.00000000000E+00 0. -1.
</event>
<event>
 5    1  0.6835419E-004  0.9118800E+02  0.7818608E-02  0.1130116E+00
         25   -1    0    0    0    0  0.00000000000E+00  0.00000000000E+00  0.99999998245E-14  0.12500000000E+03  0.12500000000E+03 0.  0.
        -13    1    3    3    0    0  0.10388780374E+02 -0.33045481143E+02 -0.16180557877E+02  0.38232868045E+02  0.10566000000E+00 0.  1.
         23    2    1    0    0    0 -0.13738603936E+02  0.20728762588E+02 -0.12184351195E+02  0.97307234689E+02  0.93283485528E+02 0.  0.
         13    1    3    3    0    0 -0.24127384310E+02  0.53774243731E+02  0.39962066820E+01  0.59074366644E+02  0.10566000000E+00 0. -1.
         22    1    1    0    0    0  0.13738603936E+02 -0.20728762588E+02  0.12184351195E+02  0.27692765311E+02  0.00000000000E+00 0. -1.
</event>
<event>
 5    1  0.6835419E-004  0.9118800E+02  0.7818608E-02  0.1130116E+00
         25   -1    0    0    0    0  0.00000000000E+00  0.00000000000E+00  0.99999998245E-14  0.12500000000E+03  0.12500000000E+03 0.  0.
        -13    1    3    3    0    0 -0.51147454696E+02  0.13333829085E+02 -0.69686401871E+01  0.53314409216E+02  0.10566000000E+00 0. -1.
         23    2    1    0    0    0 -0.17289058711E+02 -0.48444518850E+01 -0.23731908545E+02  0.95241240813E+02  0.90472704188E+02 0.  0.
         13    1    3    3    0    0  0.33858395985E+02 -0.18178280970E+02 -0.16763268358E+02  0.41926831597E+02  0.10566000000E+00 0.  1.
         22    1    1    0    0    0  0.17289058711E+02  0.48444518850E+01  0.23731908545E+02  0.29758759187E+02  0.00000000000E+00 0.  1.
</event>
<event>
 5    1  0.6835419E-004  0.9118800E+02  0.7818608E-02  0.1130116E+00
         25   -1    0    0    0    0  0.00000000000E+00  0.00000000000E+00  0.99999998245E-14  0.12500000000E+03  0.12500000000E+03 0.  0.
        -13    1    3    3    0    0  0.24257977959E+02 -0.93036650890E+01  0.29612005329E+02  0.39394031304E+02  0.10566000000E+00 0. -1.
         23    2    1    0    0    0  0.87618285134E+01  0.24336169452E+02 -0.13164831974E+02  0.95977050746E+02  0.91483674426E+02 0.  0.
         13    1    3    3    0    0 -0.15496149445E+02  0.33639834541E+02 -0.42776837303E+02  0.56583019442E+02  0.10566000000E+00 0.  1.
         22    1    1    0    0    0 -0.87618285134E+01 -0.24336169452E+02  0.13164831974E+02  0.29022949254E+02  0.00000000000E+00 0.  1.
</event>
<event>
 5    1  0.6835419E-004  0.9118800E+02  0.7818608E-02  0.1130116E+00
         25   -1    0    0    0    0  0.00000000000E+00  0.00000000000E+00  0.99999998245E-14  0.12500000000E+03  0.12500000000E+03 0.  0.
        -13    1    3    3    0    0 -0.11524422998E+02 -0.34613689641E+02 -0.36207889376E-01  0.36481945001E+02  0.10566000000E+00 0. -1.
         23    2    1    0    0    0  0.29099909474E+01  0.18182229801E+02 -0.22741736013E+02  0.95738282949E+02  0.91156846903E+02 0.  0.
         13    1    3    3    0    0  0.14434413945E+02  0.52795919442E+02 -0.22705528124E+02  0.59256337949E+02  0.10566000000E+00 0.  1.
         22    1    1    0    0    0 -0.29099909474E+01 -0.18182229801E+02  0.22741736013E+02  0.29261717051E+02  0.00000000000E+00 0.  1.
</event>
<event>
 5    1  0.6835419E-004  0.9118800E+02  0.7818608E-02  0.1130116E+00
         25   -1    0    0    0    0  0.00000000000E+00  0.00000000000E+00  0.99999998245E-14  0.12500000000E+03  0.12500000000E+03 0.  0.
        -13    1    3    3    0    0  0.51448687673E+02  0.79978594498E+01 -0.21616761678E+02  0.56375781756E+02  0.10566000000E+00 0. -1.
         23    2    1    0    0    0  0.25561054031E+02 -0.13727122431E+02 -0.98927618563E+00  0.95969325864E+02  0.91473118817E+02 0.  0.
         13    1    3    3    0    0 -0.25887633642E+02 -0.21724981880E+02  0.20627485493E+02  0.39593544109E+02  0.10566000000E+00 0.  1.
         22    1    1    0    0    0 -0.25561054031E+02  0.13727122431E+02  0.98927618563E+00  0.29030674136E+02  0.00000000000E+00 0. -1.
</event>
<event>
 5    1  0.6835419E-004  0.9118800E+02  0.7818608E-02  0.1130116E+00
         25   -1    0    0    0    0  0.00000000000E+00  0.00000000000E+00  0.99999998245E-14  0.12500000000E+03  0.12500000000E+03 0.  0.
        -13    1    3    3    0    0 -0.11133575048E+02 -0.87157827469E+01  0.13738445572E+02  0.19714903323E+02  0.10566000000E+00 0. -1.
         23    2    1    0    0    0  0.24770552183E+02  0.38012899771E+02  0.38838868061E+01  0.79462703405E+02  0.65120471829E+02 0.  0.
         13    1    3    3    0    0  0.35904127231E+02  0.46728682518E+02 -0.98545587663E+01  0.59747800082E+02  0.10566000000E+00 0.  1.
         22    1    1    0    0    0 -0.24770552183E+02 -0.38012899771E+02 -0.38838868061E+01  0.45537296595E+02  0.00000000000E+00 0.  1.
</event>
<event>
 5    1  0.6835419E-004  0.9118800E+02  0.7818608E-02  0.1130116E+00
         25   -1    0    0    0    0  0.00000000000E+00  0.00000000000E+00  0.99999998245E-14  0.12500000000E+03  0.12500000000E+03 0.  0.
        -13    1    3    3    0    0 -0.11469770199E+01 -0.77862770247E+01 -0.31674202086E+02  0.32637523006E+02  0.10566000000E+00 0.  1.
         23    2    1    0    0    0 -0.17204868968E+01  0.11419651835E+02  0.27670946877E+02  0.95015840444E+02  0.90160745954E+02 0.  0.
         13    1    3    3    0    0 -0.57350987698E+00  0.19205928860E+02  0.59345148963E+02  0.62378317438E+02  0.10566000000E+00 0. -1.
         22    1    1    0    0    0  0.17204868968E+01 -0.11419651835E+02 -0.27670946877E+02  0.29984159556E+02  0.00000000000E+00 0. -1.
</event>
<event>
 5    1  0.6835419E-004  0.9118800E+02  0.7818608E-02  0.1130116E+00
         25   -1    0    0    0    0  0.00000000000E+00  0.00000000000E+00  0.99999998245E-14  0.12500000000E+03  0.12500000000E+03 0.  0.
        -13    1    3    3    0    0 -0.39283887590E+02 -0.41913479640E+02  0.99209180169E+01  0.58295792113E+02  0.10566000000E+00 0.  1.
         23    2    1    0    0    0 -0.13319364565E+02 -0.17834461042E+02  0.19959507221E+02  0.95102585370E+02  0.90280930115E+02 0.  0.
         13    1    3    3    0    0  0.25964523026E+02  0.24079018598E+02  0.10038589204E+02  0.36806793257E+02  0.10566000000E+00 0. -1.
         22    1    1    0    0    0  0.13319364565E+02  0.17834461042E+02 -0.19959507221E+02  0.29897414630E+02  0.00000000000E+00 0.  1.
</event>
<event>
 5    1  0.6835419E-004  0.9118800E+02  0.7818608E-02  0.1130116E+00
         25   -1    0    0    0    0  0.00000000000E+00  0.00000000000E+00  0.99999998245E-14  0.12500000000E+03  0.12500000000E+03 0.  0.
        -13    1    3    3    0    0 -0.27769150837E+02 -0.25264003785E+02  0.39139098004E+02  0.54233530053E+02  0.10566000000E+00 0. -1.
         23    2    1    0    0    0 -0.29536116221E+02 -0.70976627813E+01  0.33108277644E+01  0.94443158558E+02  0.89363245463E+02 0.  0.
         13    1    3    3    0    0 -0.17669653845E+01  0.18166341003E+02 -0.35828270240E+02  0.40209628505E+02  0.10566000000E+00 0.  1.
         22    1    1    0    0    0  0.29536116221E+02  0.70976627813E+01 -0.33108277644E+01  0.30556841442E+02  0.00000000000E+00 0. -1.
</event>
<event>
 5    1  0.6835419E-004  0.9118800E+02  0.7818608E-02  0.1130116E+00
         25   -1    0    0    0    0  0.00000000000E+00  0.00000000000E+00  0.99999998245E-14  0.12500000000E+03  0.12500000000E+03 0.  0.
        -13    1    3    3    0    0 -0.34033231229E+02  0.94663113607E+01  0.13357127378E+02  0.37766332817E+02  0.10566000000E+00 0. -1.
         23    2    1    0    0    0  0.41640699984E+01 -0.74497709674E+01 -0.27503635667E+02  0.96202629611E+02  0.91791379785E+02 0.  0.
         13    1    3    3    0    0  0.38197301227E+02 -0.16916082328E+02 -0.40860763045E+02  0.58436296794E+02  0.10566000000E+00 0.  1.
         22    1    1    0    0    0 -0.41640699984E+01  0.74497709674E+01  0.27503635667E+02  0.28797370389E+02  0.00000000000E+00 0.  1.
</event>
<event>
 5    1  0.6835419E-004  0.9118800E+02  0.7818608E-02  0.1130116E+00
         25   -1    0    0    0    0  0.00000000000E+00  0.00000000000E+00  0.99999998245E-14  0.12500000000E+03  0.12500000000E+03 0.  0.
        -13    1    3    3    0    0  0.22729026021E+02 -0.26026831690E+02 -0.25811661029E+02  0.43130703690E+02  0.10566000000E+00 0. -1.
         23    2    1    0    0    0 -0.25122561920E+02 -0.79088527903E+01 -0.11495247780E+02  0.96262675988E+02  0.91873113569E+02 0.  0.
         13    1    3    3    0    0 -0.47851587941E+02  0.18117978900E+02  0.14316413249E+02  0.53131972298E+02  0.10566000000E+00 0.  1.
         22    1    1    0    0    0  0.25122561920E+02  0.79088527903E+01  0.11495247780E+02  0.28737324012E+02  0.00000000000E+00 0. -1.
</event>
<event>
 5    1  0.6835419E-004  0.9118800E+02  0.7818608E-02  0.1130116E+00
         25   -1    0    0    0    0  0.00000000000E+00  0.00000000000E+00  0.99999998245E-14  0.12500000000E+03  0.12500000000E+03 0.  0.
        -13    1    3    3    0    0  0.14396769758E+02  0.11704680269E+02  0.41339366529E+02  0.45312480717E+02  0.10566000000E+00 0.  1.
         23    2    1    0    0    0  0.73430911028E+01 -0.27210038714E+02  0.13024325125E+02  0.93952613013E+02  0.88674422768E+02 0.  0.
         13    1    3    3    0    0 -0.70536786553E+01 -0.38914718983E+02 -0.28315041404E+02  0.48640132296E+02  0.10566000000E+00 0. -1.
         22    1    1    0    0    0 -0.73430911028E+01  0.27210038714E+02 -0.13024325125E+02  0.31047386987E+02  0.00000000000E+00 0. -1.
</event>
<event>
 5    1  0.6835419E-004  0.9118800E+02  0.7818608E-02  0.1130116E+00
         25   -1    0    0    0    0  0.00000000000E+00  0.00000000000E+00  0.99999998245E-14  0.12500000000E+03  0.12500000000E+03 0.  0.
        -13    1    3    3    0    0 -0.34665200941E+02  0.76916553093E+01  0.21536042583E+02  0.41528905738E+02  0.10566000000E+00 0.  1.
         23    2    1    0    0    0 -0.10154017191E+02  0.34197449674E+02 -0.83112744889E+01  0.88371501355E+02  0.80423102022E+02 0.  0.
         13    1    3    3    0    0  0.24511183750E+02  0.26505794365E+02 -0.29847317072E+02  0.46842595617E+02  0.10566000000E+00 0. -1.
         22    1    1    0    0    0  0.10154017191E+02 -0.34197449674E+02  0.83112744889E+01  0.36628498645E+02  0.00000000000E+00 0. -1.
</event>
<event>
 5    1  0.6835419E-004  0.9118800E+02  0.7818608E-02  0.1130116E+00
         25   -1    0    0    0    0  0.00000000000E+00  0.00000000000E+00  0.99999998245E-14  0.12500000000E+03  0.12500000000E+03 0.  0.
        -13    1    3    3    0    0 -0.10896724627E+02 -0.33191704114E+01 -0.37118476408E+02  0.38827154863E+02  0.10566000000E+00 0. -1.
         23    2    1    0    0    0  0.24564114760E+02 -0.13957352328E+02  0.64697443565E+01  0.96016194005E+02  0.91537142741E+02 0.  0.
         13    1    3    3    0    0  0.35460839386E+02 -0.10638181917E+02  0.43588220765E+02  0.57189039142E+02  0.10566000000E+00 0.  1.
         22    1    1    0    0    0 -0.24564114760E+02  0.13957352328E+02 -0.64697443565E+01  0.28983805995E+02  0.00000000000E+00 0.  1.
</event>
<event>
 5    1  0.6835419E-004  0.9118800E+02  0.7818608E-02  0.1130116E+00
         25   -1    0    0    0    0  0.00000000000E+00  0.00000000000E+00  0.99999998245E-14  0.12500000000E+03  0.12500000000E+03 0.  0.
        -13    1    3    3    0    0 -0.27755962219E+02 -0.15823132505E+02  0.88183430613E+01  0.33144219697E+02  0.10566000000E+00 0.  1.
         23    2    1    0    0    0  0.27369679278E+02  0.72101425756E+01 -0.86750690509E+01  0.95396920383E+02  0.90687541018E+02 0.  0.
         13    1    3    3    0    0  0.55125641497E+02  0.23033275080E+02 -0.17493412112E+02  0.62252700686E+02  0.10566000000E+00 0. -1.
         22    1    1    0    0    0 -0.27369679278E+02 -0.72101425756E+01  0.86750690509E+01  0.29603079617E+02  0.00000000000E+00 0. -1.
</event>
<event>
 5    1  0.6835419E-004  0.9118800E+02  0.7818608E-02  0.1130116E+00
         25   -1    0    0    0    0  0.00000000000E+00  0.00000000000E+00  0.99999998245E-14  0.12500000000E+03  0.12500000000E+03 0.  0.
        -13    1    3    3    0    0  0.12992407610E+02  0.27320500955E+02  0.40717251762E+02  0.50725912343E+02  0.10566000000E+00 0.  1.
         23    2    1    0    0    0 -0.11380199311E+02 -0.71457986894E+01  0.26532520394E+02  0.95258681709E+02  0.90496797883E+02 0.  0.
         13    1    3    3    0    0 -0.24372606921E+02 -0.34466299644E+02 -0.14184731369E+02  0.44532769365E+02  0.10566000000E+00 0. -1.
         22    1    1    0    0    0  0.11380199311E+02  0.71457986894E+01 -0.26532520394E+02  0.29741318291E+02  0.00000000000E+00 0. -1.
</event>
<event>
 5    1  0.6835419E-004  0.9118800E+02  0.7818608E-02  0.1130116E+00
         25   -1    0    0    0    0  0.00000000000E+00  0.00000000000E+00  0.99999998245E-14  0.12500000000E+03  0.12500000000E+03 0.  0.
        -13    1    3    3    0    0 -0.31608195132E+02  0.88413385096E+01 -0.20817780245E+02  0.38866932018E+02  0.10566000000E+00 0.  1.
         23    2    1    0    0    0  0.14113245717E+02  0.23254193314E+02  0.10180675660E+02  0.95955424461E+02  0.91454120275E+02 0.  0.
         13    1    3    3    0    0  0.45721440849E+02  0.14412854804E+02  0.30998455905E+02  0.57088492443E+02  0.10566000000E+00 0. -1.
         22    1    1    0    0    0 -0.14113245717E+02 -0.23254193314E+02 -0.10180675660E+02  0.29044575539E+02  0.00000000000E+00 0. -1.
</event>
<event>
 5    1  0.6835419E-004  0.9118800E+02  0.7818608E-02  0.1130116E+00
         25   -1    0    0    0    0  0.00000000000E+00  0.00000000000E+00  0.99999998245E-14  0.12500000000E+03  0.12500000000E+03 0.  0.
        -13    1    3    3    0    0  0.20994820311E+02 -0.60635522964E+01 -0.34520035008E+02  0.40855760026E+02  0.10566000000E+00 0.  1.
         23    2    1    0    0    0  0.13106763821E+02  0.27023660080E+02  0.66283373967E+01  0.94242881822E+02  0.89082660801E+02 0.  0.
         13    1    3    3    0    0 -0.78880564892E+01  0.33087212376E+02  0.41148372405E+02  0.53387121796E+02  0.10566000000E+00 0. -1.
         22    1    1    0    0    0 -0.13106763821E+02 -0.27023660080E+02 -0.66283373967E+01  0.30757118178E+02  0.00000000000E+00 0. -1.
</event>
<event>
 5    1  0.6835419E-004  0.9118800E+02  0.7818608E-02  0.1130116E+00
         25   -1    0    0    0    0  0.00000000000E+00  0.00000000000E+00  0.99999998245E-14  0.12500000000E+03  0.12500000000E+03 0.  0.
        -13    1    3    3    0    0  0.16538342233E+02  0.76137208603E+01 -0.41508595440E+02  0.45326153251E+02  0.10566000000E+00 0.  1.
         23    2    1    0    0    0 -0.24619336858E+02 -0.18697150906E+01 -0.22318437268E+02  0.91717568840E+02  0.85465737052E+02 0.  0.
         13    1    3    3    0    0 -0.41157679091E+02 -0.94834359509E+01  0.19190158172E+02  0.46391415588E+02  0.10566000000E+00 0. -1.
         22    1    1    0    0    0  0.24619336858E+02  0.18697150906E+01  0.22318437268E+02  0.33282431160E+02  0.00000000000E+00 0.  1.
</event>
<event>
 5    1  0.6835419E-004  0.9118800E+02  0.7818608E-02  0.1130116E+00
         25   -1    0    0    0    0  0.00000000000E+00  0.00000000000E+00  0.99999998245E-14  0.12500000000E+03  0.12500000000E+03 0.  0.
        -13    1    3    3    0    0 -0.17012893783E+02 -0.18787733253E+02  0.28376866572E+02  0.38048327113E+02  0.10566000000E+00 0. -1.
         23    2    1    0    0    0 -0.14059752782E+02  0.17388798543E+02 -0.17540731226E+02  0.96579510648E+02  0.92303183380E+02 0.  0.
         13    1    3    3    0    0  0.29531410006E+01  0.36176531795E+02 -0.45917597797E+02  0.58531183535E+02  0.10566000000E+00 0.  1.
         22    1    1    0    0    0  0.14059752782E+02 -0.17388798543E+02  0.17540731226E+02  0.28420489352E+02  0.00000000000E+00 0.  1.
</event>
<event>
 5    1  0.6835419E-004  0.9118800E+02  0.7818608E-02  0.1130116E+00
         25   -1    0    0    0    0  0.00000000000E+00  0.00000000000E+00  0.99999998245E-14  0.12500000000E+03  0.12500000000E+03 0.  0.
        -13    1    3    3    0    0 -0.11374285089E+02  0.28683808631E+02 -0.23063140749E+02  0.38523432663E+02  0.10566000000E+00 0. -1.
         23    2    1    0    0    0  0.86284215072E+01  0.72651711444E+01  0.26554163812E+02  0.96149419673E+02  0.91718890738E+02 0.  0.
         13    1    3    3    0    0  0.20002706596E+02 -0.21418637487E+02  0.49617304561E+02  0.57625987010E+02  0.10566000000E+00 0.  1.
         22    1    1    0    0    0 -0.86284215072E+01 -0.72651711444E+01 -0.26554163812E+02  0.28850580327E+02  0.00000000000E+00 0.  1.
</event>
<event>
 5    1  0.6835419E-004  0.9118800E+02  0.7818608E-02  0.1130116E+00
         25   -1    0    0    0    0  0.00000000000E+00  0.00000000000E+00  0.99999998245E-14  0.12500000000E+03  0.12500000000E+03 0.  0.
        -13    1    3    3    0    0 -0.29239130288E+02  0.10617443860E+01  0.18230448301E+02  0.34473387569E+02  0.10566000000E+00 0.  1.
         23    2    1    0    0    0  0.22794011808E+02 -0.17421709402E+02 -0.74314727171E+01  0.95363709417E+02  0.90641752819E+02 0.  0.
         13    1    3    3    0    0  0.52033142096E+02 -0.18483453788E+02 -0.25661921018E+02  0.60890321848E+02  0.10566000000E+00 0. -1.
         22    1    1    0    0    0 -0.22794011808E+02  0.17421709402E+02  0.74314727171E+01  0.29636290583E+02  0.00000000000E+00 0. -1.
</event>
<event>
 5    1  0.6835419E-004  0.9118800E+02  0.7818608E-02  0.1130116E+00
         25   -1    0    0    0    0  0.00000000000E+00  0.00000000000E+00  0.99999998245E-14  0.12500000000E+03  0.12500000000E+03 0.  0.
        -13    1    3    3    0    0  0.25549584320E+02  0.69344479281E+01  0.25669421534E+02  0.36875441596E+02  0.10566000000E+00 0.  1.
         23    2    1    0    0    0  0.22595718685E+01 -0.21077748119E+02 -0.20381057950E+02  0.95593118935E+02  0.90957571063E+02 0.  0.
         13    1    3    3    0    0 -0.23290012451E+02 -0.28012196048E+02 -0.46050479483E+02  0.58717677339E+02  0.10566000000E+00 0. -1.
         22    1    1    0    0    0 -0.22595718685E+01  0.21077748119E+02  0.20381057950E+02  0.29406881065E+02  0.00000000000E+00 0. -1.
</event>
<event>
 5    1  0.6835419E-004  0.9118800E+02  0.7818608E-02  0.1130116E+00
         25   -1    0    0    0    0  0.00000000000E+00  0.00000000000E+00  0.99999998245E-14  0.12500000000E+03  0.12500000000E+03 0.  0.
        -13    1    3    3    0    0  0.86572937981E+01 -0.37700439298E+02 -0.47479525495E+02  0.61242047357E+02  0.10566000000E+00 0.  1.
         23    2    1    0    0    0 -0.41755934825E+01 -0.20198462104E+02 -0.19870780525E+02  0.96359794502E+02  0.92005155428E+02 0.  0.
         13    1    3    3    0    0 -0.12832887281E+02  0.17501977194E+02  0.27608744970E+02  0.35117747145E+02  0.10566000000E+00 0. -1.
         22    1    1    0    0    0  0.41755934825E+01  0.20198462104E+02  0.19870780525E+02  0.28640205498E+02  0.00000000000E+00 0.  1.
</event>
<event>
 5    1  0.6835419E-004  0.9118800E+02  0.7818608E-02  0.1130116E+00
         25   -1    0    0    0    0  0.00000000000E+00  0.00000000000E+00  0.99999998245E-14  0.12500000000E+03  0.12500000000E+03 0.  0.
        -13    1    3    3    0    0  0.15216807130E+01 -0.54815450277E+02 -0.10506176118E+02  0.55834039814E+02  0.10566000000E+00 0.  1.
         23    2    1    0    0    0 -0.16723055621E+02 -0.18776333824E+02 -0.13720932307E+02  0.96356060247E+02  0.92000081858E+02 0.  0.
         13    1    3    3    0    0 -0.18244736334E+02  0.36039116453E+02 -0.32147561896E+01  0.40522020433E+02  0.10566000000E+00 0. -1.
         22    1    1    0    0    0  0.16723055621E+02  0.18776333824E+02  0.13720932307E+02  0.28643939753E+02  0.00000000000E+00 0.  1.
</event>
<event>
 5    1  0.6835419E-004  0.9118800E+02  0.7818608E-02  0.1130116E+00
         25   -1    0    0    0    0  0.00000000000E+00  0.00000000000E+00  0.99999998245E-14  0.12500000000E+03  0.12500000000E+03 0.  0.
        -13    1    3    3    0    0  0.21481425043E+02  0.16406972738E+02  0.34680338758E+02  0.43970188045E+02  0.10566000000E+00 0.  1.
         23    2    1    0    0    0  0.13422564124E+02 -0.26089118003E+02  0.88267383707E+01  0.94361484760E+02  0.89248928229E+02 0.  0.
         13    1    3    3    0    0 -0.80588609188E+01 -0.42496090741E+02 -0.25853600387E+02  0.50391296715E+02  0.10566000000E+00 0. -1.
         22    1    1    0    0    0 -0.13422564124E+02  0.26089118003E+02 -0.88267383707E+01  0.30638515240E+02  0.00000000000E+00 0. -1.
</event>
<event>
 5    1  0.6835419E-004  0.9118800E+02  0.7818608E-02  0.1130116E+00
         25   -1    0    0    0    0  0.00000000000E+00  0.00000000000E+00  0.99999998245E-14  0.12500000000E+03  0.12500000000E+03 0.  0.
        -13    1    3    3    0    0  0.82586853087E+01 -0.32086200820E+02 -0.25117057287E+01  0.33227247792E+02  0.10566000000E+00 0.  1.
         23    2    1    0    0    0 -0.18481722196E+02  0.23589443162E+02 -0.29832439423E+00  0.95031268270E+02  0.90182132751E+02 0.  0.
         13    1    3    3    0    0 -0.26740407505E+02  0.55675643982E+02  0.22133813345E+01  0.61804020479E+02  0.10566000000E+00 0. -1.
         22    1    1    0    0    0  0.18481722196E+02 -0.23589443162E+02  0.29832439423E+00  0.29968731730E+02  0.00000000000E+00 0. -1.
</event>
<event>
 5    1  0.6835419E-004  0.9118800E+02  0.7818608E-02  0.1130116E+00
         25   -1    0    0    0    0  0.00000000000E+00  0.00000000000E+00  0.99999998245E-14  0.12500000000E+03  0.12500000000E+03 0.  0.
        -13    1    3    3    0    0  0.16980558272E+02 -0.20235682091E+02 -0.81124479704E+01  0.27634130438E+02  0.10566000000E+00 0.  1.
         23    2    1    0    0    0 -0.24085331890E+02 -0.10743782793E+02  0.30418519544E+02  0.84740610882E+02  0.74566431593E+02 0.  0.
         13    1    3    3    0    0 -0.41065890162E+02  0.94918992985E+01  0.38530967514E+02  0.57106480444E+02  0.10566000000E+00 0. -1.
         22    1    1    0    0    0  0.24085331890E+02  0.10743782793E+02 -0.30418519544E+02  0.40259389118E+02  0.00000000000E+00 0. -1.
</event>
<event>
 5    1  0.6835419E-004  0.9118800E+02  0.7818608E-02  0.1130116E+00
         25   -1    0    0    0    0  0.00000000000E+00  0.00000000000E+00  0.99999998245E-14  0.12500000000E+03  0.12500000000E+03 0.  0.
        -13    1    3    3    0    0 -0.23730965409E+02 -0.22080518356E+02 -0.22418982684E+02  0.39412307199E+02  0.10566000000E+00 0.  1.
         23    2    1    0    0    0  0.20398958546E+02  0.12654240151E+02 -0.16472871434E+02  0.95886381248E+02  0.91359702890E+02 0.  0.
         13    1    3    3    0    0  0.44129923954E+02  0.34734758507E+02  0.59461112508E+01  0.56474074050E+02  0.10566000000E+00 0. -1.
         22    1    1    0    0    0 -0.20398958546E+02 -0.12654240151E+02  0.16472871434E+02  0.29113618752E+02  0.00000000000E+00 0. -1.
</event>
<event>
 5    1  0.6835419E-004  0.9118800E+02  0.7818608E-02  0.1130116E+00
         25   -1    0    0    0    0  0.00000000000E+00  0.00000000000E+00  0.99999998245E-14  0.12500000000E+03  0.12500000000E+03 0.  0.
        -13    1    3    3    0    0  0.70290676689E+01 -0.31882974376E+02 -0.12848825287E+02  0.35086112960E+02  0.10566000000E+00 0.  1.
         23    2    1    0    0    0 -0.19346415909E+01  0.27752853606E+02  0.17197206002E+01  0.97126694486E+02  0.93041246882E+02 0.  0.
         13    1    3    3    0    0 -0.89637092598E+01  0.59635827982E+02  0.14568545887E+02  0.62040581526E+02  0.10566000000E+00 0. -1.
         22    1    1    0    0    0  0.19346415909E+01 -0.27752853606E+02 -0.17197206002E+01  0.27873305514E+02  0.00000000000E+00 0. -1.
</event>
<event>
 5    1  0.6835419E-004  0.9118800E+02  0.7818608E-02  0.1130116E+00
         25   -1    0    0    0    0  0.00000000000E+00  0.00000000000E+00  0.99999998245E-14  0.12500000000E+03  0.12500000000E+03 0.  0.
        -13    1    3    3    0    0 -0.25444399564E+02  0.37094642676E+02 -0.27256219569E+01  0.45065176839E+02  0.10566000000E+00 0.  1.
         23    2    1    0    0    0  0.21616523900E+02  0.17854140814E+02 -0.70489970965E+01  0.96090956263E+02  0.91639178661E+02 0.  0.
         13    1    3    3    0    0  0.47060923464E+02 -0.19240501862E+02 -0.43233751396E+01  0.51025779424E+02  0.10566000000E+00 0. -1.
         22    1    1    0    0    0 -0.21616523900E+02 -0.17854140814E+02  0.70489970965E+01  0.28909043737E+02  0.00000000000E+00 0.  1.
</event>
<event>
 5    1  0.6835419E-004  0.9118800E+02  0.7818608E-02  0.1130116E+00
         25   -1    0    0    0    0  0.00000000000E+00  0.00000000000E+00  0.99999998245E-14  0.12500000000E+03  0.12500000000E+03 0.  0.
        -13    1    3    3    0    0  0.45013465789E+01 -0.48904752461E+02 -0.14570422962E+02  0.51227388413E+02  0.10566000000E+00 0.  1.
         23    2    1    0    0    0 -0.29098868648E+01 -0.20981478127E+02  0.19715480608E+02  0.96062307597E+02  0.91600092245E+02 0.  0.
         13    1    3    3    0    0 -0.74112334437E+01  0.27923274333E+02  0.34285903570E+02  0.44834919185E+02  0.10566000000E+00 0. -1.
         22    1    1    0    0    0  0.29098868648E+01  0.20981478127E+02 -0.19715480608E+02  0.28937692403E+02  0.00000000000E+00 0.  1.
</event>
<event>
 5    1  0.6835419E-004  0.9118800E+02  0.7818608E-02  0.1130116E+00
         25   -1    0    0    0    0  0.00000000000E+00  0.00000000000E+00  0.99999998245E-14  0.12500000000E+03  0.12500000000E+03 0.  0.
        -13    1    3    3    0    0  0.36930123826E+02 -0.31339983768E+02 -0.22524033999E+02  0.53416962662E+02  0.10566000000E+00 0.  1.
         23    2    1    0    0    0  0.25119349226E+02  0.51710247679E+01 -0.21053578694E+02  0.91819066039E+02  0.85614055561E+02 0.  0.
         13    1    3    3    0    0 -0.11810774599E+02  0.36511008536E+02  0.14704553051E+01  0.38402103377E+02  0.10566000000E+00 0. -1.
         22    1    1    0    0    0 -0.25119349226E+02 -0.51710247679E+01  0.21053578694E+02  0.33180933961E+02  0.00000000000E+00 0.  1.
</event>
<event>
 5    1  0.6835419E-004  0.9118800E+02  0.7818608E-02  0.1130116E+00
         25   -1    0    0    0    0  0.00000000000E+00  0.00000000000E+00  0.99999998245E-14  0.12500000000E+03  0.12500000000E+03 0.  0.
        -13    1    3    3    0    0  0.29173505084E+02  0.21687566648E+02  0.94289825752E+01  0.37554770968E+02  0.10566000000E+00 0.  1.
         23    2    1    0    0    0 -0.25849112515E+02  0.71841427392E+01 -0.78915079165E+01  0.97034585254E+02  0.92917416631E+02 0.  0.
         13    1    3    3    0    0 -0.55022617600E+02 -0.14503423908E+02 -0.17320490492E+02  0.59479814286E+02  0.10566000000E+00 0. -1.
         22    1    1    0    0    0  0.25849112515E+02 -0.71841427392E+01  0.78915079165E+01  0.27965414746E+02  0.00000000000E+00 0. -1.
</event>
<event>
 5    1  0.6835419E-004  0.9118800E+02  0.7818608E-02  0.1130116E+00
         25   -1    0    0    0    0  0.00000000000E+00  0.00000000000E+00  0.99999998245E-14  0.12500000000E+03  0.12500000000E+03 0.  0.
        -13    1    3    3    0    0  0.32072308165E+01  0.38656491662E+02 -0.46418810387E+01  0.39066211753E+02  0.10566000000E+00 0.  1.
         23    2    1    0    0    0  0.11018120258E+01 -0.14398870881E+02 -0.25160247387E+02  0.95990009980E+02  0.91501379743E+02 0.  0.
         13    1    3    3    0    0 -0.21054187907E+01 -0.53055362543E+02 -0.20518366348E+02  0.56923798227E+02  0.10566000000E+00 0. -1.
         22    1    1    0    0    0 -0.11018120258E+01  0.14398870881E+02  0.25160247387E+02  0.29009990020E+02  0.00000000000E+00 0. -1.
</event>
<event>
 5    1  0.6835419E-004  0.9118800E+02  0.7818608E-02  0.1130116E+00
         25   -1    0    0    0    0  0.00000000000E+00  0.00000000000E+00  0.99999998245E-14  0.12500000000E+03  0.12500000000E+03 0.  0.
        -13    1    3    3    0    0 -0.22908326677E+02 -0.36568796167E+01  0.39721123741E+02  0.45999380811E+02  0.10566000000E+00 0.  1.
         23    2    1    0    0    0 -0.15209696316E+02 -0.21114620323E+02 -0.83112194723E+01  0.97682635146E+02  0.93785173597E+02 0.  0.
         13    1    3    3    0    0  0.76986303610E+01 -0.17457740707E+02 -0.48032343214E+02  0.51683254335E+02  0.10566000000E+00 0. -1.
         22    1    1    0    0    0  0.15209696316E+02  0.21114620323E+02  0.83112194723E+01  0.27317364854E+02  0.00000000000E+00 0. -1.
</event>
<event>
 5    1  0.6835419E-004  0.9118800E+02  0.7818608E-02  0.1130116E+00
         25   -1    0    0    0    0  0.00000000000E+00  0.00000000000E+00  0.99999998245E-14  0.12500000000E+03  0.12500000000E+03 0.  0.
        -13    1    3    3    0    0 -0.52246822441E+02 -0.31943713362E+02  0.35029114745E+01  0.61338510182E+02  0.10566000000E+00 0. -1.
         23    2    1    0    0    0 -0.26996698183E+02 -0.10086812700E+02  0.81348392888E+01  0.95054364033E+02  0.90214139735E+02 0.  0.
         13    1    3    3    0    0  0.25250124258E+02  0.21856900661E+02  0.46319278144E+01  0.33715853851E+02  0.10566000000E+00 0.  1.
         22    1    1    0    0    0  0.26996698183E+02  0.10086812700E+02 -0.81348392888E+01  0.29945635967E+02  0.00000000000E+00 0. -1.
</event>
<event>
 5    1  0.6835419E-004  0.9118800E+02  0.7818608E-02  0.1130116E+00
         25   -1    0    0    0    0  0.00000000000E+00  0.00000000000E+00  0.99999998245E-14  0.12500000000E+03  0.12500000000E+03 0.  0.
        -13    1    3    3    0    0  0.11651216577E+02 -0.24065429207E+02 -0.50326551990E+02  0.56988320995E+02  0.10566000000E+00 0.  1.
         23    2    1    0    0    0 -0.56317582199E+01  0.28351751855E+01 -0.28762140728E+02  0.95554870382E+02  0.90904992137E+02 0.  0.
         13    1    3    3    0    0 -0.17282974797E+02  0.26900604392E+02  0.21564411262E+02  0.38566549387E+02  0.10566000000E+00 0. -1.
         22    1    1    0    0    0  0.56317582199E+01 -0.28351751855E+01  0.28762140728E+02  0.29445129618E+02  0.00000000000E+00 0.  1.
</event>
<event>
 5    1  0.6835419E-004  0.9118800E+02  0.7818608E-02  0.1130116E+00
         25   -1    0    0    0    0  0.00000000000E+00  0.00000000000E+00  0.99999998245E-14  0.12500000000E+03  0.12500000000E+03 0.  0.
        -13    1    3    3    0    0  0.61569187379E+01  0.35296567965E+02 -0.79769422827E+01  0.36706922108E+02  0.10566000000E+00 0. -1.
         23    2    1    0    0    0  0.96829544820E+01 -0.22556378670E+02 -0.16687193088E+02  0.95318149664E+02  0.90578901605E+02 0.  0.
         13    1    3    3    0    0  0.35260357441E+01 -0.57852946635E+02 -0.87102508056E+01  0.58611227556E+02  0.10566000000E+00 0.  1.
         22    1    1    0    0    0 -0.96829544820E+01  0.22556378670E+02  0.16687193088E+02  0.29681850336E+02  0.00000000000E+00 0.  1.
</event>
<event>
 5    1  0.6835419E-004  0.9118800E+02  0.7818608E-02  0.1130116E+00
         25   -1    0    0    0    0  0.00000000000E+00  0.00000000000E+00  0.99999998245E-14  0.12500000000E+03  0.12500000000E+03 0.  0.
        -13    1    3    3    0    0  0.24566441259E+02 -0.15203331603E+02  0.51631907092E+02  0.59165161387E+02  0.10566000000E+00 0. -1.
         23    2    1    0    0    0  0.23031069331E+02 -0.22165977807E+01  0.16698751167E+02  0.96465954532E+02  0.92149273643E+02 0.  0.
         13    1    3    3    0    0 -0.15353719282E+01  0.12986733823E+02 -0.34933155925E+02  0.37300793145E+02  0.10566000000E+00 0.  1.
         22    1    1    0    0    0 -0.23031069331E+02  0.22165977807E+01 -0.16698751167E+02  0.28534045468E+02  0.00000000000E+00 0. -1.
</event>
<event>
 5    1  0.6835419E-004  0.9118800E+02  0.7818608E-02  0.1130116E+00
         25   -1    0    0    0    0  0.00000000000E+00  0.00000000000E+00  0.99999998245E-14  0.12500000000E+03  0.12500000000E+03 0.  0.
        -13    1    3    3    0    0  0.25628084731E+02 -0.47880469256E+02  0.47355397536E+00  0.54309975885E+02  0.10566000000E+00 0. -1.
         23    2    1    0    0    0 -0.11076881421E+01 -0.21869430312E+02 -0.18658223320E+02  0.96231471142E+02  0.91830647311E+02 0.  0.
         13    1    3    3    0    0 -0.26735772874E+02  0.26011038944E+02 -0.19131777296E+02  0.41921495258E+02  0.10566000000E+00 0.  1.
         22    1    1    0    0    0  0.11076881421E+01  0.21869430312E+02  0.18658223320E+02  0.28768528858E+02  0.00000000000E+00 0.  1.
</event>
<event>
 5    1  0.6835419E-004  0.9118800E+02  0.7818608E-02  0.1130116E+00
         25   -1    0    0    0    0  0.00000000000E+00  0.00000000000E+00  0.99999998245E-14  0.12500000000E+03  0.12500000000E+03 0.  0.
        -13    1    3    3    0    0  0.43167768293E+02 -0.18812687671E+02  0.38636973151E+02  0.60911413505E+02  0.10566000000E+00 0.  1.
         23    2    1    0    0    0  0.19660484201E+02  0.21329586704E+00  0.22248321316E+02  0.95308790265E+02  0.90565984598E+02 0.  0.
         13    1    3    3    0    0 -0.23507284092E+02  0.19025983538E+02 -0.16388651835E+02  0.34397376760E+02  0.10566000000E+00 0. -1.
         22    1    1    0    0    0 -0.19660484201E+02 -0.21329586704E+00 -0.22248321316E+02  0.29691209735E+02  0.00000000000E+00 0.  1.
</event>
<event>
 5    1  0.6835419E-004  0.9118800E+02  0.7818608E-02  0.1130116E+00
         25   -1    0    0    0    0  0.00000000000E+00  0.00000000000E+00  0.99999998245E-14  0.12500000000E+03  0.12500000000E+03 0.  0.
        -13    1    3    3    0    0  0.42314938363E+02 -0.20947450105E+01  0.12839536941E+02  0.44269705649E+02  0.10566000000E+00 0.  1.
         23    2    1    0    0    0  0.10516394366E+02 -0.24556430970E+02 -0.17012556922E+02  0.93329194114E+02  0.87791221250E+02 0.  0.
         13    1    3    3    0    0 -0.31798543997E+02 -0.22461685960E+02 -0.29852093862E+02  0.49059488466E+02  0.10566000000E+00 0. -1.
         22    1    1    0    0    0 -0.10516394366E+02  0.24556430970E+02  0.17012556922E+02  0.31670805886E+02  0.00000000000E+00 0. -1.
</event>
<event>
 5    1  0.6835419E-004  0.9118800E+02  0.7818608E-02  0.1130116E+00
         25   -1    0    0    0    0  0.00000000000E+00  0.00000000000E+00  0.99999998245E-14  0.12500000000E+03  0.12500000000E+03 0.  0.
        -13    1    3    3    0    0  0.41153089858E+02  0.43774890439E+01 -0.32997932384E+02  0.52930274143E+02  0.10566000000E+00 0.  1.
         23    2    1    0    0    0  0.96708604018E+01 -0.18049995055E+02 -0.25484385025E+02  0.92307772445E+02  0.86324637916E+02 0.  0.
         13    1    3    3    0    0 -0.31482229457E+02 -0.22427484099E+02  0.75135473590E+01  0.39377498302E+02  0.10566000000E+00 0. -1.
         22    1    1    0    0    0 -0.96708604018E+01  0.18049995055E+02  0.25484385025E+02  0.32692227555E+02  0.00000000000E+00 0.  1.
</event>
<event>
 5    1  0.6835419E-004  0.9118800E+02  0.7818608E-02  0.1130116E+00
         25   -1    0    0    0    0  0.00000000000E+00  0.00000000000E+00  0.99999998245E-14  0.12500000000E+03  0.12500000000E+03 0.  0.
        -13    1    3    3    0    0 -0.27415813532E+02 -0.21072800505E+02 -0.23008426713E+02  0.41534186119E+02  0.10566000000E+00 0.  1.
         23    2    1    0    0    0 -0.16847120102E+02 -0.27349396539E+01  0.25417611720E+02  0.94383659000E+02  0.89279979559E+02 0.  0.
         13    1    3    3    0    0  0.10568693431E+02  0.18337860851E+02  0.48426038433E+02  0.52849472881E+02  0.10566000000E+00 0. -1.
         22    1    1    0    0    0  0.16847120102E+02  0.27349396539E+01 -0.25417611720E+02  0.30616341000E+02  0.00000000000E+00 0. -1.
</event>
<event>
 5    1  0.6835419E-004  0.9118800E+02  0.7818608E-02  0.1130116E+00
         25   -1    0    0    0    0  0.00000000000E+00  0.00000000000E+00  0.99999998245E-14  0.12500000000E+03  0.12500000000E+03 0.  0.
        -13    1    3    3    0    0 -0.58209728536E+02  0.13452725555E+02 -0.34493977745E+01  0.59843611439E+02  0.10566000000E+00 0.  1.
         23    2    1    0    0    0 -0.24734730856E+02  0.99942476272E+01  0.10575902950E+02  0.96302585145E+02  0.91927396821E+02 0.  0.
         13    1    3    3    0    0  0.33474997679E+02 -0.34584779278E+01  0.14025300725E+02  0.36458973706E+02  0.10566000000E+00 0. -1.
         22    1    1    0    0    0  0.24734730856E+02 -0.99942476272E+01 -0.10575902950E+02  0.28697414855E+02  0.00000000000E+00 0.  1.
</event>
<event>
 5    1  0.6835419E-004  0.9118800E+02  0.7818608E-02  0.1130116E+00
         25   -1    0    0    0    0  0.00000000000E+00  0.00000000000E+00  0.99999998245E-14  0.12500000000E+03  0.12500000000E+03 0.  0.
        -13    1    3    3    0    0 -0.13076770680E+01  0.93883347244E+01 -0.38743269485E+02  0.39886124688E+02  0.10566000000E+00 0. -1.
         23    2    1    0    0    0  0.24884839077E+02 -0.15160455536E+02  0.38698971895E+01  0.95604919932E+02  0.90973787340E+02 0.  0.
         13    1    3    3    0    0  0.26192516145E+02 -0.24548790260E+02  0.42613166675E+02  0.55718795243E+02  0.10566000000E+00 0.  1.
         22    1    1    0    0    0 -0.24884839077E+02  0.15160455536E+02 -0.38698971895E+01  0.29395080068E+02  0.00000000000E+00 0.  1.
</event>
<event>
 5    1  0.6835419E-004  0.9118800E+02  0.7818608E-02  0.1130116E+00
         25   -1    0    0    0    0  0.00000000000E+00  0.00000000000E+00  0.99999998245E-14  0.12500000000E+03  0.12500000000E+03 0.  0.
        -13    1    3    3    0    0  0.27529616534E+02  0.75037184750E+01  0.60539944994E+01  0.29169291917E+02  0.10566000000E+00 0.  1.
         23    2    1    0    0    0 -0.92895320038E+01 -0.31176499540E+02 -0.18091563207E+02  0.87776698324E+02  0.79493236070E+02 0.  0.
         13    1    3    3    0    0 -0.36819148538E+02 -0.38680218015E+02 -0.24145557706E+02  0.58607406407E+02  0.10566000000E+00 0. -1.
         22    1    1    0    0    0  0.92895320038E+01  0.31176499540E+02  0.18091563207E+02  0.37223301676E+02  0.00000000000E+00 0. -1.
</event>
<event>
 5    1  0.6835419E-004  0.9118800E+02  0.7818608E-02  0.1130116E+00
         25   -1    0    0    0    0  0.00000000000E+00  0.00000000000E+00  0.99999998245E-14  0.12500000000E+03  0.12500000000E+03 0.  0.
        -13    1    3    3    0    0  0.34096744316E+02  0.37101022310E+02  0.23017797096E+02  0.55397689272E+02  0.10566000000E+00 0.  1.
         23    2    1    0    0    0  0.27325886005E+02 -0.56998789954E+00  0.79065838279E+01  0.96547530863E+02  0.92259865141E+02 0.  0.
         13    1    3    3    0    0 -0.67708583115E+01 -0.37671010210E+02 -0.15111213269E+02  0.41149841591E+02  0.10566000000E+00 0. -1.
         22    1    1    0    0    0 -0.27325886005E+02  0.56998789954E+00 -0.79065838279E+01  0.28452469137E+02  0.00000000000E+00 0.  1.
</event>
<event>
 5    1  0.6835419E-004  0.9118800E+02  0.7818608E-02  0.1130116E+00
         25   -1    0    0    0    0  0.00000000000E+00  0.00000000000E+00  0.99999998245E-14  0.12500000000E+03  0.12500000000E+03 0.  0.
        -13    1    3    3    0    0 -0.37897190171E+02 -0.27245384784E+02 -0.16037695070E+02  0.49353083410E+02  0.10566000000E+00 0. -1.
         23    2    1    0    0    0  0.54699318117E+01 -0.29118820812E+02 -0.78858932729E+00  0.95361380723E+02  0.90638541365E+02 0.  0.
         13    1    3    3    0    0  0.43367121983E+02 -0.18734360283E+01  0.15249105743E+02  0.46008297313E+02  0.10566000000E+00 0.  1.
         22    1    1    0    0    0 -0.54699318117E+01  0.29118820812E+02  0.78858932729E+00  0.29638619277E+02  0.00000000000E+00 0.  1.
</event>
<event>
 5    1  0.6835419E-004  0.9118800E+02  0.7818608E-02  0.1130116E+00
         25   -1    0    0    0    0  0.00000000000E+00  0.00000000000E+00  0.99999998245E-14  0.12500000000E+03  0.12500000000E+03 0.  0.
        -13    1    3    3    0    0  0.10451197400E+02 -0.15939119167E+01 -0.24331521029E+02  0.26529269909E+02  0.10566000000E+00 0.  1.
         23    2    1    0    0    0 -0.82139932639E+01  0.17138364419E+02  0.31445487599E+02  0.88257491775E+02  0.80245703585E+02 0.  0.
         13    1    3    3    0    0 -0.18665190664E+02  0.18732276336E+02  0.55777008628E+02  0.61728221866E+02  0.10566000000E+00 0. -1.
         22    1    1    0    0    0  0.82139932639E+01 -0.17138364419E+02 -0.31445487599E+02  0.36742508225E+02  0.00000000000E+00 0. -1.
</event>
<event>
 5    1  0.6835419E-004  0.9118800E+02  0.7818608E-02  0.1130116E+00
         25   -1    0    0    0    0  0.00000000000E+00  0.00000000000E+00  0.99999998245E-14  0.12500000000E+03  0.12500000000E+03 0.  0.
        -13    1    3    3    0    0 -0.12931949231E+02  0.21942646348E+02  0.45177810538E+02  0.51862903589E+02  0.10566000000E+00 0.  1.
         23    2    1    0    0    0  0.70709328157E+01  0.26888988133E+02  0.53766099306E+01  0.96681742497E+02  0.92441525432E+02 0.  0.
         13    1    3    3    0    0  0.20002882047E+02  0.49463417847E+01 -0.39801200607E+02  0.44818838908E+02  0.10566000000E+00 0. -1.
         22    1    1    0    0    0 -0.70709328157E+01 -0.26888988133E+02 -0.53766099306E+01  0.28318257503E+02  0.00000000000E+00 0. -1.
</event>
<event>
 5    1  0.6835419E-004  0.9118800E+02  0.7818608E-02  0.1130116E+00
         25   -1    0    0    0    0  0.00000000000E+00  0.00000000000E+00  0.99999998245E-14  0.12500000000E+03  0.12500000000E+03 0.  0.
        -13    1    3    3    0    0  0.20635068907E+02  0.53324055620E+02 -0.50574894824E+01  0.57400786932E+02  0.10566000000E+00 0. -1.
         23    2    1    0    0    0  0.23481445198E+02  0.13824483837E+02  0.22005478206E+01  0.97662534268E+02  0.93758378650E+02 0.  0.
         13    1    3    3    0    0  0.28463762903E+01 -0.39499571783E+02  0.72580373030E+01  0.40261747336E+02  0.10566000000E+00 0.  1.
         22    1    1    0    0    0 -0.23481445198E+02 -0.13824483837E+02 -0.22005478206E+01  0.27337465732E+02  0.00000000000E+00 0. -1.
</event>
<event>
 5    1  0.6835419E-004  0.9118800E+02  0.7818608E-02  0.1130116E+00
         25   -1    0    0    0    0  0.00000000000E+00  0.00000000000E+00  0.99999998245E-14  0.12500000000E+03  0.12500000000E+03 0.  0.
        -13    1    3    3    0    0  0.67230033033E+01 -0.42370135851E+02 -0.31387690151E+02  0.53156612407E+02  0.10566000000E+00 0. -1.
         23    2    1    0    0    0  0.22137992053E+02 -0.31023982567E+01 -0.12634112799E+02  0.99322453908E+02  0.95945888275E+02 0.  0.
         13    1    3    3    0    0  0.15414988750E+02  0.39267737595E+02  0.18753577352E+02  0.46165841501E+02  0.10566000000E+00 0.  1.
         22    1    1    0    0    0 -0.22137992053E+02  0.31023982567E+01  0.12634112799E+02  0.25677546092E+02  0.00000000000E+00 0. -1.
</event>
<event>
 5    1  0.6835419E-004  0.9118800E+02  0.7818608E-02  0.1130116E+00
         25   -1    0    0    0    0  0.00000000000E+00  0.00000000000E+00  0.99999998245E-14  0.12500000000E+03  0.12500000000E+03 0.  0.
        -13    1    3    3    0    0  0.16091373060E+02 -0.37756684712E+02 -0.93037660005E+01  0.42084091450E+02  0.10566000000E+00 0. -1.
         23    2    1    0    0    0 -0.26581734223E+02 -0.30957688784E+01 -0.79720188322E+01  0.97076435336E+02  0.92973699690E+02 0.  0.
         13    1    3    3    0    0 -0.42673107283E+02  0.34660915833E+02  0.13317471683E+01  0.54992343886E+02  0.10566000000E+00 0.  1.
         22    1    1    0    0    0  0.26581734223E+02  0.30957688784E+01  0.79720188322E+01  0.27923564664E+02  0.00000000000E+00 0.  1.
</event>
<event>
 5    1  0.6835419E-004  0.9118800E+02  0.7818608E-02  0.1130116E+00
         25   -1    0    0    0    0  0.00000000000E+00  0.00000000000E+00  0.99999998245E-14  0.12500000000E+03  0.12500000000E+03 0.  0.
        -13    1    3    3    0    0 -0.29136478254E+02 -0.41034905223E+01 -0.13596018960E+02  0.32413514082E+02  0.10566000000E+00 0. -1.
         23    2    1    0    0    0  0.18249753085E+02  0.19055921929E+02  0.17213887661E+02  0.93496038715E+02  0.88028459482E+02 0.  0.
         13    1    3    3    0    0  0.47386231339E+02  0.23159412451E+02  0.30809906621E+02  0.61082524634E+02  0.10566000000E+00 0.  1.
         22    1    1    0    0    0 -0.18249753085E+02 -0.19055921929E+02 -0.17213887661E+02  0.31503961285E+02  0.00000000000E+00 0.  1.
</event>
<event>
 5    1  0.6835419E-004  0.9118800E+02  0.7818608E-02  0.1130116E+00
         25   -1    0    0    0    0  0.00000000000E+00  0.00000000000E+00  0.99999998245E-14  0.12500000000E+03  0.12500000000E+03 0.  0.
        -13    1    3    3    0    0  0.16745416303E+02 -0.12743217306E+02 -0.51911167780E+02  0.56014096965E+02  0.10566000000E+00 0. -1.
         23    2    1    0    0    0 -0.10013822667E+02 -0.15560143579E+02 -0.22240324896E+02  0.96068585170E+02  0.91608658392E+02 0.  0.
         13    1    3    3    0    0 -0.26759238970E+02 -0.28169262734E+01  0.29670842884E+02  0.40054488205E+02  0.10566000000E+00 0.  1.
         22    1    1    0    0    0  0.10013822667E+02  0.15560143579E+02  0.22240324896E+02  0.28931414830E+02  0.00000000000E+00 0. -1.
</event>
<event>
 5    1  0.6835419E-004  0.9118800E+02  0.7818608E-02  0.1130116E+00
         25   -1    0    0    0    0  0.00000000000E+00  0.00000000000E+00  0.99999998245E-14  0.12500000000E+03  0.12500000000E+03 0.  0.
        -13    1    3    3    0    0 -0.14574013816E+02  0.40656677961E+02  0.40924906114E+02  0.59499802067E+02  0.10566000000E+00 0.  1.
         23    2    1    0    0    0 -0.99409806211E+01  0.26876653468E+02  0.83811687654E+01  0.95143315870E+02  0.90337306621E+02 0.  0.
         13    1    3    3    0    0  0.46330331945E+01 -0.13780024492E+02 -0.32543737349E+02  0.35643513803E+02  0.10566000000E+00 0. -1.
         22    1    1    0    0    0  0.99409806211E+01 -0.26876653468E+02 -0.83811687654E+01  0.29856684130E+02  0.00000000000E+00 0.  1.
</event>
<event>
 5    1  0.6835419E-004  0.9118800E+02  0.7818608E-02  0.1130116E+00
         25   -1    0    0    0    0  0.00000000000E+00  0.00000000000E+00  0.99999998245E-14  0.12500000000E+03  0.12500000000E+03 0.  0.
        -13    1    3    3    0    0  0.39016126235E+02  0.19047046899E+02  0.22500499621E+02  0.48901244864E+02  0.10566000000E+00 0. -1.
         23    2    1    0    0    0 -0.78837434128E+01  0.44384492414E+01  0.25327577671E+02  0.98105029605E+02  0.94346475299E+02 0.  0.
         13    1    3    3    0    0 -0.46899869648E+02 -0.14608597657E+02  0.28270780496E+01  0.49203784741E+02  0.10566000000E+00 0.  1.
         22    1    1    0    0    0  0.78837434128E+01 -0.44384492414E+01 -0.25327577671E+02  0.26894970395E+02  0.00000000000E+00 0. -1.
</event>
<event>
 5    1  0.6835419E-004  0.9118800E+02  0.7818608E-02  0.1130116E+00
         25   -1    0    0    0    0  0.00000000000E+00  0.00000000000E+00  0.99999998245E-14  0.12500000000E+03  0.12500000000E+03 0.  0.
        -13    1    3    3    0    0  0.27921059319E+02 -0.20899694330E+02 -0.15508557594E+02  0.38169481254E+02  0.10566000000E+00 0.  1.
         23    2    1    0    0    0  0.16553255275E+02  0.27287098256E+02  0.66295910799E+01  0.92403259836E+02  0.86462795230E+02 0.  0.
         13    1    3    3    0    0 -0.11367804043E+02  0.48186792586E+02  0.22138148674E+02  0.54233778581E+02  0.10566000000E+00 0. -1.
         22    1    1    0    0    0 -0.16553255275E+02 -0.27287098256E+02 -0.66295910799E+01  0.32596740164E+02  0.00000000000E+00 0.  1.
</event>
<event>
 5    1  0.6835419E-004  0.9118800E+02  0.7818608E-02  0.1130116E+00
         25   -1    0    0    0    0  0.00000000000E+00  0.00000000000E+00  0.99999998245E-14  0.12500000000E+03  0.12500000000E+03 0.  0.
        -13    1    3    3    0    0  0.16117138624E+02 -0.40955008261E+02  0.14159201074E+02  0.46233851215E+02  0.10566000000E+00 0. -1.
         23    2    1    0    0    0 -0.19098154179E+02 -0.91703733764E+01  0.22160107466E+02  0.94342120037E+02  0.89221802320E+02 0.  0.
         13    1    3    3    0    0 -0.35215292803E+02  0.31784634885E+02  0.80009063921E+01  0.48108268822E+02  0.10566000000E+00 0.  1.
         22    1    1    0    0    0  0.19098154179E+02  0.91703733764E+01 -0.22160107466E+02  0.30657879963E+02  0.00000000000E+00 0. -1.
</event>
<event>
 5    1  0.6835419E-004  0.9118800E+02  0.7818608E-02  0.1130116E+00
         25   -1    0    0    0    0  0.00000000000E+00  0.00000000000E+00  0.99999998245E-14  0.12500000000E+03  0.12500000000E+03 0.  0.
        -13    1    3    3    0    0  0.29236309016E+02  0.34912355853E+01 -0.26472455370E+02  0.39594855072E+02  0.10566000000E+00 0.  1.
         23    2    1    0    0    0 -0.86992981416E+01  0.21317258074E+02  0.14158585507E+02  0.97970963326E+02  0.94168682860E+02 0.  0.
         13    1    3    3    0    0 -0.37935607158E+02  0.17826022488E+02  0.40631040877E+02  0.58376108255E+02  0.10566000000E+00 0. -1.
         22    1    1    0    0    0  0.86992981416E+01 -0.21317258074E+02 -0.14158585507E+02  0.27029036674E+02  0.00000000000E+00 0.  1.
</event>
<event>
 5    1  0.6835419E-004  0.9118800E+02  0.7818608E-02  0.1130116E+00
         25   -1    0    0    0    0  0.00000000000E+00  0.00000000000E+00  0.99999998245E-14  0.12500000000E+03  0.12500000000E+03 0.  0.
        -13    1    3    3    0    0  0.41264958220E+02  0.16618155384E+02  0.38844767525E+01  0.44654901063E+02  0.10566000000E+00 0. -1.
         23    2    1    0    0    0  0.11342330937E+02 -0.23265036538E+02 -0.11274161199E+02  0.96768508595E+02  0.92558776725E+02 0.  0.
         13    1    3    3    0    0 -0.29922627283E+02 -0.39883191922E+02 -0.15158637952E+02  0.52113607532E+02  0.10566000000E+00 0.  1.
         22    1    1    0    0    0 -0.11342330937E+02  0.23265036538E+02  0.11274161199E+02  0.28231491405E+02  0.00000000000E+00 0.  1.
</event>
<event>
 5    1  0.6835419E-004  0.9118800E+02  0.7818608E-02  0.1130116E+00
         25   -1    0    0    0    0  0.00000000000E+00  0.00000000000E+00  0.99999998245E-14  0.12500000000E+03  0.12500000000E+03 0.  0.
        -13    1    3    3    0    0 -0.27469843048E+02  0.27882707248E+02  0.45073086269E+02  0.59696163280E+02  0.10566000000E+00 0.  1.
         23    2    1    0    0    0 -0.18683551880E+01  0.95679648041E+01  0.27665804924E+02  0.95666853839E+02  0.91058846137E+02 0.  0.
         13    1    3    3    0    0  0.25601487860E+02 -0.18314742444E+02 -0.17407281345E+02  0.35970690559E+02  0.10566000000E+00 0. -1.
         22    1    1    0    0    0  0.18683551880E+01 -0.95679648041E+01 -0.27665804924E+02  0.29333146161E+02  0.00000000000E+00 0.  1.
</event>
<event>
 5    1  0.6835419E-004  0.9118800E+02  0.7818608E-02  0.1130116E+00
         25   -1    0    0    0    0  0.00000000000E+00  0.00000000000E+00  0.99999998245E-14  0.12500000000E+03  0.12500000000E+03 0.  0.
        -13    1    3    3    0    0 -0.41466773043E+01  0.18589954698E+02 -0.56926617203E+02  0.60028595340E+02  0.10566000000E+00 0. -1.
         23    2    1    0    0    0 -0.88081999810E+01  0.17727128454E+02 -0.21483946758E+02  0.95787067274E+02  0.91223718509E+02 0.  0.
         13    1    3    3    0    0 -0.46615226767E+01 -0.86282624407E+00  0.35442670444E+02  0.35758471934E+02  0.10566000000E+00 0.  1.
         22    1    1    0    0    0  0.88081999810E+01 -0.17727128454E+02  0.21483946758E+02  0.29212932726E+02  0.00000000000E+00 0. -1.
</event>
<event>
 5    1  0.6835419E-004  0.9118800E+02  0.7818608E-02  0.1130116E+00
         25   -1    0    0    0    0  0.00000000000E+00  0.00000000000E+00  0.99999998245E-14  0.12500000000E+03  0.12500000000E+03 0.  0.
        -13    1    3    3    0    0  0.11215538391E+01  0.31849616281E+02 -0.26456435966E+02  0.41419924050E+02  0.10566000000E+00 0.  1.
         23    2    1    0    0    0  0.10299484852E+02 -0.20891738646E+02 -0.17878824410E+02  0.95636817370E+02  0.91017604574E+02 0.  0.
         13    1    3    3    0    0  0.91779310128E+01 -0.52741354927E+02  0.85776115560E+01  0.54216893320E+02  0.10566000000E+00 0. -1.
         22    1    1    0    0    0 -0.10299484852E+02  0.20891738646E+02  0.17878824410E+02  0.29363182630E+02  0.00000000000E+00 0. -1.
</event>
<event>
 5    1  0.6835419E-004  0.9118800E+02  0.7818608E-02  0.1130116E+00
         25   -1    0    0    0    0  0.00000000000E+00  0.00000000000E+00  0.99999998245E-14  0.12500000000E+03  0.12500000000E+03 0.  0.
        -13    1    3    3    0    0  0.36880889072E+02  0.32233437312E+02 -0.18592917651E+01  0.49016962264E+02  0.10566000000E+00 0.  1.
         23    2    1    0    0    0 -0.76026188743E+01  0.24869179417E+02 -0.13660849518E+02  0.95624930499E+02  0.91001278149E+02 0.  0.
         13    1    3    3    0    0 -0.44483507946E+02 -0.73642578948E+01 -0.11801557753E+02  0.46607968235E+02  0.10566000000E+00 0. -1.
         22    1    1    0    0    0  0.76026188743E+01 -0.24869179417E+02  0.13660849518E+02  0.29375069501E+02  0.00000000000E+00 0.  1.
</event>
<event>
 5    1  0.6835419E-004  0.9118800E+02  0.7818608E-02  0.1130116E+00
         25   -1    0    0    0    0  0.00000000000E+00  0.00000000000E+00  0.99999998245E-14  0.12500000000E+03  0.12500000000E+03 0.  0.
        -13    1    3    3    0    0  0.63010527126E+01 -0.16051436810E+02 -0.27606070067E+02  0.32549318849E+02  0.10566000000E+00 0. -1.
         23    2    1    0    0    0 -0.50097619227E+01  0.15904670962E+02  0.24890855486E+02  0.95039843796E+02  0.90194018366E+02 0.  0.
         13    1    3    3    0    0 -0.11310814635E+02  0.31956107772E+02  0.52496925553E+02  0.62490524947E+02  0.10566000000E+00 0.  1.
         22    1    1    0    0    0  0.50097619227E+01 -0.15904670962E+02 -0.24890855486E+02  0.29960156204E+02  0.00000000000E+00 0.  1.
</event>
<event>
 5    1  0.6835419E-004  0.9118800E+02  0.7818608E-02  0.1130116E+00
         25   -1    0    0    0    0  0.00000000000E+00  0.00000000000E+00  0.99999998245E-14  0.12500000000E+03  0.12500000000E+03 0.  0.
        -13    1    3    3    0    0 -0.32364686789E+01 -0.17144667904E+02 -0.59370560485E+02  0.61881249045E+02  0.10566000000E+00 0.  1.
         23    2    1    0    0    0 -0.31978247648E+01 -0.13828510922E+02 -0.26329249465E+02  0.95088745012E+02  0.90261765178E+02 0.  0.
         13    1    3    3    0    0  0.38643914115E-01  0.33161569815E+01  0.33041311020E+02  0.33207495967E+02  0.10566000000E+00 0. -1.
         22    1    1    0    0    0  0.31978247648E+01  0.13828510922E+02  0.26329249465E+02  0.29911254988E+02  0.00000000000E+00 0.  1.
</event>
<event>
 5    1  0.6835419E-004  0.9118800E+02  0.7818608E-02  0.1130116E+00
         25   -1    0    0    0    0  0.00000000000E+00  0.00000000000E+00  0.99999998245E-14  0.12500000000E+03  0.12500000000E+03 0.  0.
        -13    1    3    3    0    0  0.22461159936E+02  0.35976036609E+02  0.12001875761E+02  0.44077603174E+02  0.10566000000E+00 0.  1.
         23    2    1    0    0    0 -0.22733992788E+02  0.18796542204E+02 -0.44876950425E+01  0.95162375535E+02  0.90363675687E+02 0.  0.
         13    1    3    3    0    0 -0.45195152725E+02 -0.17179494405E+02 -0.16489570803E+02  0.51084772360E+02  0.10566000000E+00 0. -1.
         22    1    1    0    0    0  0.22733992788E+02 -0.18796542204E+02  0.44876950425E+01  0.29837624465E+02  0.00000000000E+00 0. -1.
</event>
<event>
 5    1  0.6835419E-004  0.9118800E+02  0.7818608E-02  0.1130116E+00
         25   -1    0    0    0    0  0.00000000000E+00  0.00000000000E+00  0.99999998245E-14  0.12500000000E+03  0.12500000000E+03 0.  0.
        -13    1    3    3    0    0 -0.60991776208E+01  0.44475029510E+01  0.37613944600E+02  0.38364048829E+02  0.10566000000E+00 0.  1.
         23    2    1    0    0    0  0.21967380183E+02 -0.17828088389E+02 -0.72628771171E+01  0.95791167231E+02  0.91229336333E+02 0.  0.
         13    1    3    3    0    0  0.28066557804E+02 -0.22275591340E+02 -0.44876821717E+02  0.57427118402E+02  0.10566000000E+00 0. -1.
         22    1    1    0    0    0 -0.21967380183E+02  0.17828088389E+02  0.72628771171E+01  0.29208832769E+02  0.00000000000E+00 0. -1.
</event>
<event>
 5    1  0.6835419E-004  0.9118800E+02  0.7818608E-02  0.1130116E+00
         25   -1    0    0    0    0  0.00000000000E+00  0.00000000000E+00  0.99999998245E-14  0.12500000000E+03  0.12500000000E+03 0.  0.
        -13    1    3    3    0    0  0.20972837616E+02 -0.38765979135E+02  0.43884801674E+02  0.62197652994E+02  0.10566000000E+00 0.  1.
         23    2    1    0    0    0  0.14125928187E+02 -0.19214661101E+02  0.19497888493E+02  0.94195573304E+02  0.89016253156E+02 0.  0.
         13    1    3    3    0    0 -0.68469094293E+01  0.19551318033E+02 -0.24386913182E+02  0.31997920310E+02  0.10566000000E+00 0. -1.
         22    1    1    0    0    0 -0.14125928187E+02  0.19214661101E+02 -0.19497888493E+02  0.30804426696E+02  0.00000000000E+00 0.  1.
</event>
<event>
 5    1  0.6835419E-004  0.9118800E+02  0.7818608E-02  0.1130116E+00
         25   -1    0    0    0    0  0.00000000000E+00  0.00000000000E+00  0.99999998245E-14  0.12500000000E+03  0.12500000000E+03 0.  0.
        -13    1    3    3    0    0 -0.80569974621E+01  0.35255257171E+02 -0.24355981243E+02  0.43601299896E+02  0.10566000000E+00 0. -1.
         23    2    1    0    0    0  0.17258954653E+02 -0.11215252211E+02 -0.19338569844E+02  0.96757590728E+02  0.92544031044E+02 0.  0.
         13    1    3    3    0    0  0.25315952115E+02 -0.46470509383E+02  0.50174113985E+01  0.53156290832E+02  0.10566000000E+00 0.  1.
         22    1    1    0    0    0 -0.17258954653E+02  0.11215252211E+02  0.19338569844E+02  0.28242409272E+02  0.00000000000E+00 0.  1.
</event>
<event>
 5    1  0.6835419E-004  0.9118800E+02  0.7818608E-02  0.1130116E+00
         25   -1    0    0    0    0  0.00000000000E+00  0.00000000000E+00  0.99999998245E-14  0.12500000000E+03  0.12500000000E+03 0.  0.
        -13    1    3    3    0    0 -0.26413202842E+01  0.14508223699E+02  0.58912392863E+02  0.60730110527E+02  0.10566000000E+00 0.  1.
         23    2    1    0    0    0 -0.86303218766E+01  0.93505112833E+01  0.15083401437E+02  0.10526618344E+03  0.10339993163E+03 0.  0.
         13    1    3    3    0    0 -0.59890015924E+01 -0.51577124154E+01 -0.43828991426E+02  0.44536072917E+02  0.10566000000E+00 0. -1.
         22    1    1    0    0    0  0.86303218766E+01 -0.93505112833E+01 -0.15083401437E+02  0.19733816556E+02  0.00000000000E+00 0.  1.
</event>
<event>
 5    1  0.6835419E-004  0.9118800E+02  0.7818608E-02  0.1130116E+00
         25   -1    0    0    0    0  0.00000000000E+00  0.00000000000E+00  0.99999998245E-14  0.12500000000E+03  0.12500000000E+03 0.  0.
        -13    1    3    3    0    0 -0.26559455581E+02  0.47630696699E+02  0.11910922863E+02  0.55820867033E+02  0.10566000000E+00 0. -1.
         23    2    1    0    0    0  0.62585403489E+01  0.30075084015E+02  0.27012784609E+01  0.94162086466E+02  0.88969217241E+02 0.  0.
         13    1    3    3    0    0  0.32817995930E+02 -0.17555612684E+02 -0.92096444020E+01  0.38341219433E+02  0.10566000000E+00 0.  1.
         22    1    1    0    0    0 -0.62585403489E+01 -0.30075084015E+02 -0.27012784609E+01  0.30837913534E+02  0.00000000000E+00 0. -1.
</event>
<event>
 5    1  0.6835419E-004  0.9118800E+02  0.7818608E-02  0.1130116E+00
         25   -1    0    0    0    0  0.00000000000E+00  0.00000000000E+00  0.99999998245E-14  0.12500000000E+03  0.12500000000E+03 0.  0.
        -13    1    3    3    0    0  0.51902461455E+01 -0.52356731693E+02 -0.21447044856E+02  0.56816836463E+02  0.10566000000E+00 0.  1.
         23    2    1    0    0    0  0.20180835345E+02 -0.17339442764E+02 -0.97393568101E+01  0.96666672245E+02  0.92421145098E+02 0.  0.
         13    1    3    3    0    0  0.14990589199E+02  0.35017288929E+02  0.11707688046E+02  0.39849835782E+02  0.10566000000E+00 0. -1.
         22    1    1    0    0    0 -0.20180835345E+02  0.17339442764E+02  0.97393568101E+01  0.28333327755E+02  0.00000000000E+00 0.  1.
</event>
<event>
 5    1  0.6835419E-004  0.9118800E+02  0.7818608E-02  0.1130116E+00
         25   -1    0    0    0    0  0.00000000000E+00  0.00000000000E+00  0.99999998245E-14  0.12500000000E+03  0.12500000000E+03 0.  0.
        -13    1    3    3    0    0  0.77343330624E+01 -0.13383485398E+02  0.35835335775E+02  0.39027170580E+02  0.10566000000E+00 0. -1.
         23    2    1    0    0    0  0.20019801817E+02 -0.23300568392E+01 -0.19607711113E+02  0.96880896801E+02  0.92710431992E+02 0.  0.
         13    1    3    3    0    0  0.12285468755E+02  0.11053428559E+02 -0.55443046887E+02  0.57853726221E+02  0.10566000000E+00 0.  1.
         22    1    1    0    0    0 -0.20019801817E+02  0.23300568392E+01  0.19607711113E+02  0.28119103199E+02  0.00000000000E+00 0.  1.
</event>
<event>
 5    1  0.6835419E-004  0.9118800E+02  0.7818608E-02  0.1130116E+00
         25   -1    0    0    0    0  0.00000000000E+00  0.00000000000E+00  0.99999998245E-14  0.12500000000E+03  0.12500000000E+03 0.  0.
        -13    1    3    3    0    0 -0.29026201035E+02 -0.45667517099E+02  0.99596246840E+01  0.55020430318E+02  0.10566000000E+00 0. -1.
         23    2    1    0    0    0  0.55293147613E+01 -0.27404862093E+02  0.12889027535E+02  0.94214827939E+02  0.89043287140E+02 0.  0.
         13    1    3    3    0    0  0.34555515796E+02  0.18262655006E+02  0.29294028507E+01  0.39194397621E+02  0.10566000000E+00 0.  1.
         22    1    1    0    0    0 -0.55293147613E+01  0.27404862093E+02 -0.12889027535E+02  0.30785172061E+02  0.00000000000E+00 0. -1.
</event>
<event>
 5    1  0.6835419E-004  0.9118800E+02  0.7818608E-02  0.1130116E+00
         25   -1    0    0    0    0  0.00000000000E+00  0.00000000000E+00  0.99999998245E-14  0.12500000000E+03  0.12500000000E+03 0.  0.
        -13    1    3    3    0    0 -0.67422471013E+01  0.35843042658E+02  0.21661258620E+02  0.42419369302E+02  0.10566000000E+00 0. -1.
         23    2    1    0    0    0 -0.25303868067E+02 -0.12257929853E+02  0.83926002443E+01  0.95657567887E+02  0.91046098059E+02 0.  0.
         13    1    3    3    0    0 -0.18561620966E+02 -0.48100972511E+02 -0.13268658375E+02  0.53238198585E+02  0.10566000000E+00 0.  1.
         22    1    1    0    0    0  0.25303868067E+02  0.12257929853E+02 -0.83926002443E+01  0.29342432113E+02  0.00000000000E+00 0.  1.
</event>
<event>
 5    1  0.6835419E-004  0.9118800E+02  0.7818608E-02  0.1130116E+00
         25   -1    0    0    0    0  0.00000000000E+00  0.00000000000E+00  0.99999998245E-14  0.12500000000E+03  0.12500000000E+03 0.  0.
        -13    1    3    3    0    0 -0.53525540388E+02 -0.20513444387E+02  0.18674870676E+02  0.60287202898E+02  0.10566000000E+00 0.  1.
         23    2    1    0    0    0 -0.22128519552E+02 -0.19755501834E+02  0.36183905989E+01  0.95116158534E+02  0.90299721115E+02 0.  0.
         13    1    3    3    0    0  0.31397020836E+02  0.75794255317E+00 -0.15056480078E+02  0.34828955636E+02  0.10566000000E+00 0. -1.
         22    1    1    0    0    0  0.22128519552E+02  0.19755501834E+02 -0.36183905989E+01  0.29883841466E+02  0.00000000000E+00 0.  1.
</event>
<event>
 5    1  0.6835419E-004  0.9118800E+02  0.7818608E-02  0.1130116E+00
         25   -1    0    0    0    0  0.00000000000E+00  0.00000000000E+00  0.99999998245E-14  0.12500000000E+03  0.12500000000E+03 0.  0.
        -13    1    3    3    0    0 -0.22790371977E+02  0.24811715142E+01  0.32318942344E+02  0.39624266116E+02  0.10566000000E+00 0.  1.
         23    2    1    0    0    0 -0.27282357677E+01  0.23093424427E+02 -0.16638643720E+02  0.96406399544E+02  0.92068452176E+02 0.  0.
         13    1    3    3    0    0  0.20062136209E+02  0.20612252913E+02 -0.48957586064E+02  0.56782133428E+02  0.10566000000E+00 0. -1.
         22    1    1    0    0    0  0.27282357677E+01 -0.23093424427E+02  0.16638643720E+02  0.28593600456E+02  0.00000000000E+00 0. -1.
</event>
<event>
 5    1  0.6835419E-004  0.9118800E+02  0.7818608E-02  0.1130116E+00
         25   -1    0    0    0    0  0.00000000000E+00  0.00000000000E+00  0.99999998245E-14  0.12500000000E+03  0.12500000000E+03 0.  0.
        -13    1    3    3    0    0 -0.30287277094E+02 -0.29063095824E+02 -0.36410341080E+02  0.55567137719E+02  0.10566000000E+00 0.  1.
         23    2    1    0    0    0  0.92525154664E+00 -0.26899512398E+02 -0.10804680799E+02  0.95996879739E+02  0.91510764038E+02 0.  0.
         13    1    3    3    0    0  0.31212528640E+02  0.21635834255E+01  0.25605660281E+02  0.40429742021E+02  0.10566000000E+00 0. -1.
         22    1    1    0    0    0 -0.92525154664E+00  0.26899512398E+02  0.10804680799E+02  0.29003120261E+02  0.00000000000E+00 0.  1.
</event>
<event>
 5    1  0.6835419E-004  0.9118800E+02  0.7818608E-02  0.1130116E+00
         25   -1    0    0    0    0  0.00000000000E+00  0.00000000000E+00  0.99999998245E-14  0.12500000000E+03  0.12500000000E+03 0.  0.
        -13    1    3    3    0    0 -0.11962642955E+02 -0.42436845964E+01  0.27753254362E+02  0.30518321991E+02  0.10566000000E+00 0.  1.
         23    2    1    0    0    0  0.20327212440E+02  0.16515264809E+02 -0.20186087998E+02  0.91932981901E+02  0.85780216106E+02 0.  0.
         13    1    3    3    0    0  0.32289855395E+02  0.20758949406E+02 -0.47939342360E+02  0.61414659910E+02  0.10566000000E+00 0. -1.
         22    1    1    0    0    0 -0.20327212440E+02 -0.16515264809E+02  0.20186087998E+02  0.33067018099E+02  0.00000000000E+00 0. -1.
</event>
<event>
 5    1  0.6835419E-004  0.9118800E+02  0.7818608E-02  0.1130116E+00
         25   -1    0    0    0    0  0.00000000000E+00  0.00000000000E+00  0.99999998245E-14  0.12500000000E+03  0.12500000000E+03 0.  0.
        -13    1    3    3    0    0 -0.56251658205E+02 -0.25930588560E+01 -0.47569999071E+00  0.56313501574E+02  0.10566000000E+00 0. -1.
         23    2    1    0    0    0 -0.25093249807E+02  0.17642275822E+02  0.51705444803E+01  0.93892836640E+02  0.88590118863E+02 0.  0.
         13    1    3    3    0    0  0.31158408397E+02  0.20235334678E+02  0.56462444710E+01  0.37579335066E+02  0.10566000000E+00 0.  1.
         22    1    1    0    0    0  0.25093249807E+02 -0.17642275822E+02 -0.51705444803E+01  0.31107163360E+02  0.00000000000E+00 0. -1.
</event>
<event>
 5    1  0.6835419E-004  0.9118800E+02  0.7818608E-02  0.1130116E+00
         25   -1    0    0    0    0  0.00000000000E+00  0.00000000000E+00  0.99999998245E-14  0.12500000000E+03  0.12500000000E+03 0.  0.
        -13    1    3    3    0    0 -0.39327659735E+02  0.38594231299E+02 -0.13255498223E+02  0.56673617381E+02  0.10566000000E+00 0.  1.
         23    2    1    0    0    0 -0.16964083675E+01  0.25662445553E+02 -0.12337065341E+02  0.96475587748E+02  0.92162340123E+02 0.  0.
         13    1    3    3    0    0  0.37631251368E+02 -0.12931785746E+02  0.91843288240E+00  0.39801970367E+02  0.10566000000E+00 0. -1.
         22    1    1    0    0    0  0.16964083675E+01 -0.25662445553E+02  0.12337065341E+02  0.28524412252E+02  0.00000000000E+00 0.  1.
</event>
<event>
 5    1  0.6835419E-004  0.9118800E+02  0.7818608E-02  0.1130116E+00
         25   -1    0    0    0    0  0.00000000000E+00  0.00000000000E+00  0.99999998245E-14  0.12500000000E+03  0.12500000000E+03 0.  0.
        -13    1    3    3    0    0 -0.35358600046E+02  0.11316510944E+02 -0.81911044323E+01  0.38018408344E+02  0.10566000000E+00 0.  1.
         23    2    1    0    0    0  0.16036520445E+02  0.15878888490E+02  0.18231767279E+02  0.95987822802E+02  0.91498391792E+02 0.  0.
         13    1    3    3    0    0  0.51395120491E+02  0.45623775463E+01  0.26422871711E+02  0.57969414458E+02  0.10566000000E+00 0. -1.
         22    1    1    0    0    0 -0.16036520445E+02 -0.15878888490E+02 -0.18231767279E+02  0.29012177198E+02  0.00000000000E+00 0. -1.
</event>
<event>
 5    1  0.6835419E-004  0.9118800E+02  0.7818608E-02  0.1130116E+00
         25   -1    0    0    0    0  0.00000000000E+00  0.00000000000E+00  0.99999998245E-14  0.12500000000E+03  0.12500000000E+03 0.  0.
        -13    1    3    3    0    0  0.20980395256E+02  0.35421347140E+02 -0.24265687764E+02  0.47787902078E+02  0.10566000000E+00 0.  1.
         23    2    1    0    0    0 -0.16850077545E+02  0.20624031199E+02  0.50631314760E+01  0.97890756622E+02  0.94062155809E+02 0.  0.
         13    1    3    3    0    0 -0.37830472801E+02 -0.14797315941E+02  0.29328819240E+02  0.50102854544E+02  0.10566000000E+00 0. -1.
         22    1    1    0    0    0  0.16850077545E+02 -0.20624031199E+02 -0.50631314760E+01  0.27109243378E+02  0.00000000000E+00 0.  1.
</event>
<event>
 5    1  0.6835419E-004  0.9118800E+02  0.7818608E-02  0.1130116E+00
         25   -1    0    0    0    0  0.00000000000E+00  0.00000000000E+00  0.99999998245E-14  0.12500000000E+03  0.12500000000E+03 0.  0.
        -13    1    3    3    0    0 -0.69165773247E+01 -0.60365721082E+01  0.42296447011E+02  0.43281402917E+02  0.10566000000E+00 0. -1.
         23    2    1    0    0    0 -0.94725957841E+01  0.16371615922E+01 -0.18253844580E+02  0.10436960468E+03  0.10231031801E+03 0.  0.
         13    1    3    3    0    0 -0.25560184593E+01  0.76737337004E+01 -0.60550291591E+02  0.61088201766E+02  0.10566000000E+00 0.  1.
         22    1    1    0    0    0  0.94725957841E+01 -0.16371615922E+01  0.18253844580E+02  0.20630395316E+02  0.00000000000E+00 0.  1.
</event>
<event>
 5    1  0.6835419E-004  0.9118800E+02  0.7818608E-02  0.1130116E+00
         25   -1    0    0    0    0  0.00000000000E+00  0.00000000000E+00  0.99999998245E-14  0.12500000000E+03  0.12500000000E+03 0.  0.
        -13    1    3    3    0    0 -0.10693251260E+02  0.11664010932E+02  0.55085321894E+02  0.57313162761E+02  0.10566000000E+00 0.  1.
         23    2    1    0    0    0 -0.14085596409E+02 -0.95679021590E+01  0.17710384650E+02  0.10043159544E+03  0.97380176941E+02 0.  0.
         13    1    3    3    0    0 -0.33923451493E+01 -0.21231913091E+02 -0.37374937243E+02  0.43118432683E+02  0.10566000000E+00 0. -1.
         22    1    1    0    0    0  0.14085596409E+02  0.95679021590E+01 -0.17710384650E+02  0.24568404555E+02  0.00000000000E+00 0.  1.
</event>
<event>
 5    1  0.6835419E-004  0.9118800E+02  0.7818608E-02  0.1130116E+00
         25   -1    0    0    0    0  0.00000000000E+00  0.00000000000E+00  0.99999998245E-14  0.12500000000E+03  0.12500000000E+03 0.  0.
        -13    1    3    3    0    0  0.62116529357E+01  0.10808271483E+01  0.46864351852E+02  0.47286694303E+02  0.10566000000E+00 0. -1.
         23    2    1    0    0    0  0.19063898832E+02 -0.20701924527E+02  0.46815257031E+01  0.96470741322E+02  0.92155766669E+02 0.  0.
         13    1    3    3    0    0  0.12852245897E+02 -0.21782751676E+02 -0.42182826149E+02  0.49184047019E+02  0.10566000000E+00 0.  1.
         22    1    1    0    0    0 -0.19063898832E+02  0.20701924527E+02 -0.46815257031E+01  0.28529258678E+02  0.00000000000E+00 0. -1.
</event>
<event>
 5    1  0.6835419E-004  0.9118800E+02  0.7818608E-02  0.1130116E+00
         25   -1    0    0    0    0  0.00000000000E+00  0.00000000000E+00  0.99999998245E-14  0.12500000000E+03  0.12500000000E+03 0.  0.
        -13    1    3    3    0    0 -0.26483544677E+02  0.34500592520E+02 -0.79815059560E+01  0.44219731164E+02  0.10566000000E+00 0.  1.
         23    2    1    0    0    0 -0.11646216799E+02  0.37357149388E+02  0.23652042691E+02  0.79276810046E+02  0.64762662944E+02 0.  0.
         13    1    3    3    0    0  0.14837327878E+02  0.28565568678E+01  0.31633548647E+02  0.35057078882E+02  0.10566000000E+00 0. -1.
         22    1    1    0    0    0  0.11646216799E+02 -0.37357149388E+02 -0.23652042691E+02  0.45723189954E+02  0.00000000000E+00 0.  1.
</event>
<event>
 5    1  0.6835419E-004  0.9118800E+02  0.7818608E-02  0.1130116E+00
         25   -1    0    0    0    0  0.00000000000E+00  0.00000000000E+00  0.99999998245E-14  0.12500000000E+03  0.12500000000E+03 0.  0.
        -13    1    3    3    0    0  0.42717669333E+01  0.23664173694E+02 -0.32048946461E+02  0.40067283943E+02  0.10566000000E+00 0.  1.
         23    2    1    0    0    0 -0.46858401146E+01 -0.26613874436E+02 -0.63407650510E+01  0.97242825945E+02  0.93197137758E+02 0.  0.
         13    1    3    3    0    0 -0.89576070479E+01 -0.50278048130E+02  0.25708181410E+02  0.57175542002E+02  0.10566000000E+00 0. -1.
         22    1    1    0    0    0  0.46858401146E+01  0.26613874436E+02  0.63407650510E+01  0.27757174055E+02  0.00000000000E+00 0. -1.
</event>
<event>
 5    1  0.6835419E-004  0.9118800E+02  0.7818608E-02  0.1130116E+00
         25   -1    0    0    0    0  0.00000000000E+00  0.00000000000E+00  0.99999998245E-14  0.12500000000E+03  0.12500000000E+03 0.  0.
        -13    1    3    3    0    0 -0.25054615846E+02 -0.92529975461E+01  0.20201299882E+02  0.33488138493E+02  0.10566000000E+00 0. -1.
         23    2    1    0    0    0  0.25777539083E+02  0.48664243408E+01 -0.12897292798E+02  0.95768103575E+02  0.91197729653E+02 0.  0.
         13    1    3    3    0    0  0.50832154929E+02  0.14119421887E+02 -0.33098592681E+02  0.62279965082E+02  0.10566000000E+00 0.  1.
         22    1    1    0    0    0 -0.25777539083E+02 -0.48664243408E+01  0.12897292798E+02  0.29231896425E+02  0.00000000000E+00 0.  1.
</event>
<event>
 5    1  0.6835419E-004  0.9118800E+02  0.7818608E-02  0.1130116E+00
         25   -1    0    0    0    0  0.00000000000E+00  0.00000000000E+00  0.99999998245E-14  0.12500000000E+03  0.12500000000E+03 0.  0.
        -13    1    3    3    0    0 -0.11686907540E+02 -0.14806310128E+02  0.35457488124E+02  0.40162859155E+02  0.10566000000E+00 0.  1.
         23    2    1    0    0    0  0.20444069549E+02 -0.18919226792E+02 -0.94952793755E+01  0.95571145919E+02  0.90927369255E+02 0.  0.
         13    1    3    3    0    0  0.32130977089E+02 -0.41129166640E+01 -0.44952767499E+02  0.55408286763E+02  0.10566000000E+00 0. -1.
         22    1    1    0    0    0 -0.20444069549E+02  0.18919226792E+02  0.94952793755E+01  0.29428854081E+02  0.00000000000E+00 0. -1.
</event>
<event>
 5    1  0.6835419E-004  0.9118800E+02  0.7818608E-02  0.1130116E+00
         25   -1    0    0    0    0  0.00000000000E+00  0.00000000000E+00  0.99999998245E-14  0.12500000000E+03  0.12500000000E+03 0.  0.
        -13    1    3    3    0    0 -0.61392381195E+00  0.11947205302E+02  0.23864451776E+02  0.26695240017E+02  0.10566000000E+00 0. -1.
         23    2    1    0    0    0 -0.34590878071E+02 -0.26337733482E+02  0.16899179656E+02  0.78354664502E+02  0.62957653431E+02 0.  0.
         13    1    3    3    0    0 -0.33976954259E+02 -0.38284938783E+02 -0.69652721204E+01  0.51659424485E+02  0.10566000000E+00 0.  1.
         22    1    1    0    0    0  0.34590878071E+02  0.26337733482E+02 -0.16899179656E+02  0.46645335498E+02  0.00000000000E+00 0.  1.
</event>
<event>
 5    1  0.6835419E-004  0.9118800E+02  0.7818608E-02  0.1130116E+00
         25   -1    0    0    0    0  0.00000000000E+00  0.00000000000E+00  0.99999998245E-14  0.12500000000E+03  0.12500000000E+03 0.  0.
        -13    1    3    3    0    0  0.49759739610E+02 -0.13543991900E+02  0.33643561232E+02  0.61574116145E+02  0.10566000000E+00 0. -1.
         23    2    1    0    0    0  0.17868581445E+02 -0.10490860691E+02  0.19328101372E+02  0.96664159381E+02  0.92417746377E+02 0.  0.
         13    1    3    3    0    0 -0.31891158165E+02  0.30531312090E+01 -0.14315459860E+02  0.35090043236E+02  0.10566000000E+00 0.  1.
         22    1    1    0    0    0 -0.17868581445E+02  0.10490860691E+02 -0.19328101372E+02  0.28335840619E+02  0.00000000000E+00 0. -1.
</event>
<event>
 5    1  0.6835419E-004  0.9118800E+02  0.7818608E-02  0.1130116E+00
         25   -1    0    0    0    0  0.00000000000E+00  0.00000000000E+00  0.99999998245E-14  0.12500000000E+03  0.12500000000E+03 0.  0.
        -13    1    3    3    0    0 -0.25743303369E+02  0.68062974130E+01  0.41316509077E+02  0.49153925979E+02  0.10566000000E+00 0.  1.
         23    2    1    0    0    0 -0.24164186411E+02 -0.14240976330E+02 -0.15224772421E+01  0.96910299954E+02  0.92750067323E+02 0.  0.
         13    1    3    3    0    0  0.15791169583E+01 -0.21047273743E+02 -0.42838986319E+02  0.47756373975E+02  0.10566000000E+00 0. -1.
         22    1    1    0    0    0  0.24164186411E+02  0.14240976330E+02  0.15224772421E+01  0.28089700046E+02  0.00000000000E+00 0.  1.
</event>
<event>
 5    1  0.6835419E-004  0.9118800E+02  0.7818608E-02  0.1130116E+00
         25   -1    0    0    0    0  0.00000000000E+00  0.00000000000E+00  0.99999998245E-14  0.12500000000E+03  0.12500000000E+03 0.  0.
        -13    1    3    3    0    0  0.39908134473E+02 -0.16164670073E+02 -0.43398715296E+02  0.61134404463E+02  0.10566000000E+00 0. -1.
         23    2    1    0    0    0  0.11663471275E+02 -0.88111616420E+01 -0.26163961779E+02  0.95029580790E+02  0.90179793732E+02 0.  0.
         13    1    3    3    0    0 -0.28244663198E+02  0.73535084306E+01  0.17234753517E+02  0.33895176327E+02  0.10566000000E+00 0.  1.
         22    1    1    0    0    0 -0.11663471275E+02  0.88111616420E+01  0.26163961779E+02  0.29970419210E+02  0.00000000000E+00 0. -1.
</event>
<event>
 5    1  0.6835419E-004  0.9118800E+02  0.7818608E-02  0.1130116E+00
         25   -1    0    0    0    0  0.00000000000E+00  0.00000000000E+00  0.99999998245E-14  0.12500000000E+03  0.12500000000E+03 0.  0.
        -13    1    3    3    0    0  0.20145489769E+02 -0.25883612510E+02 -0.85490699454E+01  0.33895426175E+02  0.10566000000E+00 0. -1.
         23    2    1    0    0    0 -0.27912616731E+02  0.76384498001E+01  0.83541799771E+01  0.94879369011E+02  0.89971341285E+02 0.  0.
         13    1    3    3    0    0 -0.48058106499E+02  0.33522062310E+02  0.16903249922E+02  0.60983942836E+02  0.10566000000E+00 0.  1.
         22    1    1    0    0    0  0.27912616731E+02 -0.76384498001E+01 -0.83541799771E+01  0.30120630989E+02  0.00000000000E+00 0.  1.
</event>
<event>
 5    1  0.6835419E-004  0.9118800E+02  0.7818608E-02  0.1130116E+00
         25   -1    0    0    0    0  0.00000000000E+00  0.00000000000E+00  0.99999998245E-14  0.12500000000E+03  0.12500000000E+03 0.  0.
        -13    1    3    3    0    0 -0.15081110150E+02  0.60787845016E+01 -0.30027566391E+02  0.34147582810E+02  0.10566000000E+00 0.  1.
         23    2    1    0    0    0  0.12372153063E+02 -0.21612639864E+02  0.16705815901E+02  0.95012324895E+02  0.90155871820E+02 0.  0.
         13    1    3    3    0    0  0.27453263214E+02 -0.27691424365E+02  0.46733382293E+02  0.60864742084E+02  0.10566000000E+00 0. -1.
         22    1    1    0    0    0 -0.12372153063E+02  0.21612639864E+02 -0.16705815901E+02  0.29987675105E+02  0.00000000000E+00 0. -1.
</event>
<event>
 5    1  0.6835419E-004  0.9118800E+02  0.7818608E-02  0.1130116E+00
         25   -1    0    0    0    0  0.00000000000E+00  0.00000000000E+00  0.99999998245E-14  0.12500000000E+03  0.12500000000E+03 0.  0.
        -13    1    3    3    0    0  0.27753957139E+02 -0.28621238256E+02  0.21324609061E+02  0.45212913330E+02  0.10566000000E+00 0.  1.
         23    2    1    0    0    0 -0.29440593714E+01 -0.20128141213E+02  0.38541359530E+02  0.81419660985E+02  0.68774379286E+02 0.  0.
         13    1    3    3    0    0 -0.30698016510E+02  0.84930970425E+01  0.17216750469E+02  0.36206747655E+02  0.10566000000E+00 0. -1.
         22    1    1    0    0    0  0.29440593714E+01  0.20128141213E+02 -0.38541359530E+02  0.43580339015E+02  0.00000000000E+00 0.  1.
</event>
<event>
 5    1  0.6835419E-004  0.9118800E+02  0.7818608E-02  0.1130116E+00
         25   -1    0    0    0    0  0.00000000000E+00  0.00000000000E+00  0.99999998245E-14  0.12500000000E+03  0.12500000000E+03 0.  0.
        -13    1    3    3    0    0 -0.42682498744E+01 -0.16562078351E+02 -0.52471088867E+02  0.55188284330E+02  0.10566000000E+00 0. -1.
         23    2    1    0    0    0  0.90899673273E+01 -0.23129445218E+02 -0.13915338000E+02  0.96517806023E+02  0.92219583092E+02 0.  0.
         13    1    3    3    0    0  0.13358217202E+02 -0.65673668674E+01  0.38555750868E+02  0.41329521693E+02  0.10566000000E+00 0.  1.
         22    1    1    0    0    0 -0.90899673273E+01  0.23129445218E+02  0.13915338000E+02  0.28482193977E+02  0.00000000000E+00 0. -1.
</event>
<event>
 5    1  0.6835419E-004  0.9118800E+02  0.7818608E-02  0.1130116E+00
         25   -1    0    0    0    0  0.00000000000E+00  0.00000000000E+00  0.99999998245E-14  0.12500000000E+03  0.12500000000E+03 0.  0.
        -13    1    3    3    0    0  0.31848501033E+02  0.18022044960E+02  0.39925464185E+02  0.54158794088E+02  0.10566000000E+00 0. -1.
         23    2    1    0    0    0 -0.32113992043E+01  0.22882581006E+02  0.14950628670E+02  0.97478246858E+02  0.93512361293E+02 0.  0.
         13    1    3    3    0    0 -0.35059900237E+02  0.48605360461E+01 -0.24974835515E+02  0.43319452771E+02  0.10566000000E+00 0.  1.
         22    1    1    0    0    0  0.32113992043E+01 -0.22882581006E+02 -0.14950628670E+02  0.27521753142E+02  0.00000000000E+00 0. -1.
</event>
<event>
 5    1  0.6835419E-004  0.9118800E+02  0.7818608E-02  0.1130116E+00
         25   -1    0    0    0    0  0.00000000000E+00  0.00000000000E+00  0.99999998245E-14  0.12500000000E+03  0.12500000000E+03 0.  0.
        -13    1    3    3    0    0 -0.46072125773E+02 -0.19320544468E+01 -0.94409298399E+01  0.47069267339E+02  0.10566000000E+00 0. -1.
         23    2    1    0    0    0 -0.17431321600E+01 -0.93457743037E-01 -0.29278520853E+02  0.95669486411E+02  0.91062459898E+02 0.  0.
         13    1    3    3    0    0  0.44328993613E+02  0.18385967038E+01 -0.19837591013E+02  0.48600219071E+02  0.10566000000E+00 0.  1.
         22    1    1    0    0    0  0.17431321600E+01  0.93457743037E-01  0.29278520853E+02  0.29330513589E+02  0.00000000000E+00 0. -1.
</event>
<event>
 5    1  0.6835419E-004  0.9118800E+02  0.7818608E-02  0.1130116E+00
         25   -1    0    0    0    0  0.00000000000E+00  0.00000000000E+00  0.99999998245E-14  0.12500000000E+03  0.12500000000E+03 0.  0.
        -13    1    3    3    0    0  0.10209838190E+02 -0.17063971593E+02  0.31538254133E+02  0.37283945073E+02  0.10566000000E+00 0.  1.
         23    2    1    0    0    0 -0.23156867217E+02  0.38995620234E+01 -0.14122586823E+02  0.97597544967E+02  0.93671693919E+02 0.  0.
         13    1    3    3    0    0 -0.33366705406E+02  0.20963533617E+02 -0.45660840956E+02  0.60313599894E+02  0.10566000000E+00 0. -1.
         22    1    1    0    0    0  0.23156867217E+02 -0.38995620234E+01  0.14122586823E+02  0.27402455033E+02  0.00000000000E+00 0. -1.
</event>
<event>
 5    1  0.6835419E-004  0.9118800E+02  0.7818608E-02  0.1130116E+00
         25   -1    0    0    0    0  0.00000000000E+00  0.00000000000E+00  0.99999998245E-14  0.12500000000E+03  0.12500000000E+03 0.  0.
        -13    1    3    3    0    0  0.10634169237E+02  0.18397321862E+02 -0.29133271756E+02  0.36059751723E+02  0.10566000000E+00 0.  1.
         23    2    1    0    0    0  0.16884952259E+02 -0.17990931836E+02  0.16917374937E+02  0.95083903733E+02  0.90255060430E+02 0.  0.
         13    1    3    3    0    0  0.62507830224E+01 -0.36388253698E+02  0.46050646693E+02  0.59024152010E+02  0.10566000000E+00 0. -1.
         22    1    1    0    0    0 -0.16884952259E+02  0.17990931836E+02 -0.16917374937E+02  0.29916096267E+02  0.00000000000E+00 0. -1.
</event>
<event>
 5    1  0.6835419E-004  0.9118800E+02  0.7818608E-02  0.1130116E+00
         25   -1    0    0    0    0  0.00000000000E+00  0.00000000000E+00  0.99999998245E-14  0.12500000000E+03  0.12500000000E+03 0.  0.
        -13    1    3    3    0    0 -0.93977581868E+01 -0.59603339160E+02 -0.64725984777E+01  0.60685925823E+02  0.10566000000E+00 0. -1.
         23    2    1    0    0    0  0.46935475004E+01 -0.28102232886E+02 -0.85371079450E+01  0.95256982443E+02  0.90494450718E+02 0.  0.
         13    1    3    3    0    0  0.14091305687E+02  0.31501106274E+02 -0.20645094673E+01  0.34571056620E+02  0.10566000000E+00 0.  1.
         22    1    1    0    0    0 -0.46935475004E+01  0.28102232886E+02  0.85371079450E+01  0.29743017557E+02  0.00000000000E+00 0. -1.
</event>
<event>
 5    1  0.6835419E-004  0.9118800E+02  0.7818608E-02  0.1130116E+00
         25   -1    0    0    0    0  0.00000000000E+00  0.00000000000E+00  0.99999998245E-14  0.12500000000E+03  0.12500000000E+03 0.  0.
        -13    1    3    3    0    0  0.20791424056E+02 -0.35732033443E+02 -0.23128503309E+01  0.41405578959E+02  0.10566000000E+00 0.  1.
         23    2    1    0    0    0 -0.26353463161E+02 -0.19667563299E+02 -0.68230800500E+01  0.91416187112E+02  0.85023801245E+02 0.  0.
         13    1    3    3    0    0 -0.47144887217E+02  0.16064470144E+02 -0.45102297192E+01  0.50010608153E+02  0.10566000000E+00 0. -1.
         22    1    1    0    0    0  0.26353463161E+02  0.19667563299E+02  0.68230800500E+01  0.33583812888E+02  0.00000000000E+00 0.  1.
</event>
<event>
 5    1  0.6835419E-004  0.9118800E+02  0.7818608E-02  0.1130116E+00
         25   -1    0    0    0    0  0.00000000000E+00  0.00000000000E+00  0.99999998245E-14  0.12500000000E+03  0.12500000000E+03 0.  0.
        -13    1    3    3    0    0  0.93522410780E+01  0.34022613056E+02  0.47257527569E+02  0.58977009829E+02  0.10566000000E+00 0. -1.
         23    2    1    0    0    0  0.18803699424E+02  0.14613406584E+02  0.19015869954E+02  0.94524861376E+02  0.89477457184E+02 0.  0.
         13    1    3    3    0    0  0.94514583464E+01 -0.19409206473E+02 -0.28241657615E+02  0.35547851547E+02  0.10566000000E+00 0.  1.
         22    1    1    0    0    0 -0.18803699424E+02 -0.14613406584E+02 -0.19015869954E+02  0.30475138624E+02  0.00000000000E+00 0. -1.
</event>
<event>
 5    1  0.6835419E-004  0.9118800E+02  0.7818608E-02  0.1130116E+00
         25   -1    0    0    0    0  0.00000000000E+00  0.00000000000E+00  0.99999998245E-14  0.12500000000E+03  0.12500000000E+03 0.  0.
        -13    1    3    3    0    0  0.44328309362E+02  0.17905706585E+02 -0.28568858340E+02  0.55693843197E+02  0.10566000000E+00 0. -1.
         23    2    1    0    0    0  0.28428586459E+02  0.18538776333E+01  0.49177308118E+01  0.96089699644E+02  0.91637464560E+02 0.  0.
         13    1    3    3    0    0 -0.15899722903E+02 -0.16051828952E+02  0.33486589151E+02  0.40395856447E+02  0.10566000000E+00 0.  1.
         22    1    1    0    0    0 -0.28428586459E+02 -0.18538776333E+01 -0.49177308118E+01  0.28910300356E+02  0.00000000000E+00 0. -1.
</event>
<event>
 5    1  0.6835419E-004  0.9118800E+02  0.7818608E-02  0.1130116E+00
         25   -1    0    0    0    0  0.00000000000E+00  0.00000000000E+00  0.99999998245E-14  0.12500000000E+03  0.12500000000E+03 0.  0.
        -13    1    3    3    0    0  0.77686472655E+01 -0.13769835898E+02 -0.30525926415E+02  0.34377370588E+02  0.10566000000E+00 0. -1.
         23    2    1    0    0    0  0.53366085956E+01  0.17386335906E+02  0.22586342955E+02  0.96001604257E+02  0.91517217311E+02 0.  0.
         13    1    3    3    0    0 -0.24320386699E+01  0.31156171805E+02  0.53112269371E+02  0.61624233669E+02  0.10566000000E+00 0.  1.
         22    1    1    0    0    0 -0.53366085956E+01 -0.17386335906E+02 -0.22586342955E+02  0.28998395743E+02  0.00000000000E+00 0.  1.
</event>
<event>
 5    1  0.6835419E-004  0.9118800E+02  0.7818608E-02  0.1130116E+00
         25   -1    0    0    0    0  0.00000000000E+00  0.00000000000E+00  0.99999998245E-14  0.12500000000E+03  0.12500000000E+03 0.  0.
        -13    1    3    3    0    0  0.37662830461E+02 -0.20814783769E+02  0.12120082132E+02  0.44706281176E+02  0.10566000000E+00 0.  1.
         23    2    1    0    0    0 -0.86306438349E+01 -0.59637015374E+01  0.27393573067E+02  0.95666374339E+02  0.91058187906E+02 0.  0.
         13    1    3    3    0    0 -0.46293474296E+02  0.14851082232E+02  0.15273490935E+02  0.50960093163E+02  0.10566000000E+00 0. -1.
         22    1    1    0    0    0  0.86306438349E+01  0.59637015374E+01 -0.27393573067E+02  0.29333625661E+02  0.00000000000E+00 0. -1.
</event>
<event>
 5    1  0.6835419E-004  0.9118800E+02  0.7818608E-02  0.1130116E+00
         25   -1    0    0    0    0  0.00000000000E+00  0.00000000000E+00  0.99999998245E-14  0.12500000000E+03  0.12500000000E+03 0.  0.
        -13    1    3    3    0    0 -0.29257928606E+02 -0.25446037586E+02 -0.27769365436E+02  0.47693563883E+02  0.10566000000E+00 0.  1.
         23    2    1    0    0    0  0.31412521514E+00 -0.27224194457E+02  0.10263851312E+02  0.95903572690E+02  0.91383221504E+02 0.  0.
         13    1    3    3    0    0  0.29572053821E+02 -0.17781568711E+01  0.38033216747E+02  0.48210008807E+02  0.10566000000E+00 0. -1.
         22    1    1    0    0    0 -0.31412521514E+00  0.27224194457E+02 -0.10263851312E+02  0.29096427310E+02  0.00000000000E+00 0. -1.
</event>
<event>
 5    1  0.6835419E-004  0.9118800E+02  0.7818608E-02  0.1130116E+00
         25   -1    0    0    0    0  0.00000000000E+00  0.00000000000E+00  0.99999998245E-14  0.12500000000E+03  0.12500000000E+03 0.  0.
        -13    1    3    3    0    0  0.31715735647E+02  0.15251707714E+02  0.44635374832E+01  0.35474452874E+02  0.10566000000E+00 0. -1.
         23    2    1    0    0    0 -0.17463372140E+02 -0.14433225197E+02  0.19779291740E+02  0.94924964874E+02  0.90034666760E+02 0.  0.
         13    1    3    3    0    0 -0.49179107787E+02 -0.29684932911E+02  0.15315754256E+02  0.59450512000E+02  0.10566000000E+00 0.  1.
         22    1    1    0    0    0  0.17463372140E+02  0.14433225197E+02 -0.19779291740E+02  0.30075035126E+02  0.00000000000E+00 0.  1.
</event>
<event>
 5    1  0.6835419E-004  0.9118800E+02  0.7818608E-02  0.1130116E+00
         25   -1    0    0    0    0  0.00000000000E+00  0.00000000000E+00  0.99999998245E-14  0.12500000000E+03  0.12500000000E+03 0.  0.
        -13    1    3    3    0    0 -0.33245336940E+02  0.33078759885E+02 -0.39160328725E+02  0.61098275702E+02  0.10566000000E+00 0.  1.
         23    2    1    0    0    0 -0.13993039532E+02  0.22720113726E+02 -0.12622811461E+02  0.95481461888E+02  0.90803994802E+02 0.  0.
         13    1    3    3    0    0  0.19252297409E+02 -0.10358646159E+02  0.26537517264E+02  0.34383186186E+02  0.10566000000E+00 0. -1.
         22    1    1    0    0    0  0.13993039532E+02 -0.22720113726E+02  0.12622811461E+02  0.29518538112E+02  0.00000000000E+00 0.  1.
</event>
<event>
 5    1  0.6835419E-004  0.9118800E+02  0.7818608E-02  0.1130116E+00
         25   -1    0    0    0    0  0.00000000000E+00  0.00000000000E+00  0.99999998245E-14  0.12500000000E+03  0.12500000000E+03 0.  0.
        -13    1    3    3    0    0 -0.25902674271E+02  0.17412642600E+02  0.18047871039E+02  0.36053924471E+02  0.10566000000E+00 0.  1.
         23    2    1    0    0    0 -0.46509108547E+00  0.35069659955E+02 -0.19617316608E+02  0.84813727841E+02  0.74688901186E+02 0.  0.
         13    1    3    3    0    0  0.25437583185E+02  0.17657017355E+02 -0.37665187647E+02  0.48759803370E+02  0.10566000000E+00 0. -1.
         22    1    1    0    0    0  0.46509108547E+00 -0.35069659955E+02  0.19617316608E+02  0.40186272159E+02  0.00000000000E+00 0. -1.
</event>
<event>
 5    1  0.6835419E-004  0.9118800E+02  0.7818608E-02  0.1130116E+00
         25   -1    0    0    0    0  0.00000000000E+00  0.00000000000E+00  0.99999998245E-14  0.12500000000E+03  0.12500000000E+03 0.  0.
        -13    1    3    3    0    0 -0.18422720906E+02 -0.29879126642E+02 -0.30406700314E+02  0.46440687360E+02  0.10566000000E+00 0.  1.
         23    2    1    0    0    0 -0.21299838073E+02 -0.11159800625E+02  0.15697563756E+02  0.96283493252E+02  0.91901432596E+02 0.  0.
         13    1    3    3    0    0 -0.28771171668E+01  0.18719326017E+02  0.46104264070E+02  0.49842805892E+02  0.10566000000E+00 0. -1.
         22    1    1    0    0    0  0.21299838073E+02  0.11159800625E+02 -0.15697563756E+02  0.28716506748E+02  0.00000000000E+00 0.  1.
</event>
<event>
 5    1  0.6835419E-004  0.9118800E+02  0.7818608E-02  0.1130116E+00
         25   -1    0    0    0    0  0.00000000000E+00  0.00000000000E+00  0.99999998245E-14  0.12500000000E+03  0.12500000000E+03 0.  0.
        -13    1    3    3    0    0 -0.13507663381E+02 -0.27322445983E+02 -0.15009343170E+02  0.33974469399E+02  0.10566000000E+00 0. -1.
         23    2    1    0    0    0  0.57620330857E+00  0.23131926276E+02  0.17819438728E+02  0.95794685072E+02  0.91234156257E+02 0.  0.
         13    1    3    3    0    0  0.14083866689E+02  0.50454372259E+02  0.32828781898E+02  0.61820215673E+02  0.10566000000E+00 0.  1.
         22    1    1    0    0    0 -0.57620330857E+00 -0.23131926276E+02 -0.17819438728E+02  0.29205314928E+02  0.00000000000E+00 0.  1.
</event>
<event>
 5    1  0.6835419E-004  0.9118800E+02  0.7818608E-02  0.1130116E+00
         25   -1    0    0    0    0  0.00000000000E+00  0.00000000000E+00  0.99999998245E-14  0.12500000000E+03  0.12500000000E+03 0.  0.
        -13    1    3    3    0    0  0.19738853154E+02  0.30895111372E+02  0.61050207703E+01  0.37167360320E+02  0.10566000000E+00 0.  1.
         23    2    1    0    0    0 -0.13416425662E+02 -0.25455951946E+01 -0.27008627779E+02  0.94735391842E+02  0.89771086439E+02 0.  0.
         13    1    3    3    0    0 -0.33155278816E+02 -0.33440706567E+02 -0.33113648549E+02  0.57568031522E+02  0.10566000000E+00 0. -1.
         22    1    1    0    0    0  0.13416425662E+02  0.25455951946E+01  0.27008627779E+02  0.30264608158E+02  0.00000000000E+00 0. -1.
</event>
<event>
 5    1  0.6835419E-004  0.9118800E+02  0.7818608E-02  0.1130116E+00
         25   -1    0    0    0    0  0.00000000000E+00  0.00000000000E+00  0.99999998245E-14  0.12500000000E+03  0.12500000000E+03 0.  0.
        -13    1    3    3    0    0 -0.30540750912E+02 -0.22817645533E+02  0.18105311238E+02  0.42204216294E+02  0.10566000000E+00 0. -1.
         23    2    1    0    0    0  0.21496236006E+02 -0.93767132587E+00  0.15060573500E+02  0.98736179560E+02  0.95179014967E+02 0.  0.
         13    1    3    3    0    0  0.52036986918E+02  0.21879974207E+02 -0.30447377380E+01  0.56531963266E+02  0.10566000000E+00 0.  1.
         22    1    1    0    0    0 -0.21496236006E+02  0.93767132587E+00 -0.15060573500E+02  0.26263820440E+02  0.00000000000E+00 0.  1.
</event>
<event>
 5    1  0.6835419E-004  0.9118800E+02  0.7818608E-02  0.1130116E+00
         25   -1    0    0    0    0  0.00000000000E+00  0.00000000000E+00  0.99999998245E-14  0.12500000000E+03  0.12500000000E+03 0.  0.
        -13    1    3    3    0    0 -0.12113760480E+02  0.36348011842E+02  0.17335101358E+02  0.42052800870E+02  0.10566000000E+00 0.  1.
         23    2    1    0    0    0 -0.19295623206E+02  0.14086290971E+01 -0.22367943962E+02  0.95425852034E+02  0.90727410458E+02 0.  0.
         13    1    3    3    0    0 -0.71818627263E+01 -0.34939382745E+02 -0.39703045320E+02  0.53373051164E+02  0.10566000000E+00 0. -1.
         22    1    1    0    0    0  0.19295623206E+02 -0.14086290971E+01  0.22367943962E+02  0.29574147966E+02  0.00000000000E+00 0. -1.
</event>
<event>
 5    1  0.6835419E-004  0.9118800E+02  0.7818608E-02  0.1130116E+00
         25   -1    0    0    0    0  0.00000000000E+00  0.00000000000E+00  0.99999998245E-14  0.12500000000E+03  0.12500000000E+03 0.  0.
        -13    1    3    3    0    0 -0.22048090163E+01  0.26245000446E+02  0.33977930720E+02  0.42990373007E+02  0.10566000000E+00 0.  1.
         23    2    1    0    0    0  0.64840346854E+00 -0.23594240606E+02  0.17697485307E+02  0.95498989796E+02  0.90828120365E+02 0.  0.
         13    1    3    3    0    0  0.28532124848E+01 -0.49839241053E+02 -0.16280445413E+02  0.52508616789E+02  0.10566000000E+00 0. -1.
         22    1    1    0    0    0 -0.64840346854E+00  0.23594240606E+02 -0.17697485307E+02  0.29501010204E+02  0.00000000000E+00 0. -1.
</event>
<event>
 5    1  0.6835419E-004  0.9118800E+02  0.7818608E-02  0.1130116E+00
         25   -1    0    0    0    0  0.00000000000E+00  0.00000000000E+00  0.99999998245E-14  0.12500000000E+03  0.12500000000E+03 0.  0.
        -13    1    3    3    0    0 -0.29800150564E+02  0.17066161948E+02 -0.35355066189E+01  0.34522656739E+02  0.10566000000E+00 0. -1.
         23    2    1    0    0    0  0.17763740871E+02 -0.22350908124E+02  0.69384801359E+00  0.96441375930E+02  0.92115926866E+02 0.  0.
         13    1    3    3    0    0  0.47563891435E+02 -0.39417070072E+02  0.42293546325E+01  0.61918719190E+02  0.10566000000E+00 0.  1.
         22    1    1    0    0    0 -0.17763740871E+02  0.22350908124E+02 -0.69384801359E+00  0.28558624070E+02  0.00000000000E+00 0.  1.
</event>
<event>
 5    1  0.6835419E-004  0.9118800E+02  0.7818608E-02  0.1130116E+00
         25   -1    0    0    0    0  0.00000000000E+00  0.00000000000E+00  0.99999998245E-14  0.12500000000E+03  0.12500000000E+03 0.  0.
        -13    1    3    3    0    0  0.20723413329E+02  0.24072759784E+02  0.48304394218E+02  0.57812483846E+02  0.10566000000E+00 0. -1.
         23    2    1    0    0    0  0.11894113835E+02  0.23262525767E+02  0.10171090561E+02  0.96963129059E+02  0.92821238220E+02 0.  0.
         13    1    3    3    0    0 -0.88292994937E+01 -0.81023401746E+00 -0.38133303657E+02  0.39150645212E+02  0.10566000000E+00 0.  1.
         22    1    1    0    0    0 -0.11894113835E+02 -0.23262525767E+02 -0.10171090561E+02  0.28036870941E+02  0.00000000000E+00 0. -1.
</event>
<event>
 5    1  0.6835419E-004  0.9118800E+02  0.7818608E-02  0.1130116E+00
         25   -1    0    0    0    0  0.00000000000E+00  0.00000000000E+00  0.99999998245E-14  0.12500000000E+03  0.12500000000E+03 0.  0.
        -13    1    3    3    0    0 -0.26637524232E+02 -0.17609336851E+02  0.29684603734E+02  0.43598547045E+02  0.10566000000E+00 0. -1.
         23    2    1    0    0    0 -0.24059561059E+02  0.17818985954E+02 -0.65624664292E+01  0.94349637777E+02  0.89232334073E+02 0.  0.
         13    1    3    3    0    0  0.25779631731E+01  0.35428322805E+02 -0.36247070164E+02  0.50751090731E+02  0.10566000000E+00 0.  1.
         22    1    1    0    0    0  0.24059561059E+02 -0.17818985954E+02  0.65624664292E+01  0.30650362223E+02  0.00000000000E+00 0. -1.
</event>
<event>
 5    1  0.6835419E-004  0.9118800E+02  0.7818608E-02  0.1130116E+00
         25   -1    0    0    0    0  0.00000000000E+00  0.00000000000E+00  0.99999998245E-14  0.12500000000E+03  0.12500000000E+03 0.  0.
        -13    1    3    3    0    0  0.94325742839E+01 -0.41371782571E+02 -0.15500974550E+01  0.42461886638E+02  0.10566000000E+00 0. -1.
         23    2    1    0    0    0 -0.11363259380E+02  0.60804242044E+00  0.25865023821E+02  0.96742384450E+02  0.92523489518E+02 0.  0.
         13    1    3    3    0    0 -0.20795833664E+02  0.41979824991E+02  0.27415121276E+02  0.54280497812E+02  0.10566000000E+00 0.  1.
         22    1    1    0    0    0  0.11363259380E+02 -0.60804242044E+00 -0.25865023821E+02  0.28257615550E+02  0.00000000000E+00 0.  1.
</event>
<event>
 5    1  0.6835419E-004  0.9118800E+02  0.7818608E-02  0.1130116E+00
         25   -1    0    0    0    0  0.00000000000E+00  0.00000000000E+00  0.99999998245E-14  0.12500000000E+03  0.12500000000E+03 0.  0.
        -13    1    3    3    0    0 -0.48563370429E+02  0.14229173457E+02  0.34432041173E+02  0.61208226147E+02  0.10566000000E+00 0.  1.
         23    2    1    0    0    0 -0.20949516765E+02  0.15018802227E+02  0.13267281423E+02  0.96009183706E+02  0.91527569216E+02 0.  0.
         13    1    3    3    0    0  0.27613853664E+02  0.78962877018E+00 -0.21164759750E+02  0.34800957560E+02  0.10566000000E+00 0. -1.
         22    1    1    0    0    0  0.20949516765E+02 -0.15018802227E+02 -0.13267281423E+02  0.28990816294E+02  0.00000000000E+00 0.  1.
</event>
<event>
 5    1  0.6835419E-004  0.9118800E+02  0.7818608E-02  0.1130116E+00
         25   -1    0    0    0    0  0.00000000000E+00  0.00000000000E+00  0.99999998245E-14  0.12500000000E+03  0.12500000000E+03 0.  0.
        -13    1    3    3    0    0 -0.11080243358E+02  0.19646985405E+02 -0.28586359043E+02  0.36413828634E+02  0.10566000000E+00 0. -1.
         23    2    1    0    0    0  0.21655863211E+02 -0.19123599030E+02  0.26297980637E+01  0.95989583092E+02  0.91500796571E+02 0.  0.
         13    1    3    3    0    0  0.32736106569E+02 -0.38770584436E+02  0.31216157107E+02  0.59575754459E+02  0.10566000000E+00 0.  1.
         22    1    1    0    0    0 -0.21655863211E+02  0.19123599030E+02 -0.26297980637E+01  0.29010416908E+02  0.00000000000E+00 0.  1.
</event>
<event>
 5    1  0.6835419E-004  0.9118800E+02  0.7818608E-02  0.1130116E+00
         25   -1    0    0    0    0  0.00000000000E+00  0.00000000000E+00  0.99999998245E-14  0.12500000000E+03  0.12500000000E+03 0.  0.
        -13    1    3    3    0    0 -0.14087375846E+02  0.20307111755E+02 -0.36008695710E+02  0.43674595325E+02  0.10566000000E+00 0.  1.
         23    2    1    0    0    0  0.24317536595E+02 -0.71503973052E+01 -0.16489313948E+02  0.94761477514E+02  0.89807401579E+02 0.  0.
         13    1    3    3    0    0  0.38404912441E+02 -0.27457509060E+02  0.19519381762E+02  0.51086882189E+02  0.10566000000E+00 0. -1.
         22    1    1    0    0    0 -0.24317536595E+02  0.71503973052E+01  0.16489313948E+02  0.30238522486E+02  0.00000000000E+00 0. -1.
</event>
<event>
 5    1  0.6835419E-004  0.9118800E+02  0.7818608E-02  0.1130116E+00
         25   -1    0    0    0    0  0.00000000000E+00  0.00000000000E+00  0.99999998245E-14  0.12500000000E+03  0.12500000000E+03 0.  0.
        -13    1    3    3    0    0 -0.37310117856E+00  0.52886149478E+02 -0.24311820049E+01  0.52943420942E+02  0.10566000000E+00 0.  1.
         23    2    1    0    0    0 -0.83963148118E+01  0.18315303167E+02 -0.23365303700E+02  0.94147352633E+02  0.88948514087E+02 0.  0.
         13    1    3    3    0    0 -0.80232136333E+01 -0.34570846310E+02 -0.20934121696E+02  0.41203931691E+02  0.10566000000E+00 0. -1.
         22    1    1    0    0    0  0.83963148118E+01 -0.18315303167E+02  0.23365303700E+02  0.30852647367E+02  0.00000000000E+00 0.  1.
</event>
<event>
 5    1  0.6835419E-004  0.9118800E+02  0.7818608E-02  0.1130116E+00
         25   -1    0    0    0    0  0.00000000000E+00  0.00000000000E+00  0.99999998245E-14  0.12500000000E+03  0.12500000000E+03 0.  0.
        -13    1    3    3    0    0  0.46404867218E+02 -0.50904653898E+01  0.16249229864E+02  0.49430488311E+02  0.10566000000E+00 0. -1.
         23    2    1    0    0    0  0.20015781309E+01  0.63231632638E+00  0.28954867029E+02  0.95969146351E+02  0.91472873508E+02 0.  0.
         13    1    3    3    0    0 -0.44403289088E+02  0.57227817162E+01  0.12705637165E+02  0.46538658040E+02  0.10566000000E+00 0.  1.
         22    1    1    0    0    0 -0.20015781309E+01 -0.63231632638E+00 -0.28954867029E+02  0.29030853649E+02  0.00000000000E+00 0.  1.
</event>
<event>
 5    1  0.6835419E-004  0.9118800E+02  0.7818608E-02  0.1130116E+00
         25   -1    0    0    0    0  0.00000000000E+00  0.00000000000E+00  0.99999998245E-14  0.12500000000E+03  0.12500000000E+03 0.  0.
        -13    1    3    3    0    0  0.34379238239E+02  0.33323463745E+02 -0.31485191829E+01  0.47982388384E+02  0.10566000000E+00 0.  1.
         23    2    1    0    0    0  0.15607860701E+02 -0.71490286746E+00  0.24681200040E+02  0.95789076749E+02  0.91226471965E+02 0.  0.
         13    1    3    3    0    0 -0.18771377539E+02 -0.34038366613E+02  0.27829719223E+02  0.47806688365E+02  0.10566000000E+00 0. -1.
         22    1    1    0    0    0 -0.15607860701E+02  0.71490286746E+00 -0.24681200040E+02  0.29210923251E+02  0.00000000000E+00 0. -1.
</event>
<event>
 5    1  0.6835419E-004  0.9118800E+02  0.7818608E-02  0.1130116E+00
         25   -1    0    0    0    0  0.00000000000E+00  0.00000000000E+00  0.99999998245E-14  0.12500000000E+03  0.12500000000E+03 0.  0.
        -13    1    3    3    0    0 -0.59013757163E+02  0.33424920259E+01 -0.15017848535E+02  0.60986414275E+02  0.10566000000E+00 0.  1.
         23    2    1    0    0    0 -0.23925882410E+02  0.67455868185E+01 -0.14456203211E+02  0.96243564166E+02  0.91847106876E+02 0.  0.
         13    1    3    3    0    0  0.35087874754E+02  0.34030947926E+01  0.56164532368E+00  0.35257149891E+02  0.10566000000E+00 0. -1.
         22    1    1    0    0    0  0.23925882410E+02 -0.67455868185E+01  0.14456203211E+02  0.28756435834E+02  0.00000000000E+00 0.  1.
</event>
<event>
 5    1  0.6835419E-004  0.9118800E+02  0.7818608E-02  0.1130116E+00
         25   -1    0    0    0    0  0.00000000000E+00  0.00000000000E+00  0.99999998245E-14  0.12500000000E+03  0.12500000000E+03 0.  0.
        -13    1    3    3    0    0  0.71145775631E+01  0.23663462276E+02 -0.36248965025E+02  0.43869981652E+02  0.10566000000E+00 0.  1.
         23    2    1    0    0    0  0.15550485233E+02 -0.21401684520E+02 -0.98767385635E+01  0.96761734190E+02  0.92549627485E+02 0.  0.
         13    1    3    3    0    0  0.84359076702E+01 -0.45065146796E+02  0.26372226461E+02  0.52891752538E+02  0.10566000000E+00 0. -1.
         22    1    1    0    0    0 -0.15550485233E+02  0.21401684520E+02  0.98767385635E+01  0.28238265810E+02  0.00000000000E+00 0. -1.
</event>
<event>
 5    1  0.6835419E-004  0.9118800E+02  0.7818608E-02  0.1130116E+00
         25   -1    0    0    0    0  0.00000000000E+00  0.00000000000E+00  0.99999998245E-14  0.12500000000E+03  0.12500000000E+03 0.  0.
        -13    1    3    3    0    0  0.29796086173E+02 -0.89539083040E+01 -0.43566400418E+02  0.53535237317E+02  0.10566000000E+00 0.  1.
         23    2    1    0    0    0 -0.77226915925E+01 -0.66305577115E+01 -0.29703732530E+02  0.93600700848E+02  0.88176953974E+02 0.  0.
         13    1    3    3    0    0 -0.37518777765E+02  0.23233505925E+01  0.13862667888E+02  0.40065463532E+02  0.10566000000E+00 0. -1.
         22    1    1    0    0    0  0.77226915925E+01  0.66305577115E+01  0.29703732530E+02  0.31399299152E+02  0.00000000000E+00 0.  1.
</event>
<event>
 5    1  0.6835419E-004  0.9118800E+02  0.7818608E-02  0.1130116E+00
         25   -1    0    0    0    0  0.00000000000E+00  0.00000000000E+00  0.99999998245E-14  0.12500000000E+03  0.12500000000E+03 0.  0.
        -13    1    3    3    0    0  0.25615147049E+02 -0.21669813651E+02 -0.15269939890E+02  0.36863244706E+02  0.10566000000E+00 0.  1.
         23    2    1    0    0    0 -0.27048521523E+02 -0.25270287424E+01  0.66476387737E+01  0.97032170407E+02  0.92914167928E+02 0.  0.
         13    1    3    3    0    0 -0.52663668572E+02  0.19142784909E+02  0.21917578663E+02  0.60168925701E+02  0.10566000000E+00 0. -1.
         22    1    1    0    0    0  0.27048521523E+02  0.25270287424E+01 -0.66476387737E+01  0.27967829593E+02  0.00000000000E+00 0. -1.
</event>
<event>
 5    1  0.6835419E-004  0.9118800E+02  0.7818608E-02  0.1130116E+00
         25   -1    0    0    0    0  0.00000000000E+00  0.00000000000E+00  0.99999998245E-14  0.12500000000E+03  0.12500000000E+03 0.  0.
        -13    1    3    3    0    0  0.19941787600E+02  0.34869210899E+02  0.95267391451E+01  0.41283249438E+02  0.10566000000E+00 0.  1.
         23    2    1    0    0    0  0.15408945496E+02 -0.20642692785E+02  0.10977482778E+02  0.96998901899E+02  0.92869400100E+02 0.  0.
         13    1    3    3    0    0 -0.45328421035E+01 -0.55511903683E+02  0.14507436325E+01  0.55715652462E+02  0.10566000000E+00 0. -1.
         22    1    1    0    0    0 -0.15408945496E+02  0.20642692785E+02 -0.10977482778E+02  0.28001098101E+02  0.00000000000E+00 0. -1.
</event>
<event>
 5    1  0.6835419E-004  0.9118800E+02  0.7818608E-02  0.1130116E+00
         25   -1    0    0    0    0  0.00000000000E+00  0.00000000000E+00  0.99999998245E-14  0.12500000000E+03  0.12500000000E+03 0.  0.
        -13    1    3    3    0    0  0.10653692360E+02 -0.87907698898E+01 -0.41587545444E+02  0.43821386289E+02  0.10566000000E+00 0.  1.
         23    2    1    0    0    0 -0.23381994758E+01 -0.29648059848E+02  0.33834686552E+01  0.95068035653E+02  0.90233081036E+02 0.  0.
         13    1    3    3    0    0 -0.12991891835E+02 -0.20857289958E+02  0.44971014100E+02  0.51246649364E+02  0.10566000000E+00 0. -1.
         22    1    1    0    0    0  0.23381994758E+01  0.29648059848E+02 -0.33834686552E+01  0.29931964347E+02  0.00000000000E+00 0. -1.
</event>
<event>
 5    1  0.6835419E-004  0.9118800E+02  0.7818608E-02  0.1130116E+00
         25   -1    0    0    0    0  0.00000000000E+00  0.00000000000E+00  0.99999998245E-14  0.12500000000E+03  0.12500000000E+03 0.  0.
        -13    1    3    3    0    0  0.47695854229E+02  0.20007194957E+02  0.53412199070E+01  0.51997328344E+02  0.10566000000E+00 0.  1.
         23    2    1    0    0    0  0.69496811960E+01  0.12490597605E+02  0.23705530118E+02  0.97318503375E+02  0.93298584361E+02 0.  0.
         13    1    3    3    0    0 -0.40746173034E+02 -0.75165973528E+01  0.18364310211E+02  0.45321175031E+02  0.10566000000E+00 0. -1.
         22    1    1    0    0    0 -0.69496811960E+01 -0.12490597605E+02 -0.23705530118E+02  0.27681496625E+02  0.00000000000E+00 0. -1.
</event>
<event>
 5    1  0.6835419E-004  0.9118800E+02  0.7818608E-02  0.1130116E+00
         25   -1    0    0    0    0  0.00000000000E+00  0.00000000000E+00  0.99999998245E-14  0.12500000000E+03  0.12500000000E+03 0.  0.
        -13    1    3    3    0    0  0.39641047834E+01  0.30925022821E+02 -0.25333121100E+01  0.31280984599E+02  0.10566000000E+00 0.  1.
         23    2    1    0    0    0 -0.81436302974E+01 -0.29815330379E+02  0.50631570144E+01  0.93680545998E+02  0.88290070220E+02 0.  0.
         13    1    3    3    0    0 -0.12107735081E+02 -0.60740353200E+02  0.75964691245E+01  0.62399561399E+02  0.10566000000E+00 0. -1.
         22    1    1    0    0    0  0.81436302974E+01  0.29815330379E+02 -0.50631570144E+01  0.31319454002E+02  0.00000000000E+00 0. -1.
</event>
<event>
 5    1  0.6835419E-004  0.9118800E+02  0.7818608E-02  0.1130116E+00
         25   -1    0    0    0    0  0.00000000000E+00  0.00000000000E+00  0.99999998245E-14  0.12500000000E+03  0.12500000000E+03 0.  0.
        -13    1    3    3    0    0 -0.41476693882E+02 -0.32528341772E+02 -0.22230747924E+02  0.57206874335E+02  0.10566000000E+00 0.  1.
         23    2    1    0    0    0 -0.28326000954E+02 -0.25937960276E+01 -0.34186885743E+00  0.96553436373E+02  0.92267865984E+02 0.  0.
         13    1    3    3    0    0  0.13150692928E+02  0.29934545744E+02  0.21888879067E+02  0.39346562039E+02  0.10566000000E+00 0. -1.
         22    1    1    0    0    0  0.28326000954E+02  0.25937960276E+01  0.34186885743E+00  0.28446563627E+02  0.00000000000E+00 0.  1.
</event>
<event>
 5    1  0.6835419E-004  0.9118800E+02  0.7818608E-02  0.1130116E+00
         25   -1    0    0    0    0  0.00000000000E+00  0.00000000000E+00  0.99999998245E-14  0.12500000000E+03  0.12500000000E+03 0.  0.
        -13    1    3    3    0    0  0.25192949164E+02  0.95210432853E+01 -0.86532264437E+01  0.28288238629E+02  0.10566000000E+00 0.  1.
         23    2    1    0    0    0 -0.70505969379E+01 -0.31494147097E+02 -0.26303722468E+02  0.83364942245E+02  0.72223511139E+02 0.  0.
         13    1    3    3    0    0 -0.32243546101E+02 -0.41015190383E+02 -0.17650496024E+02  0.55076703616E+02  0.10566000000E+00 0. -1.
         22    1    1    0    0    0  0.70505969379E+01  0.31494147097E+02  0.26303722468E+02  0.41635057755E+02  0.00000000000E+00 0. -1.
</event>
<event>
 5    1  0.6835419E-004  0.9118800E+02  0.7818608E-02  0.1130116E+00
         25   -1    0    0    0    0  0.00000000000E+00  0.00000000000E+00  0.99999998245E-14  0.12500000000E+03  0.12500000000E+03 0.  0.
        -13    1    3    3    0    0  0.33481333371E+02 -0.17020637862E+02  0.32858968510E+02  0.49904155870E+02  0.10566000000E+00 0.  1.
         23    2    1    0    0    0 -0.86404090413E+01 -0.23080312701E+02  0.15641463919E+02  0.95810740053E+02  0.91256150550E+02 0.  0.
         13    1    3    3    0    0 -0.42121742412E+02 -0.60596748382E+01 -0.17217504591E+02  0.45906584183E+02  0.10566000000E+00 0. -1.
         22    1    1    0    0    0  0.86404090413E+01  0.23080312701E+02 -0.15641463919E+02  0.29189259947E+02  0.00000000000E+00 0.  1.
</event>
<event>
 5    1  0.6835419E-004  0.9118800E+02  0.7818608E-02  0.1130116E+00
         25   -1    0    0    0    0  0.00000000000E+00  0.00000000000E+00  0.99999998245E-14  0.12500000000E+03  0.12500000000E+03 0.  0.
        -13    1    3    3    0    0  0.17056659272E+02  0.56681538309E+01  0.44913085642E+02  0.48376172020E+02  0.10566000000E+00 0.  1.
         23    2    1    0    0    0  0.62452670615E+00 -0.25459113553E+02  0.27050704248E+02  0.87847650185E+02  0.79604726908E+02 0.  0.
         13    1    3    3    0    0 -0.16432132565E+02 -0.31127267384E+02 -0.17862381394E+02  0.39471478165E+02  0.10566000000E+00 0. -1.
         22    1    1    0    0    0 -0.62452670615E+00  0.25459113553E+02 -0.27050704248E+02  0.37152349815E+02  0.00000000000E+00 0.  1.
</event>
<event>
 5    1  0.6835419E-004  0.9118800E+02  0.7818608E-02  0.1130116E+00
         25   -1    0    0    0    0  0.00000000000E+00  0.00000000000E+00  0.99999998245E-14  0.12500000000E+03  0.12500000000E+03 0.  0.
        -13    1    3    3    0    0 -0.29505293151E+02 -0.47825785555E+02  0.25554226330E+02  0.61732469052E+02  0.10566000000E+00 0.  1.
         23    2    1    0    0    0 -0.19045001460E+02 -0.18625797625E+02  0.14567996750E+02  0.94637869853E+02  0.89635190986E+02 0.  0.
         13    1    3    3    0    0  0.10460291691E+02  0.29199987931E+02 -0.10986229580E+02  0.32905400800E+02  0.10566000000E+00 0. -1.
         22    1    1    0    0    0  0.19045001460E+02  0.18625797625E+02 -0.14567996750E+02  0.30362130147E+02  0.00000000000E+00 0.  1.
</event>
<event>
 5    1  0.6835419E-004  0.9118800E+02  0.7818608E-02  0.1130116E+00
         25   -1    0    0    0    0  0.00000000000E+00  0.00000000000E+00  0.99999998245E-14  0.12500000000E+03  0.12500000000E+03 0.  0.
        -13    1    3    3    0    0 -0.12980373362E+02 -0.29153311050E+02  0.15263288371E+01  0.31949123330E+02  0.10566000000E+00 0.  1.
         23    2    1    0    0    0  0.24410794377E+01  0.30642109054E+02 -0.42394784099E+01  0.93969838974E+02  0.88698702040E+02 0.  0.
         13    1    3    3    0    0  0.15421452800E+02  0.59795420104E+02 -0.57658072470E+01  0.62020715645E+02  0.10566000000E+00 0. -1.
         22    1    1    0    0    0 -0.24410794377E+01 -0.30642109054E+02  0.42394784099E+01  0.31030161026E+02  0.00000000000E+00 0. -1.
</event>
<event>
 5    1  0.6835419E-004  0.9118800E+02  0.7818608E-02  0.1130116E+00
         25   -1    0    0    0    0  0.00000000000E+00  0.00000000000E+00  0.99999998245E-14  0.12500000000E+03  0.12500000000E+03 0.  0.
        -13    1    3    3    0    0  0.60404695515E+01 -0.25356386716E+02  0.30415095829E+02  0.40056495579E+02  0.10566000000E+00 0. -1.
         23    2    1    0    0    0 -0.23564922569E+02  0.13926503479E+02  0.51131154904E+00  0.97622737274E+02  0.93705305712E+02 0.  0.
         13    1    3    3    0    0 -0.29605392121E+02  0.39282890195E+02 -0.29903784280E+02  0.57566241696E+02  0.10566000000E+00 0.  1.
         22    1    1    0    0    0  0.23564922569E+02 -0.13926503479E+02 -0.51131154904E+00  0.27377262726E+02  0.00000000000E+00 0.  1.
</event>
<event>
 5    1  0.6835419E-004  0.9118800E+02  0.7818608E-02  0.1130116E+00
         25   -1    0    0    0    0  0.00000000000E+00  0.00000000000E+00  0.99999998245E-14  0.12500000000E+03  0.12500000000E+03 0.  0.
        -13    1    3    3    0    0 -0.33732153129E+02 -0.39206277502E+02  0.28935217450E+02  0.59264224649E+02  0.10566000000E+00 0.  1.
         23    2    1    0    0    0 -0.84795946394E+01 -0.13030451519E+02  0.24608466454E+02  0.95892048969E+02  0.91367457238E+02 0.  0.
         13    1    3    3    0    0  0.25252558490E+02  0.26175825984E+02 -0.43267509955E+01  0.36627824320E+02  0.10566000000E+00 0. -1.
         22    1    1    0    0    0  0.84795946394E+01  0.13030451519E+02 -0.24608466454E+02  0.29107951031E+02  0.00000000000E+00 0.  1.
</event>
<event>
 5    1  0.6835419E-004  0.9118800E+02  0.7818608E-02  0.1130116E+00
         25   -1    0    0    0    0  0.00000000000E+00  0.00000000000E+00  0.99999998245E-14  0.12500000000E+03  0.12500000000E+03 0.  0.
        -13    1    3    3    0    0 -0.84913655047E+00  0.30055706613E+02  0.22241537864E+02  0.37400049511E+02  0.10566000000E+00 0.  1.
         23    2    1    0    0    0  0.18453470231E+02 -0.20259325121E+02  0.19511274190E+02  0.91359835933E+02  0.84940914660E+02 0.  0.
         13    1    3    3    0    0  0.19302606782E+02 -0.50315031733E+02 -0.27302636733E+01  0.53959786422E+02  0.10566000000E+00 0. -1.
         22    1    1    0    0    0 -0.18453470231E+02  0.20259325121E+02 -0.19511274190E+02  0.33640164067E+02  0.00000000000E+00 0. -1.
</event>
<event>
 5    1  0.6835419E-004  0.9118800E+02  0.7818608E-02  0.1130116E+00
         25   -1    0    0    0    0  0.00000000000E+00  0.00000000000E+00  0.99999998245E-14  0.12500000000E+03  0.12500000000E+03 0.  0.
        -13    1    3    3    0    0  0.13916582519E+02  0.47719792546E+02  0.21170413981E+02  0.54028209870E+02  0.10566000000E+00 0.  1.
         23    2    1    0    0    0 -0.16408689002E+02  0.22637389254E+02  0.12740015941E+02  0.94275344214E+02  0.89128200102E+02 0.  0.
         13    1    3    3    0    0 -0.30325271521E+02 -0.25082403292E+02 -0.84303980397E+01  0.40247134344E+02  0.10566000000E+00 0. -1.
         22    1    1    0    0    0  0.16408689002E+02 -0.22637389254E+02 -0.12740015941E+02  0.30724655786E+02  0.00000000000E+00 0.  1.
</event>
<event>
 5    1  0.6835419E-004  0.9118800E+02  0.7818608E-02  0.1130116E+00
         25   -1    0    0    0    0  0.00000000000E+00  0.00000000000E+00  0.99999998245E-14  0.12500000000E+03  0.12500000000E+03 0.  0.
        -13    1    3    3    0    0 -0.17814272486E+02  0.55587638010E+02  0.13128533481E+02  0.59830622253E+02  0.10566000000E+00 0. -1.
         23    2    1    0    0    0 -0.20034821497E+02  0.20492054695E+02  0.53593985332E+01  0.95844528289E+02  0.91302420956E+02 0.  0.
         13    1    3    3    0    0 -0.22205490115E+01 -0.35095583315E+02 -0.77691349482E+01  0.36013906037E+02  0.10566000000E+00 0.  1.
         22    1    1    0    0    0  0.20034821497E+02 -0.20492054695E+02 -0.53593985332E+01  0.29155471711E+02  0.00000000000E+00 0. -1.
</event>
<event>
 5    1  0.6835419E-004  0.9118800E+02  0.7818608E-02  0.1130116E+00
         25   -1    0    0    0    0  0.00000000000E+00  0.00000000000E+00  0.99999998245E-14  0.12500000000E+03  0.12500000000E+03 0.  0.
        -13    1    3    3    0    0  0.23949945130E+02  0.56817467147E+01 -0.44599030468E+02  0.50940816643E+02  0.10566000000E+00 0.  1.
         23    2    1    0    0    0 -0.42155983134E+01  0.24475078254E+02 -0.14520520965E+02  0.96231158282E+02  0.91830221445E+02 0.  0.
         13    1    3    3    0    0 -0.28165543444E+02  0.18793331540E+02  0.30078509504E+02  0.45290341640E+02  0.10566000000E+00 0. -1.
         22    1    1    0    0    0  0.42155983134E+01 -0.24475078254E+02  0.14520520965E+02  0.28768841718E+02  0.00000000000E+00 0.  1.
</event>
<event>
 5    1  0.6835419E-004  0.9118800E+02  0.7818608E-02  0.1130116E+00
         25   -1    0    0    0    0  0.00000000000E+00  0.00000000000E+00  0.99999998245E-14  0.12500000000E+03  0.12500000000E+03 0.  0.
        -13    1    3    3    0    0  0.83367686506E+01  0.40408820825E+02 -0.34234262042E+02  0.53613154856E+02  0.10566000000E+00 0. -1.
         23    2    1    0    0    0  0.13838238216E+02  0.23328011780E+02  0.56011764308E+01  0.97304040946E+02  0.93279205810E+02 0.  0.
         13    1    3    3    0    0  0.55014695649E+01 -0.17080809045E+02  0.39835438473E+02  0.43690886090E+02  0.10566000000E+00 0.  1.
         22    1    1    0    0    0 -0.13838238216E+02 -0.23328011780E+02 -0.56011764308E+01  0.27695959054E+02  0.00000000000E+00 0.  1.
</event>
<event>
 5    1  0.6835419E-004  0.9118800E+02  0.7818608E-02  0.1130116E+00
         25   -1    0    0    0    0  0.00000000000E+00  0.00000000000E+00  0.99999998245E-14  0.12500000000E+03  0.12500000000E+03 0.  0.
        -13    1    3    3    0    0 -0.23418084684E+02  0.22797838520E+02  0.26528588930E+02  0.42094243384E+02  0.10566000000E+00 0. -1.
         23    2    1    0    0    0  0.16483810459E+02  0.21909749935E+02 -0.96202657410E+01  0.95943113339E+02  0.91437291817E+02 0.  0.
         13    1    3    3    0    0  0.39901895143E+02 -0.88808858459E+00 -0.36148854671E+02  0.53848869955E+02  0.10566000000E+00 0.  1.
         22    1    1    0    0    0 -0.16483810459E+02 -0.21909749935E+02  0.96202657410E+01  0.29056886661E+02  0.00000000000E+00 0.  1.
</event>
<event>
 5    1  0.6835419E-004  0.9118800E+02  0.7818608E-02  0.1130116E+00
         25   -1    0    0    0    0  0.00000000000E+00  0.00000000000E+00  0.99999998245E-14  0.12500000000E+03  0.12500000000E+03 0.  0.
        -13    1    3    3    0    0 -0.12393220222E+02 -0.21406634555E+02 -0.26758471201E+02  0.36439852572E+02  0.10566000000E+00 0.  1.
         23    2    1    0    0    0 -0.93941123877E+01  0.24682285919E+02  0.11288169267E+02  0.96279147799E+02  0.91895521924E+02 0.  0.
         13    1    3    3    0    0  0.29991078339E+01  0.46088920474E+02  0.38046640468E+02  0.59839295227E+02  0.10566000000E+00 0. -1.
         22    1    1    0    0    0  0.93941123877E+01 -0.24682285919E+02 -0.11288169267E+02  0.28720852201E+02  0.00000000000E+00 0.  1.
</event>
<event>
 5    1  0.6835419E-004  0.9118800E+02  0.7818608E-02  0.1130116E+00
         25   -1    0    0    0    0  0.00000000000E+00  0.00000000000E+00  0.99999998245E-14  0.12500000000E+03  0.12500000000E+03 0.  0.
        -13    1    3    3    0    0  0.24742879107E+02 -0.19948601768E+02  0.51372657282E+02  0.60409584167E+02  0.10566000000E+00 0.  1.
         23    2    1    0    0    0  0.19884022452E+02 -0.13310346341E+02  0.17269456267E+02  0.95491123567E+02  0.90817294012E+02 0.  0.
         13    1    3    3    0    0 -0.48588566552E+01  0.66382554267E+01 -0.34103201015E+02  0.35081539399E+02  0.10566000000E+00 0. -1.
         22    1    1    0    0    0 -0.19884022452E+02  0.13310346341E+02 -0.17269456267E+02  0.29508876433E+02  0.00000000000E+00 0.  1.
</event>
<event>
 5    1  0.6835419E-004  0.9118800E+02  0.7818608E-02  0.1130116E+00
         25   -1    0    0    0    0  0.00000000000E+00  0.00000000000E+00  0.99999998245E-14  0.12500000000E+03  0.12500000000E+03 0.  0.
        -13    1    3    3    0    0 -0.13002502708E+02 -0.30357045609E+02 -0.55460198494E+00  0.33029290670E+02  0.10566000000E+00 0.  1.
         23    2    1    0    0    0  0.15042366565E+02  0.25409852155E+02 -0.10460820309E+01  0.95452958421E+02  0.90764748693E+02 0.  0.
         13    1    3    3    0    0  0.28044869274E+02  0.55766897764E+02 -0.49148004592E+00  0.62423667751E+02  0.10566000000E+00 0. -1.
         22    1    1    0    0    0 -0.15042366565E+02 -0.25409852155E+02  0.10460820309E+01  0.29547041579E+02  0.00000000000E+00 0. -1.
</event>
<event>
 5    1  0.6835419E-004  0.9118800E+02  0.7818608E-02  0.1130116E+00
         25   -1    0    0    0    0  0.00000000000E+00  0.00000000000E+00  0.99999998245E-14  0.12500000000E+03  0.12500000000E+03 0.  0.
        -13    1    3    3    0    0  0.39137529178E+02  0.31171863885E+02  0.20290353205E+02  0.53992044649E+02  0.10566000000E+00 0. -1.
         23    2    1    0    0    0  0.59886876986E+01  0.86197178573E+01  0.28246105810E+02  0.94866855296E+02  0.89953953910E+02 0.  0.
         13    1    3    3    0    0 -0.33148841479E+02 -0.22552146028E+02  0.79557526055E+01  0.40874810647E+02  0.10566000000E+00 0.  1.
         22    1    1    0    0    0 -0.59886876986E+01 -0.86197178573E+01 -0.28246105810E+02  0.30133144704E+02  0.00000000000E+00 0. -1.
</event>
<event>
 5    1  0.6835419E-004  0.9118800E+02  0.7818608E-02  0.1130116E+00
         25   -1    0    0    0    0  0.00000000000E+00  0.00000000000E+00  0.99999998245E-14  0.12500000000E+03  0.12500000000E+03 0.  0.
        -13    1    3    3    0    0 -0.12973696024E+02  0.30380297297E+02 -0.12042707376E+02  0.35161302839E+02  0.10566000000E+00 0. -1.
         23    2    1    0    0    0  0.73993839592E+01 -0.20828887412E+02  0.16678741894E+02  0.97309318084E+02  0.93286277238E+02 0.  0.
         13    1    3    3    0    0  0.20373079983E+02 -0.51209184709E+02  0.28721449270E+02  0.62148015244E+02  0.10566000000E+00 0.  1.
         22    1    1    0    0    0 -0.73993839592E+01  0.20828887412E+02 -0.16678741894E+02  0.27690681916E+02  0.00000000000E+00 0.  1.
</event>
<event>
 5    1  0.6835419E-004  0.9118800E+02  0.7818608E-02  0.1130116E+00
         25   -1    0    0    0    0  0.00000000000E+00  0.00000000000E+00  0.99999998245E-14  0.12500000000E+03  0.12500000000E+03 0.  0.
        -13    1    3    3    0    0  0.13726131018E+02 -0.72114783018E-02  0.50087840187E+02  0.51934666874E+02  0.10566000000E+00 0. -1.
         23    2    1    0    0    0 -0.82332223592E+01 -0.21005450398E+02  0.17874922178E+02  0.96215842210E+02  0.91809370722E+02 0.  0.
         13    1    3    3    0    0 -0.21959353377E+02 -0.20998238919E+02 -0.32212918008E+02  0.44281175336E+02  0.10566000000E+00 0.  1.
         22    1    1    0    0    0  0.82332223592E+01  0.21005450398E+02 -0.17874922178E+02  0.28784157790E+02  0.00000000000E+00 0. -1.
</event>
<event>
 5    1  0.6835419E-004  0.9118800E+02  0.7818608E-02  0.1130116E+00
         25   -1    0    0    0    0  0.00000000000E+00  0.00000000000E+00  0.99999998245E-14  0.12500000000E+03  0.12500000000E+03 0.  0.
        -13    1    3    3    0    0 -0.91706871055E+01 -0.35150204075E+02  0.11574419928E+02  0.38126325671E+02  0.10566000000E+00 0. -1.
         23    2    1    0    0    0  0.12451163940E+01  0.24999144518E+02  0.43070576583E+01  0.99602002300E+02  0.96309400243E+02 0.  0.
         13    1    3    3    0    0  0.10415803499E+02  0.60149348593E+02 -0.72673622693E+01  0.61475676630E+02  0.10566000000E+00 0.  1.
         22    1    1    0    0    0 -0.12451163940E+01 -0.24999144518E+02 -0.43070576583E+01  0.25397997700E+02  0.00000000000E+00 0.  1.
</event>
<event>
 5    1  0.6835419E-004  0.9118800E+02  0.7818608E-02  0.1130116E+00
         25   -1    0    0    0    0  0.00000000000E+00  0.00000000000E+00  0.99999998245E-14  0.12500000000E+03  0.12500000000E+03 0.  0.
        -13    1    3    3    0    0 -0.80252233548E+01 -0.13790857238E+02 -0.30626847266E+02  0.34534140944E+02  0.10566000000E+00 0.  1.
         23    2    1    0    0    0  0.66152757448E+01  0.12269941276E+02  0.24252845701E+02  0.97026550861E+02  0.92906607490E+02 0.  0.
         13    1    3    3    0    0  0.14640499100E+02  0.26060798515E+02  0.54879692967E+02  0.62492409917E+02  0.10566000000E+00 0. -1.
         22    1    1    0    0    0 -0.66152757448E+01 -0.12269941276E+02 -0.24252845701E+02  0.27973449139E+02  0.00000000000E+00 0. -1.
</event>
<event>
 5    1  0.6835419E-004  0.9118800E+02  0.7818608E-02  0.1130116E+00
         25   -1    0    0    0    0  0.00000000000E+00  0.00000000000E+00  0.99999998245E-14  0.12500000000E+03  0.12500000000E+03 0.  0.
        -13    1    3    3    0    0  0.57300920175E+02  0.61883428923E+01  0.15049338295E+02  0.59566641569E+02  0.10566000000E+00 0. -1.
         23    2    1    0    0    0  0.28976046972E+02 -0.10215837532E+02  0.10020572419E+02  0.92683030678E+02  0.86866320686E+02 0.  0.
         13    1    3    3    0    0 -0.28324873203E+02 -0.16404180424E+02 -0.50287658761E+01  0.33116389109E+02  0.10566000000E+00 0.  1.
         22    1    1    0    0    0 -0.28976046972E+02  0.10215837532E+02 -0.10020572419E+02  0.32316969322E+02  0.00000000000E+00 0. -1.
</event>
<event>
 5    1  0.6835419E-004  0.9118800E+02  0.7818608E-02  0.1130116E+00
         25   -1    0    0    0    0  0.00000000000E+00  0.00000000000E+00  0.99999998245E-14  0.12500000000E+03  0.12500000000E+03 0.  0.
        -13    1    3    3    0    0  0.44895538160E+02  0.40555916821E+02  0.27579844305E+01  0.60564093142E+02  0.10566000000E+00 0.  1.
         23    2    1    0    0    0  0.11053214849E+02  0.24253010050E+02 -0.10862641334E+01  0.98324880042E+02  0.94637307710E+02 0.  0.
         13    1    3    3    0    0 -0.33842323311E+02 -0.16302906771E+02 -0.38442485639E+01  0.37760786900E+02  0.10566000000E+00 0. -1.
         22    1    1    0    0    0 -0.11053214849E+02 -0.24253010050E+02  0.10862641334E+01  0.26675119958E+02  0.00000000000E+00 0.  1.
</event>
<event>
 5    1  0.6835419E-004  0.9118800E+02  0.7818608E-02  0.1130116E+00
         25   -1    0    0    0    0  0.00000000000E+00  0.00000000000E+00  0.99999998245E-14  0.12500000000E+03  0.12500000000E+03 0.  0.
        -13    1    3    3    0    0 -0.11945503747E+02  0.29682035322E+02  0.16510358168E+02  0.36004463217E+02  0.10566000000E+00 0.  1.
         23    2    1    0    0    0 -0.98309444377E+01 -0.13449276557E+02 -0.24377497082E+02  0.95473861200E+02  0.90793531158E+02 0.  0.
         13    1    3    3    0    0  0.21145593097E+01 -0.43131311880E+02 -0.40887855250E+02  0.59469397983E+02  0.10566000000E+00 0. -1.
         22    1    1    0    0    0  0.98309444377E+01  0.13449276557E+02  0.24377497082E+02  0.29526138800E+02  0.00000000000E+00 0. -1.
</event>
<event>
 5    1  0.6835419E-004  0.9118800E+02  0.7818608E-02  0.1130116E+00
         25   -1    0    0    0    0  0.00000000000E+00  0.00000000000E+00  0.99999998245E-14  0.12500000000E+03  0.12500000000E+03 0.  0.
        -13    1    3    3    0    0 -0.11109968540E+02  0.28245587582E+02 -0.21865791090E+02  0.37408135517E+02  0.10566000000E+00 0.  1.
         23    2    1    0    0    0  0.18241601330E+02 -0.15799406409E+01  0.20881419895E+02  0.97227964994E+02  0.93177203481E+02 0.  0.
         13    1    3    3    0    0  0.29351569870E+02 -0.29825528223E+02  0.42747210986E+02  0.59819829477E+02  0.10566000000E+00 0. -1.
         22    1    1    0    0    0 -0.18241601330E+02  0.15799406409E+01 -0.20881419895E+02  0.27772035006E+02  0.00000000000E+00 0. -1.
</event>
<event>
 5    1  0.6835419E-004  0.9118800E+02  0.7818608E-02  0.1130116E+00
         25   -1    0    0    0    0  0.00000000000E+00  0.00000000000E+00  0.99999998245E-14  0.12500000000E+03  0.12500000000E+03 0.  0.
        -13    1    3    3    0    0  0.35514616118E+02  0.24819880002E+02 -0.41153180740E+02  0.59757090378E+02  0.10566000000E+00 0.  1.
         23    2    1    0    0    0  0.10528246217E+02 -0.17137115739E+00 -0.23474683877E+02  0.99271919628E+02  0.95880028719E+02 0.  0.
         13    1    3    3    0    0 -0.24986369901E+02 -0.24991251159E+02  0.17678496863E+02  0.39514829251E+02  0.10566000000E+00 0. -1.
         22    1    1    0    0    0 -0.10528246217E+02  0.17137115739E+00  0.23474683877E+02  0.25728080372E+02  0.00000000000E+00 0.  1.
</event>
<event>
 5    1  0.6835419E-004  0.9118800E+02  0.7818608E-02  0.1130116E+00
         25   -1    0    0    0    0  0.00000000000E+00  0.00000000000E+00  0.99999998245E-14  0.12500000000E+03  0.12500000000E+03 0.  0.
        -13    1    3    3    0    0 -0.17644666603E+02 -0.23492716879E+02  0.22309372549E+02  0.36891208620E+02  0.10566000000E+00 0. -1.
         23    2    1    0    0    0  0.27009351558E+02  0.48827213506E+01 -0.60126412495E+01  0.96901994836E+02  0.92738873775E+02 0.  0.
         13    1    3    3    0    0  0.44654018162E+02  0.28375438229E+02 -0.28322013798E+02  0.60010786216E+02  0.10566000000E+00 0.  1.
         22    1    1    0    0    0 -0.27009351558E+02 -0.48827213506E+01  0.60126412495E+01  0.28098005164E+02  0.00000000000E+00 0.  1.
</event>
<event>
 5    1  0.6835419E-004  0.9118800E+02  0.7818608E-02  0.1130116E+00
         25   -1    0    0    0    0  0.00000000000E+00  0.00000000000E+00  0.99999998245E-14  0.12500000000E+03  0.12500000000E+03 0.  0.
        -13    1    3    3    0    0  0.11373342831E+02  0.43980383697E+02 -0.16545237489E+02  0.48346490306E+02  0.10566000000E+00 0. -1.
         23    2    1    0    0    0  0.30102570849E+01 -0.23582624136E+01 -0.27945334222E+02  0.96794242536E+02  0.92593523715E+02 0.  0.
         13    1    3    3    0    0 -0.83630857461E+01 -0.46338646111E+02 -0.11400096733E+02  0.48447752230E+02  0.10566000000E+00 0.  1.
         22    1    1    0    0    0 -0.30102570849E+01  0.23582624136E+01  0.27945334222E+02  0.28205757464E+02  0.00000000000E+00 0. -1.
</event>
<event>
 5    1  0.6835419E-004  0.9118800E+02  0.7818608E-02  0.1130116E+00
         25   -1    0    0    0    0  0.00000000000E+00  0.00000000000E+00  0.99999998245E-14  0.12500000000E+03  0.12500000000E+03 0.  0.
        -13    1    3    3    0    0  0.34204701939E+02 -0.12141630012E+02  0.22632870735E+02  0.42774277502E+02  0.10566000000E+00 0.  1.
         23    2    1    0    0    0  0.12109510125E+02  0.22123439061E+02 -0.12733307974E+02  0.96747143095E+02  0.92529918263E+02 0.  0.
         13    1    3    3    0    0 -0.22095191814E+02  0.34265069072E+02 -0.35366178709E+02  0.53972865593E+02  0.10566000000E+00 0. -1.
         22    1    1    0    0    0 -0.12109510125E+02 -0.22123439061E+02  0.12733307974E+02  0.28252856905E+02  0.00000000000E+00 0. -1.
</event>
<event>
 5    1  0.6835419E-004  0.9118800E+02  0.7818608E-02  0.1130116E+00
         25   -1    0    0    0    0  0.00000000000E+00  0.00000000000E+00  0.99999998245E-14  0.12500000000E+03  0.12500000000E+03 0.  0.
        -13    1    3    3    0    0 -0.60864891738E+02  0.47508845820E+00  0.14363340791E+01  0.60883782528E+02  0.10566000000E+00 0.  1.
         23    2    1    0    0    0 -0.27449678565E+02 -0.57543044952E+01 -0.73786991334E+01  0.95999274588E+02  0.91514035245E+02 0.  0.
         13    1    3    3    0    0  0.33415213173E+02 -0.62293929534E+01 -0.88150332125E+01  0.35115492059E+02  0.10566000000E+00 0. -1.
         22    1    1    0    0    0  0.27449678565E+02  0.57543044952E+01  0.73786991334E+01  0.29000725412E+02  0.00000000000E+00 0.  1.
</event>
<event>
 5    1  0.6835419E-004  0.9118800E+02  0.7818608E-02  0.1130116E+00
         25   -1    0    0    0    0  0.00000000000E+00  0.00000000000E+00  0.99999998245E-14  0.12500000000E+03  0.12500000000E+03 0.  0.
        -13    1    3    3    0    0  0.32103530264E+02 -0.12650134563E+02  0.14488467226E+02  0.37424449315E+02  0.10566000000E+00 0. -1.
         23    2    1    0    0    0 -0.24519002743E+02 -0.16475090899E+02  0.32082816962E+01  0.95286313135E+02  0.90534956143E+02 0.  0.
         13    1    3    3    0    0 -0.56622533007E+02 -0.38249563362E+01 -0.11280185530E+02  0.57861863820E+02  0.10566000000E+00 0.  1.
         22    1    1    0    0    0  0.24519002743E+02  0.16475090899E+02 -0.32082816962E+01  0.29713686865E+02  0.00000000000E+00 0.  1.
</event>
<event>
 5    1  0.6835419E-004  0.9118800E+02  0.7818608E-02  0.1130116E+00
         25   -1    0    0    0    0  0.00000000000E+00  0.00000000000E+00  0.99999998245E-14  0.12500000000E+03  0.12500000000E+03 0.  0.
        -13    1    3    3    0    0  0.21749700953E+02 -0.27324973682E+02 -0.60410863427E+01  0.35443046800E+02  0.10566000000E+00 0.  1.
         23    2    1    0    0    0 -0.26105546573E+02  0.67344438762E+01  0.98563956971E+01  0.96294585313E+02  0.91916518256E+02 0.  0.
         13    1    3    3    0    0 -0.47855247526E+02  0.34059417558E+02  0.15897482040E+02  0.60851538513E+02  0.10566000000E+00 0. -1.
         22    1    1    0    0    0  0.26105546573E+02 -0.67344438762E+01 -0.98563956971E+01  0.28705414687E+02  0.00000000000E+00 0. -1.
</event>
<event>
 5    1  0.6835419E-004  0.9118800E+02  0.7818608E-02  0.1130116E+00
         25   -1    0    0    0    0  0.00000000000E+00  0.00000000000E+00  0.99999998245E-14  0.12500000000E+03  0.12500000000E+03 0.  0.
        -13    1    3    3    0    0 -0.31490295125E+02 -0.28882829145E+02  0.26943095134E+02  0.50515324862E+02  0.10566000000E+00 0.  1.
         23    2    1    0    0    0 -0.14163477914E+02  0.12106415926E+02  0.23301198628E+02  0.95165200341E+02  0.90367583155E+02 0.  0.
         13    1    3    3    0    0  0.17326817210E+02  0.40989245071E+02 -0.36418965059E+01  0.44649875480E+02  0.10566000000E+00 0. -1.
         22    1    1    0    0    0  0.14163477914E+02 -0.12106415926E+02 -0.23301198628E+02  0.29834799659E+02  0.00000000000E+00 0.  1.
</event>
<event>
 5    1  0.6835419E-004  0.9118800E+02  0.7818608E-02  0.1130116E+00
         25   -1    0    0    0    0  0.00000000000E+00  0.00000000000E+00  0.99999998245E-14  0.12500000000E+03  0.12500000000E+03 0.  0.
        -13    1    3    3    0    0 -0.16975537797E+02 -0.87088109049E+01  0.27138214022E+02  0.33173876698E+02  0.10566000000E+00 0. -1.
         23    2    1    0    0    0  0.22383420463E+02  0.11986761363E+02 -0.15885981166E+02  0.95048967343E+02  0.90206661815E+02 0.  0.
         13    1    3    3    0    0  0.39358958260E+02  0.20695572268E+02 -0.43024195188E+02  0.61875090645E+02  0.10566000000E+00 0.  1.
         22    1    1    0    0    0 -0.22383420463E+02 -0.11986761363E+02  0.15885981166E+02  0.29951032657E+02  0.00000000000E+00 0.  1.
</event>
<event>
 5    1  0.6835419E-004  0.9118800E+02  0.7818608E-02  0.1130116E+00
         25   -1    0    0    0    0  0.00000000000E+00  0.00000000000E+00  0.99999998245E-14  0.12500000000E+03  0.12500000000E+03 0.  0.
        -13    1    3    3    0    0 -0.45594910985E+02  0.25526775581E+02  0.12569002974E+02  0.53744796763E+02  0.10566000000E+00 0.  1.
         23    2    1    0    0    0 -0.26365488064E+02 -0.86210670762E+01 -0.52044909904E+01  0.96776809449E+02  0.92569986293E+02 0.  0.
         13    1    3    3    0    0  0.19229422921E+02 -0.34147842657E+02 -0.17773493965E+02  0.43032012686E+02  0.10566000000E+00 0. -1.
         22    1    1    0    0    0  0.26365488064E+02  0.86210670762E+01  0.52044909904E+01  0.28223190551E+02  0.00000000000E+00 0.  1.
</event>
<event>
 5    1  0.6835419E-004  0.9118800E+02  0.7818608E-02  0.1130116E+00
         25   -1    0    0    0    0  0.00000000000E+00  0.00000000000E+00  0.99999998245E-14  0.12500000000E+03  0.12500000000E+03 0.  0.
        -13    1    3    3    0    0 -0.21339745807E+02 -0.16553011383E+02 -0.19120259748E+02  0.33090518790E+02  0.10566000000E+00 0. -1.
         23    2    1    0    0    0 -0.72538262631E+00  0.32282179694E+02  0.66520587896E+01  0.92031603134E+02  0.85923808014E+02 0.  0.
         13    1    3    3    0    0  0.20614363180E+02  0.48835191077E+02  0.25772318538E+02  0.58941084344E+02  0.10566000000E+00 0.  1.
         22    1    1    0    0    0  0.72538262631E+00 -0.32282179694E+02 -0.66520587896E+01  0.32968396866E+02  0.00000000000E+00 0.  1.
</event>
<event>
 5    1  0.6835419E-004  0.9118800E+02  0.7818608E-02  0.1130116E+00
         25   -1    0    0    0    0  0.00000000000E+00  0.00000000000E+00  0.99999998245E-14  0.12500000000E+03  0.12500000000E+03 0.  0.
        -13    1    3    3    0    0 -0.15559486329E+02  0.37177071052E+02 -0.27347931058E+02  0.48704750529E+02  0.10566000000E+00 0. -1.
         23    2    1    0    0    0 -0.43167983514E+00  0.24314852498E+02  0.15659966920E+02  0.96075391732E+02  0.91617945475E+02 0.  0.
         13    1    3    3    0    0  0.15127806494E+02 -0.12862218554E+02  0.43007897979E+02  0.47370641204E+02  0.10566000000E+00 0.  1.
         22    1    1    0    0    0  0.43167983514E+00 -0.24314852498E+02 -0.15659966920E+02  0.28924608268E+02  0.00000000000E+00 0.  1.
</event>
<event>
 5    1  0.6835419E-004  0.9118800E+02  0.7818608E-02  0.1130116E+00
         25   -1    0    0    0    0  0.00000000000E+00  0.00000000000E+00  0.99999998245E-14  0.12500000000E+03  0.12500000000E+03 0.  0.
        -13    1    3    3    0    0 -0.38656314079E+02  0.34079609179E+02  0.32629538235E+02  0.60995313832E+02  0.10566000000E+00 0.  1.
         23    2    1    0    0    0 -0.17823193821E+02  0.21611867547E+02  0.73651622232E+01  0.96034767886E+02  0.91562503086E+02 0.  0.
         13    1    3    3    0    0  0.20833120258E+02 -0.12467741632E+02 -0.25264376012E+02  0.35039454054E+02  0.10566000000E+00 0. -1.
         22    1    1    0    0    0  0.17823193821E+02 -0.21611867547E+02 -0.73651622232E+01  0.28965232114E+02  0.00000000000E+00 0.  1.
</event>
<event>
 5    1  0.6835419E-004  0.9118800E+02  0.7818608E-02  0.1130116E+00
         25   -1    0    0    0    0  0.00000000000E+00  0.00000000000E+00  0.99999998245E-14  0.12500000000E+03  0.12500000000E+03 0.  0.
        -13    1    3    3    0    0  0.10264464792E+02 -0.93555210758E+01  0.32938288131E+02  0.35746706157E+02  0.10566000000E+00 0.  1.
         23    2    1    0    0    0  0.12672706042E+02 -0.20718978357E+00 -0.26336864478E+02  0.95772088057E+02  0.91203190811E+02 0.  0.
         13    1    3    3    0    0  0.24082412505E+01  0.91483312922E+01 -0.59275152609E+02  0.60025381899E+02  0.10566000000E+00 0. -1.
         22    1    1    0    0    0 -0.12672706042E+02  0.20718978357E+00  0.26336864478E+02  0.29227911943E+02  0.00000000000E+00 0. -1.
</event>
<event>
 5    1  0.6835419E-004  0.9118800E+02  0.7818608E-02  0.1130116E+00
         25   -1    0    0    0    0  0.00000000000E+00  0.00000000000E+00  0.99999998245E-14  0.12500000000E+03  0.12500000000E+03 0.  0.
        -13    1    3    3    0    0 -0.27380807225E+02  0.26470932655E+02  0.94270028265E+01  0.39233893845E+02  0.10566000000E+00 0. -1.
         23    2    1    0    0    0  0.26228634569E+02  0.69730605387E+01  0.93982664120E+01  0.96279062408E+02  0.91895405772E+02 0.  0.
         13    1    3    3    0    0  0.53609441794E+02 -0.19497872116E+02 -0.28736414523E-01  0.57045168563E+02  0.10566000000E+00 0.  1.
         22    1    1    0    0    0 -0.26228634569E+02 -0.69730605387E+01 -0.93982664120E+01  0.28720937592E+02  0.00000000000E+00 0.  1.
</event>
<event>
 5    1  0.6835419E-004  0.9118800E+02  0.7818608E-02  0.1130116E+00
         25   -1    0    0    0    0  0.00000000000E+00  0.00000000000E+00  0.99999998245E-14  0.12500000000E+03  0.12500000000E+03 0.  0.
        -13    1    3    3    0    0 -0.17554369719E+02 -0.22798667096E+02 -0.38666934775E+02  0.48198320786E+02  0.10566000000E+00 0.  1.
         23    2    1    0    0    0 -0.23115846072E+02 -0.13417762252E+02  0.87678933945E+01  0.96870751200E+02  0.92696751831E+02 0.  0.
         13    1    3    3    0    0 -0.55614763525E+01  0.93809048443E+01  0.47434828170E+02  0.48672430414E+02  0.10566000000E+00 0. -1.
         22    1    1    0    0    0  0.23115846072E+02  0.13417762252E+02 -0.87678933945E+01  0.28129248800E+02  0.00000000000E+00 0.  1.
</event>
<event>
 5    1  0.6835419E-004  0.9118800E+02  0.7818608E-02  0.1130116E+00
         25   -1    0    0    0    0  0.00000000000E+00  0.00000000000E+00  0.99999998245E-14  0.12500000000E+03  0.12500000000E+03 0.  0.
        -13    1    3    3    0    0 -0.79395085261E+01 -0.27135711890E+02 -0.52914447153E+02  0.59994437550E+02  0.10566000000E+00 0. -1.
         23    2    1    0    0    0  0.42578913367E+01  0.14919819830E+01 -0.16502573312E+02  0.10789179803E+03  0.10652675489E+03 0.  0.
         13    1    3    3    0    0  0.12197399863E+02  0.28627693873E+02  0.36411873841E+02  0.47897360476E+02  0.10566000000E+00 0.  1.
         22    1    1    0    0    0 -0.42578913367E+01 -0.14919819830E+01  0.16502573312E+02  0.17108201974E+02  0.00000000000E+00 0. -1.
</event>
<event>
 5    1  0.6835419E-004  0.9118800E+02  0.7818608E-02  0.1130116E+00
         25   -1    0    0    0    0  0.00000000000E+00  0.00000000000E+00  0.99999998245E-14  0.12500000000E+03  0.12500000000E+03 0.  0.
        -13    1    3    3    0    0  0.37483737366E+02 -0.35890699384E+02  0.21458731880E+01  0.51940242635E+02  0.10566000000E+00 0.  1.
         23    2    1    0    0    0  0.27123471717E+02  0.56569441225E+01 -0.84147074778E+01  0.96043290299E+02  0.91574137041E+02 0.  0.
         13    1    3    3    0    0 -0.10360265649E+02  0.41547643507E+02 -0.10560580666E+02  0.44103047665E+02  0.10566000000E+00 0. -1.
         22    1    1    0    0    0 -0.27123471717E+02 -0.56569441225E+01  0.84147074778E+01  0.28956709701E+02  0.00000000000E+00 0. -1.
</event>
<event>
 5    1  0.6835419E-004  0.9118800E+02  0.7818608E-02  0.1130116E+00
         25   -1    0    0    0    0  0.00000000000E+00  0.00000000000E+00  0.99999998245E-14  0.12500000000E+03  0.12500000000E+03 0.  0.
        -13    1    3    3    0    0  0.17239917160E+02 -0.47561108577E+02 -0.14543025496E+02  0.52638242252E+02  0.10566000000E+00 0. -1.
         23    2    1    0    0    0 -0.14566668434E+02 -0.25236641713E+02  0.38089524411E+01  0.95613199683E+02  0.90985163190E+02 0.  0.
         13    1    3    3    0    0 -0.31806585594E+02  0.22324466864E+02  0.18351977937E+02  0.42974957431E+02  0.10566000000E+00 0.  1.
         22    1    1    0    0    0  0.14566668434E+02  0.25236641713E+02 -0.38089524411E+01  0.29386800317E+02  0.00000000000E+00 0. -1.
</event>
<event>
 5    1  0.6835419E-004  0.9118800E+02  0.7818608E-02  0.1130116E+00
         25   -1    0    0    0    0  0.00000000000E+00  0.00000000000E+00  0.99999998245E-14  0.12500000000E+03  0.12500000000E+03 0.  0.
        -13    1    3    3    0    0 -0.30715541952E+02  0.74021522902E+01 -0.19728479160E+02  0.37248629907E+02  0.10566000000E+00 0. -1.
         23    2    1    0    0    0  0.14293789308E+01 -0.13150956475E+02  0.25410460289E+02  0.96352447357E+02  0.91995172913E+02 0.  0.
         13    1    3    3    0    0  0.32144920883E+02 -0.20553108765E+02  0.45138939449E+02  0.59103817450E+02  0.10566000000E+00 0.  1.
         22    1    1    0    0    0 -0.14293789308E+01  0.13150956475E+02 -0.25410460289E+02  0.28647552643E+02  0.00000000000E+00 0.  1.
</event>
<event>
 5    1  0.6835419E-004  0.9118800E+02  0.7818608E-02  0.1130116E+00
         25   -1    0    0    0    0  0.00000000000E+00  0.00000000000E+00  0.99999998245E-14  0.12500000000E+03  0.12500000000E+03 0.  0.
        -13    1    3    3    0    0 -0.12318219992E+02  0.26840070459E+02 -0.15504219195E+02  0.33354458516E+02  0.10566000000E+00 0.  1.
         23    2    1    0    0    0  0.65074498557E+01 -0.23551326190E+02  0.16094394249E+02  0.95741814903E+02  0.91161690012E+02 0.  0.
         13    1    3    3    0    0  0.18825669848E+02 -0.50391396649E+02  0.31598613444E+02  0.62387356387E+02  0.10566000000E+00 0. -1.
         22    1    1    0    0    0 -0.65074498557E+01  0.23551326190E+02 -0.16094394249E+02  0.29258185097E+02  0.00000000000E+00 0. -1.
</event>
<event>
 5    1  0.6835419E-004  0.9118800E+02  0.7818608E-02  0.1130116E+00
         25   -1    0    0    0    0  0.00000000000E+00  0.00000000000E+00  0.99999998245E-14  0.12500000000E+03  0.12500000000E+03 0.  0.
        -13    1    3    3    0    0 -0.45651472890E+00 -0.33539624429E+02 -0.56770171451E+01  0.34019913290E+02  0.10566000000E+00 0.  1.
         23    2    1    0    0    0  0.22968113251E+02  0.17288290344E+02  0.13580015312E+02  0.93206352440E+02  0.87616140693E+02 0.  0.
         13    1    3    3    0    0  0.23424627979E+02  0.50827914773E+02  0.19257032458E+02  0.59186439150E+02  0.10566000000E+00 0. -1.
         22    1    1    0    0    0 -0.22968113251E+02 -0.17288290344E+02 -0.13580015312E+02  0.31793647560E+02  0.00000000000E+00 0. -1.
</event>
<event>
 5    1  0.6835419E-004  0.9118800E+02  0.7818608E-02  0.1130116E+00
         25   -1    0    0    0    0  0.00000000000E+00  0.00000000000E+00  0.99999998245E-14  0.12500000000E+03  0.12500000000E+03 0.  0.
        -13    1    3    3    0    0 -0.24303606171E+00  0.31811704366E+02 -0.42585830360E+02  0.53156445636E+02  0.10566000000E+00 0. -1.
         23    2    1    0    0    0  0.14980686057E+02 -0.36599034520E+01 -0.25118734277E+02  0.95525152083E+02  0.90864118445E+02 0.  0.
         13    1    3    3    0    0  0.15223722119E+02 -0.35471607818E+02  0.17467096082E+02  0.42368706447E+02  0.10566000000E+00 0.  1.
         22    1    1    0    0    0 -0.14980686057E+02  0.36599034520E+01  0.25118734277E+02  0.29474847917E+02  0.00000000000E+00 0. -1.
</event>
<event>
 5    1  0.6835419E-004  0.9118800E+02  0.7818608E-02  0.1130116E+00
         25   -1    0    0    0    0  0.00000000000E+00  0.00000000000E+00  0.99999998245E-14  0.12500000000E+03  0.12500000000E+03 0.  0.
        -13    1    3    3    0    0  0.47020496367E+02  0.30234828521E+00  0.95947226951E+01  0.47990502818E+02  0.10566000000E+00 0.  1.
         23    2    1    0    0    0  0.64093172266E+01 -0.25861703137E+02  0.10635877646E+02  0.96311519215E+02  0.91939544288E+02 0.  0.
         13    1    3    3    0    0 -0.40611179141E+02 -0.26164051422E+02  0.10411549505E+01  0.48321016397E+02  0.10566000000E+00 0. -1.
         22    1    1    0    0    0 -0.64093172266E+01  0.25861703137E+02 -0.10635877646E+02  0.28688480785E+02  0.00000000000E+00 0. -1.
</event>
<event>
 5    1  0.6835419E-004  0.9118800E+02  0.7818608E-02  0.1130116E+00
         25   -1    0    0    0    0  0.00000000000E+00  0.00000000000E+00  0.99999998245E-14  0.12500000000E+03  0.12500000000E+03 0.  0.
        -13    1    3    3    0    0  0.26907944780E+02  0.18099935033E+02  0.28250263838E+02  0.43008530682E+02  0.10566000000E+00 0. -1.
         23    2    1    0    0    0  0.25290987774E+02  0.37986509681E+02 -0.20843666601E+01  0.79316813107E+02  0.64839827859E+02 0.  0.
         13    1    3    3    0    0 -0.16169570059E+01  0.19886574648E+02 -0.30334630498E+02  0.36308282425E+02  0.10566000000E+00 0.  1.
         22    1    1    0    0    0 -0.25290987774E+02 -0.37986509681E+02  0.20843666601E+01  0.45683186893E+02  0.00000000000E+00 0. -1.
</event>
<event>
 5    1  0.6835419E-004  0.9118800E+02  0.7818608E-02  0.1130116E+00
         25   -1    0    0    0    0  0.00000000000E+00  0.00000000000E+00  0.99999998245E-14  0.12500000000E+03  0.12500000000E+03 0.  0.
        -13    1    3    3    0    0  0.15442828220E+02 -0.31557633693E+02  0.27087147457E+01  0.35237955209E+02  0.10566000000E+00 0. -1.
         23    2    1    0    0    0 -0.28647136581E+02  0.86916596610E+01 -0.94515918791E+00  0.95048427289E+02  0.90205913455E+02 0.  0.
         13    1    3    3    0    0 -0.44089964801E+02  0.40249293354E+02 -0.36538739336E+01  0.59810472080E+02  0.10566000000E+00 0.  1.
         22    1    1    0    0    0  0.28647136581E+02 -0.86916596610E+01  0.94515918791E+00  0.29951572711E+02  0.00000000000E+00 0.  1.
</event>
<event>
 4    1  0.6835419E-004  0.9118800E+02  0.7818608E-02  0.1130116E+00
         25   -1    0    0    0    0  0.00000000000E+00  0.00000000000E+00  0.99999998245E-14  0.12500000000E+03  0.12500000000E+03 0.  0.
        -13    1    1    0    0    0 -0.14488904937E+01  0.80692745040E+01  0.40456815388E+01  0.91428211091E+01  0.10566000000E+00 0.  1.
         13    1    1    0    0    0 -0.49008721774E+01 -0.57527903726E+02  0.19193703233E+02  0.60843139819E+02  0.10566000000E+00 0. -1.
         22    1    1    0    0    0  0.63497626710E+01  0.49458629222E+02 -0.23239384772E+02  0.55014039072E+02  0.00000000000E+00 0. -1.
</event>
<event>
 5    1  0.6835419E-004  0.9118800E+02  0.7818608E-02  0.1130116E+00
         25   -1    0    0    0    0  0.00000000000E+00  0.00000000000E+00  0.99999998245E-14  0.12500000000E+03  0.12500000000E+03 0.  0.
        -13    1    3    3    0    0  0.27424965051E+02  0.20704172319E+02  0.29042332703E+02  0.44991773830E+02  0.10566000000E+00 0. -1.
         23    2    1    0    0    0 -0.15581188574E+02 -0.82799678886E+01  0.21159565746E+02  0.97448983173E+02  0.93473235706E+02 0.  0.
         13    1    3    3    0    0 -0.43006153625E+02 -0.28984140208E+02 -0.78827669565E+01  0.52457209344E+02  0.10566000000E+00 0.  1.
         22    1    1    0    0    0  0.15581188574E+02  0.82799678886E+01 -0.21159565746E+02  0.27551016827E+02  0.00000000000E+00 0.  1.
</event>
<event>
 5    1  0.6835419E-004  0.9118800E+02  0.7818608E-02  0.1130116E+00
         25   -1    0    0    0    0  0.00000000000E+00  0.00000000000E+00  0.99999998245E-14  0.12500000000E+03  0.12500000000E+03 0.  0.
        -13    1    3    3    0    0 -0.40387931506E+01 -0.41004727289E+02  0.23491148419E+02  0.47429365674E+02  0.10566000000E+00 0. -1.
         23    2    1    0    0    0  0.16441900244E+02  0.23468463553E+01  0.24517709553E+02  0.95386458280E+02  0.90673119335E+02 0.  0.
         13    1    3    3    0    0  0.20480693395E+02  0.43351573645E+02  0.10265611342E+01  0.47957092606E+02  0.10566000000E+00 0.  1.
         22    1    1    0    0    0 -0.16441900244E+02 -0.23468463553E+01 -0.24517709553E+02  0.29613541720E+02  0.00000000000E+00 0.  1.
</event>
<event>
 5    1  0.6835419E-004  0.9118800E+02  0.7818608E-02  0.1130116E+00
         25   -1    0    0    0    0  0.00000000000E+00  0.00000000000E+00  0.99999998245E-14  0.12500000000E+03  0.12500000000E+03 0.  0.
        -13    1    3    3    0    0 -0.25849466678E+02 -0.45354864739E+02  0.33429760989E+02  0.61990473194E+02  0.10566000000E+00 0. -1.
         23    2    1    0    0    0 -0.17272513823E+02 -0.19077704364E+02  0.15006263512E+02  0.95209288660E+02  0.90428547290E+02 0.  0.
         13    1    3    3    0    0  0.85769528547E+01  0.26277160375E+02 -0.18423497477E+02  0.33218815466E+02  0.10566000000E+00 0.  1.
         22    1    1    0    0    0  0.17272513823E+02  0.19077704364E+02 -0.15006263512E+02  0.29790711340E+02  0.00000000000E+00 0. -1.
</event>
<event>
 5    1  0.6835419E-004  0.9118800E+02  0.7818608E-02  0.1130116E+00
         25   -1    0    0    0    0  0.00000000000E+00  0.00000000000E+00  0.99999998245E-14  0.12500000000E+03  0.12500000000E+03 0.  0.
        -13    1    3    3    0    0 -0.22302441296E+02 -0.55419296582E+02 -0.10126771071E+02  0.60590923229E+02  0.10566000000E+00 0. -1.
         23    2    1    0    0    0 -0.15015010327E+02 -0.11967896038E+02 -0.61944963277E+01  0.10482444907E+03  0.10286453357E+03 0.  0.
         13    1    3    3    0    0  0.72874309684E+01  0.43451400544E+02  0.39322747431E+01  0.44233525838E+02  0.10566000000E+00 0.  1.
         22    1    1    0    0    0  0.15015010327E+02  0.11967896038E+02  0.61944963277E+01  0.20175550933E+02  0.00000000000E+00 0. -1.
</event>
<event>
 5    1  0.6835419E-004  0.9118800E+02  0.7818608E-02  0.1130116E+00
         25   -1    0    0    0    0  0.00000000000E+00  0.00000000000E+00  0.99999998245E-14  0.12500000000E+03  0.12500000000E+03 0.  0.
        -13    1    3    3    0    0  0.10637236079E+02 -0.26248622115E+02 -0.23223778136E+02  0.36626438392E+02  0.10566000000E+00 0.  1.
         23    2    1    0    0    0  0.14588954696E+02  0.17394017274E+02  0.17412235932E+02  0.96389243348E+02  0.92045156510E+02 0.  0.
         13    1    3    3    0    0  0.39517186167E+01  0.43642639389E+02  0.40636014068E+02  0.59762804956E+02  0.10566000000E+00 0. -1.
         22    1    1    0    0    0 -0.14588954696E+02 -0.17394017274E+02 -0.17412235932E+02  0.28610756652E+02  0.00000000000E+00 0. -1.
</event>
<event>
 5    1  0.6835419E-004  0.9118800E+02  0.7818608E-02  0.1130116E+00
         25   -1    0    0    0    0  0.00000000000E+00  0.00000000000E+00  0.99999998245E-14  0.12500000000E+03  0.12500000000E+03 0.  0.
        -13    1    3    3    0    0 -0.37692116540E+02  0.24554481419E+01 -0.42477309885E+02  0.56842395217E+02  0.10566000000E+00 0. -1.
         23    2    1    0    0    0 -0.18691278182E+02  0.19550421704E+02 -0.16340208064E+02  0.93399600185E+02  0.87891410537E+02 0.  0.
         13    1    3    3    0    0  0.19000838358E+02  0.17094973563E+02  0.26137101821E+02  0.36557204968E+02  0.10566000000E+00 0.  1.
         22    1    1    0    0    0  0.18691278182E+02 -0.19550421704E+02  0.16340208064E+02  0.31600399815E+02  0.00000000000E+00 0. -1.
</event>
<event>
 5    1  0.6835419E-004  0.9118800E+02  0.7818608E-02  0.1130116E+00
         25   -1    0    0    0    0  0.00000000000E+00  0.00000000000E+00  0.99999998245E-14  0.12500000000E+03  0.12500000000E+03 0.  0.
        -13    1    3    3    0    0 -0.35552738305E+02 -0.61892684295E+01  0.48465885396E+02  0.60425635751E+02  0.10566000000E+00 0.  1.
         23    2    1    0    0    0 -0.89913313584E+01 -0.11017348740E+02  0.25199604070E+02  0.96064795522E+02  0.91603487273E+02 0.  0.
         13    1    3    3    0    0  0.26561406946E+02 -0.48280803109E+01 -0.23266281326E+02  0.35639159771E+02  0.10566000000E+00 0. -1.
         22    1    1    0    0    0  0.89913313584E+01  0.11017348740E+02 -0.25199604070E+02  0.28935204478E+02  0.00000000000E+00 0.  1.
</event>
<event>
 5    1  0.6835419E-004  0.9118800E+02  0.7818608E-02  0.1130116E+00
         25   -1    0    0    0    0  0.00000000000E+00  0.00000000000E+00  0.99999998245E-14  0.12500000000E+03  0.12500000000E+03 0.  0.
        -13    1    3    3    0    0 -0.18710937627E+01  0.52547391418E+02 -0.47025991956E+01  0.52790670955E+02  0.10566000000E+00 0. -1.
         23    2    1    0    0    0  0.51916162640E+01  0.20831091625E+02  0.21562989603E+02  0.94572220285E+02  0.89543593134E+02 0.  0.
         13    1    3    3    0    0  0.70627100267E+01 -0.31716299793E+02  0.26265588799E+02  0.41781549330E+02  0.10566000000E+00 0.  1.
         22    1    1    0    0    0 -0.51916162640E+01 -0.20831091625E+02 -0.21562989603E+02  0.30427779715E+02  0.00000000000E+00 0.  1.
</event>
<event>
 5    1  0.6835419E-004  0.9118800E+02  0.7818608E-02  0.1130116E+00
         25   -1    0    0    0    0  0.00000000000E+00  0.00000000000E+00  0.99999998245E-14  0.12500000000E+03  0.12500000000E+03 0.  0.
        -13    1    3    3    0    0  0.15832701190E+02 -0.21924588407E+02 -0.27988741249E+02  0.38919696871E+02  0.10566000000E+00 0. -1.
         23    2    1    0    0    0 -0.27700395622E+02 -0.10573790872E+02  0.52935857597E+01  0.94881251334E+02  0.89973956418E+02 0.  0.
         13    1    3    3    0    0 -0.43533096812E+02  0.11350797535E+02  0.33282327009E+02  0.55961554463E+02  0.10566000000E+00 0.  1.
         22    1    1    0    0    0  0.27700395622E+02  0.10573790872E+02 -0.52935857597E+01  0.30118748666E+02  0.00000000000E+00 0.  1.
</event>
<event>
 5    1  0.6835419E-004  0.9118800E+02  0.7818608E-02  0.1130116E+00
         25   -1    0    0    0    0  0.00000000000E+00  0.00000000000E+00  0.99999998245E-14  0.12500000000E+03  0.12500000000E+03 0.  0.
        -13    1    3    3    0    0 -0.46791415239E+01  0.14986257701E+02 -0.51743659931E+02  0.54073096753E+02  0.10566000000E+00 0.  1.
         23    2    1    0    0    0 -0.15533710433E+02  0.21715717184E+02 -0.12168287234E+02  0.95658293389E+02  0.91047094118E+02 0.  0.
         13    1    3    3    0    0 -0.10854568910E+02  0.67294594830E+01  0.39575372697E+02  0.41585196636E+02  0.10566000000E+00 0. -1.
         22    1    1    0    0    0  0.15533710433E+02 -0.21715717184E+02  0.12168287234E+02  0.29341706611E+02  0.00000000000E+00 0.  1.
</event>
<event>
 5    1  0.6835419E-004  0.9118800E+02  0.7818608E-02  0.1130116E+00
         25   -1    0    0    0    0  0.00000000000E+00  0.00000000000E+00  0.99999998245E-14  0.12500000000E+03  0.12500000000E+03 0.  0.
        -13    1    3    3    0    0  0.27076343000E+02 -0.60521670632E+01  0.33723277166E+02  0.43669527857E+02  0.10566000000E+00 0.  1.
         23    2    1    0    0    0 -0.11068891056E+02 -0.26309250020E+02  0.38178245672E+01  0.96202903441E+02  0.91791752681E+02 0.  0.
         13    1    3    3    0    0 -0.38145234055E+02 -0.20257082956E+02 -0.29905452599E+02  0.52533375584E+02  0.10566000000E+00 0. -1.
         22    1    1    0    0    0  0.11068891056E+02  0.26309250020E+02 -0.38178245672E+01  0.28797096559E+02  0.00000000000E+00 0. -1.
</event>
<event>
 5    1  0.6835419E-004  0.9118800E+02  0.7818608E-02  0.1130116E+00
         25   -1    0    0    0    0  0.00000000000E+00  0.00000000000E+00  0.99999998245E-14  0.12500000000E+03  0.12500000000E+03 0.  0.
        -13    1    3    3    0    0  0.22495890146E+02 -0.23224025960E+02  0.28608693549E+02  0.43172780381E+02  0.10566000000E+00 0.  1.
         23    2    1    0    0    0 -0.19939549118E+01 -0.26244803625E+02 -0.16033345579E+02  0.94180627132E+02  0.88995262700E+02 0.  0.
         13    1    3    3    0    0 -0.24489845058E+02 -0.30207776657E+01 -0.44642039127E+02  0.51007846751E+02  0.10566000000E+00 0. -1.
         22    1    1    0    0    0  0.19939549118E+01  0.26244803625E+02  0.16033345579E+02  0.30819372868E+02  0.00000000000E+00 0.  1.
</event>
<event>
 5    1  0.6835419E-004  0.9118800E+02  0.7818608E-02  0.1130116E+00
         25   -1    0    0    0    0  0.00000000000E+00  0.00000000000E+00  0.99999998245E-14  0.12500000000E+03  0.12500000000E+03 0.  0.
        -13    1    3    3    0    0  0.23320027455E+02  0.37260065757E+02  0.42048505588E+02  0.60829467915E+02  0.10566000000E+00 0. -1.
         23    2    1    0    0    0  0.27277620572E+01  0.18493528138E+02  0.25984829668E+02  0.92989647897E+02  0.87306425733E+02 0.  0.
         13    1    3    3    0    0 -0.20592265398E+02 -0.18766537619E+02 -0.16063675919E+02  0.32160179982E+02  0.10566000000E+00 0.  1.
         22    1    1    0    0    0 -0.27277620572E+01 -0.18493528138E+02 -0.25984829668E+02  0.32010352103E+02  0.00000000000E+00 0. -1.
</event>
<event>
 5    1  0.6835419E-004  0.9118800E+02  0.7818608E-02  0.1130116E+00
         25   -1    0    0    0    0  0.00000000000E+00  0.00000000000E+00  0.99999998245E-14  0.12500000000E+03  0.12500000000E+03 0.  0.
        -13    1    3    3    0    0  0.49731571707E+02 -0.18541334075E+02 -0.29111788115E+02  0.60535259684E+02  0.10566000000E+00 0.  1.
         23    2    1    0    0    0  0.28532421105E+02 -0.80775024080E+01 -0.39108694221E+01  0.95089466756E+02  0.90262764688E+02 0.  0.
         13    1    3    3    0    0 -0.21199150601E+02  0.10463831667E+02  0.25200918693E+02  0.34554207072E+02  0.10566000000E+00 0. -1.
         22    1    1    0    0    0 -0.28532421105E+02  0.80775024080E+01  0.39108694221E+01  0.29910533244E+02  0.00000000000E+00 0.  1.
</event>
<event>
 5    1  0.6835419E-004  0.9118800E+02  0.7818608E-02  0.1130116E+00
         25   -1    0    0    0    0  0.00000000000E+00  0.00000000000E+00  0.99999998245E-14  0.12500000000E+03  0.12500000000E+03 0.  0.
        -13    1    3    3    0    0 -0.18345371257E+02 -0.53608552928E+02  0.48227188337E+01  0.56865625597E+02  0.10566000000E+00 0. -1.
         23    2    1    0    0    0  0.88724326418E+01 -0.26923985813E+02  0.91129361813E+01  0.95223051216E+02  0.90447569365E+02 0.  0.
         13    1    3    3    0    0  0.27217803899E+02  0.26684567115E+02  0.42902173476E+01  0.38357425619E+02  0.10566000000E+00 0.  1.
         22    1    1    0    0    0 -0.88724326418E+01  0.26923985813E+02 -0.91129361813E+01  0.29776948784E+02  0.00000000000E+00 0. -1.
</event>
<event>
 5    1  0.6835419E-004  0.9118800E+02  0.7818608E-02  0.1130116E+00
         25   -1    0    0    0    0  0.00000000000E+00  0.00000000000E+00  0.99999998245E-14  0.12500000000E+03  0.12500000000E+03 0.  0.
        -13    1    3    3    0    0 -0.44464288477E+01  0.39759136493E+02  0.24339977110E+02  0.46829534633E+02  0.10566000000E+00 0.  1.
         23    2    1    0    0    0 -0.12184467334E+02 -0.10249898361E+02  0.22459966373E+02  0.97468713251E+02  0.93499616644E+02 0.  0.
         13    1    3    3    0    0 -0.77380384858E+01 -0.50009034854E+02 -0.18800107368E+01  0.50639178618E+02  0.10566000000E+00 0. -1.
         22    1    1    0    0    0  0.12184467334E+02  0.10249898361E+02 -0.22459966373E+02  0.27531286749E+02  0.00000000000E+00 0. -1.
</event>
<event>
 5    1  0.6835419E-004  0.9118800E+02  0.7818608E-02  0.1130116E+00
         25   -1    0    0    0    0  0.00000000000E+00  0.00000000000E+00  0.99999998245E-14  0.12500000000E+03  0.12500000000E+03 0.  0.
        -13    1    3    3    0    0 -0.47734654710E+02  0.19907926107E+02 -0.94643151276E+01  0.52578581258E+02  0.10566000000E+00 0. -1.
         23    2    1    0    0    0 -0.12645814411E+02 -0.19134520120E+01 -0.25156662472E+02  0.96778809603E+02  0.92572687120E+02 0.  0.
         13    1    3    3    0    0  0.35088840299E+02 -0.21821378119E+02 -0.15692347344E+02  0.44200228345E+02  0.10566000000E+00 0.  1.
         22    1    1    0    0    0  0.12645814411E+02  0.19134520120E+01  0.25156662472E+02  0.28221190397E+02  0.00000000000E+00 0. -1.
</event>
<event>
 5    1  0.6835419E-004  0.9118800E+02  0.7818608E-02  0.1130116E+00
         25   -1    0    0    0    0  0.00000000000E+00  0.00000000000E+00  0.99999998245E-14  0.12500000000E+03  0.12500000000E+03 0.  0.
        -13    1    3    3    0    0 -0.42337719077E+02  0.32771224820E+02 -0.94113513167E+01  0.54360098698E+02  0.10566000000E+00 0. -1.
         23    2    1    0    0    0 -0.27640852291E+02 -0.33750881692E+01 -0.14319728659E+02  0.93687661148E+02  0.88300143188E+02 0.  0.
         13    1    3    3    0    0  0.14696866786E+02 -0.36146312990E+02 -0.49083773418E+01  0.39327562450E+02  0.10566000000E+00 0.  1.
         22    1    1    0    0    0  0.27640852291E+02  0.33750881692E+01  0.14319728659E+02  0.31312338852E+02  0.00000000000E+00 0. -1.
</event>
<event>
 5    1  0.6835419E-004  0.9118800E+02  0.7818608E-02  0.1130116E+00
         25   -1    0    0    0    0  0.00000000000E+00  0.00000000000E+00  0.99999998245E-14  0.12500000000E+03  0.12500000000E+03 0.  0.
        -13    1    3    3    0    0 -0.25154076956E+02  0.34342508709E+02 -0.24528281929E+02  0.49130268373E+02  0.10566000000E+00 0.  1.
         23    2    1    0    0    0 -0.16580529880E+02 -0.11160562327E+02 -0.21666892359E+02  0.95522443333E+02  0.90860391993E+02 0.  0.
         13    1    3    3    0    0  0.85735470757E+01 -0.45503071037E+02  0.28613895692E+01  0.46392174960E+02  0.10566000000E+00 0. -1.
         22    1    1    0    0    0  0.16580529880E+02  0.11160562327E+02  0.21666892359E+02  0.29477556667E+02  0.00000000000E+00 0. -1.
</event>
<event>
 5    1  0.6835419E-004  0.9118800E+02  0.7818608E-02  0.1130116E+00
         25   -1    0    0    0    0  0.00000000000E+00  0.00000000000E+00  0.99999998245E-14  0.12500000000E+03  0.12500000000E+03 0.  0.
        -13    1    3    3    0    0  0.27489339367E+02 -0.11181259146E+02  0.24377028038E+02  0.38404882436E+02  0.10566000000E+00 0.  1.
         23    2    1    0    0    0  0.10774675504E+02  0.14708366603E+02 -0.23447315197E+02  0.95298042652E+02  0.90551149430E+02 0.  0.
         13    1    3    3    0    0 -0.16714663862E+02  0.25889625749E+02 -0.47824343235E+02  0.56893160216E+02  0.10566000000E+00 0. -1.
         22    1    1    0    0    0 -0.10774675504E+02 -0.14708366603E+02  0.23447315197E+02  0.29701957348E+02  0.00000000000E+00 0. -1.
</event>
<event>
 5    1  0.6835419E-004  0.9118800E+02  0.7818608E-02  0.1130116E+00
         25   -1    0    0    0    0  0.00000000000E+00  0.00000000000E+00  0.99999998245E-14  0.12500000000E+03  0.12500000000E+03 0.  0.
        -13    1    3    3    0    0  0.13901066450E+02 -0.26912561193E+02  0.16007509868E+02  0.34260431034E+02  0.10566000000E+00 0.  1.
         23    2    1    0    0    0 -0.25017374759E+02  0.12292577075E+02 -0.10088428574E+02  0.95356233672E+02  0.90631442767E+02 0.  0.
         13    1    3    3    0    0 -0.38918441210E+02  0.39205138268E+02 -0.26095938442E+02  0.61095802638E+02  0.10566000000E+00 0. -1.
         22    1    1    0    0    0  0.25017374759E+02 -0.12292577075E+02  0.10088428574E+02  0.29643766328E+02  0.00000000000E+00 0. -1.
</event>
<event>
 5    1  0.6835419E-004  0.9118800E+02  0.7818608E-02  0.1130116E+00
         25   -1    0    0    0    0  0.00000000000E+00  0.00000000000E+00  0.99999998245E-14  0.12500000000E+03  0.12500000000E+03 0.  0.
        -13    1    3    3    0    0  0.15976598234E+02  0.44106644444E+02 -0.35683854482E+02  0.58940617659E+02  0.10566000000E+00 0. -1.
         23    2    1    0    0    0  0.20904751574E+02  0.14239118145E+02 -0.15215094781E+02  0.95482882371E+02  0.90805950206E+02 0.  0.
         13    1    3    3    0    0  0.49281533396E+01 -0.29867526299E+02  0.20468759701E+02  0.36542264712E+02  0.10566000000E+00 0.  1.
         22    1    1    0    0    0 -0.20904751574E+02 -0.14239118145E+02  0.15215094781E+02  0.29517117629E+02  0.00000000000E+00 0. -1.
</event>
<event>
 5    1  0.6835419E-004  0.9118800E+02  0.7818608E-02  0.1130116E+00
         25   -1    0    0    0    0  0.00000000000E+00  0.00000000000E+00  0.99999998245E-14  0.12500000000E+03  0.12500000000E+03 0.  0.
        -13    1    3    3    0    0  0.18947582841E+02  0.33529336757E+01 -0.59141572748E+02  0.62193165628E+02  0.10566000000E+00 0.  1.
         23    2    1    0    0    0  0.92104100846E+01  0.60086456940E+01 -0.28647866287E+02  0.94313916512E+02  0.89182280348E+02 0.  0.
         13    1    3    3    0    0 -0.97371727560E+01  0.26557120183E+01  0.30493706460E+02  0.32120750884E+02  0.10566000000E+00 0. -1.
         22    1    1    0    0    0 -0.92104100846E+01 -0.60086456940E+01  0.28647866287E+02  0.30686083488E+02  0.00000000000E+00 0.  1.
</event>
<event>
 5    1  0.6835419E-004  0.9118800E+02  0.7818608E-02  0.1130116E+00
         25   -1    0    0    0    0  0.00000000000E+00  0.00000000000E+00  0.99999998245E-14  0.12500000000E+03  0.12500000000E+03 0.  0.
        -13    1    3    3    0    0  0.14166559779E+02 -0.44804137552E+02  0.21035773017E+01  0.47037627058E+02  0.10566000000E+00 0.  1.
         23    2    1    0    0    0 -0.15783725266E+02 -0.11939586567E+02  0.21701211348E+02  0.95629567850E+02  0.91007647825E+02 0.  0.
         13    1    3    3    0    0 -0.29950285045E+02  0.32864550985E+02  0.19597634047E+02  0.48591940792E+02  0.10566000000E+00 0. -1.
         22    1    1    0    0    0  0.15783725266E+02  0.11939586567E+02 -0.21701211348E+02  0.29370432150E+02  0.00000000000E+00 0. -1.
</event>
<event>
 5    1  0.6835419E-004  0.9118800E+02  0.7818608E-02  0.1130116E+00
         25   -1    0    0    0    0  0.00000000000E+00  0.00000000000E+00  0.99999998245E-14  0.12500000000E+03  0.12500000000E+03 0.  0.
        -13    1    3    3    0    0  0.64010486788E+01 -0.55439404446E+02 -0.11836006599E+02  0.57049129755E+02  0.10566000000E+00 0. -1.
         23    2    1    0    0    0 -0.34024834118E+01 -0.26333206383E+02  0.11937168694E+02  0.95887963860E+02  0.91361868222E+02 0.  0.
         13    1    3    3    0    0 -0.98035320906E+01  0.29106198063E+02  0.23773175293E+02  0.38838834106E+02  0.10566000000E+00 0.  1.
         22    1    1    0    0    0  0.34024834118E+01  0.26333206383E+02 -0.11937168694E+02  0.29112036140E+02  0.00000000000E+00 0. -1.
</event>
<event>
 5    1  0.6835419E-004  0.9118800E+02  0.7818608E-02  0.1130116E+00
         25   -1    0    0    0    0  0.00000000000E+00  0.00000000000E+00  0.99999998245E-14  0.12500000000E+03  0.12500000000E+03 0.  0.
        -13    1    3    3    0    0 -0.28050431428E+02  0.37407872163E+02 -0.18624632869E+02  0.50329551127E+02  0.10566000000E+00 0. -1.
         23    2    1    0    0    0 -0.10286156638E+02  0.15336482031E+02  0.19705375839E+02  0.97994175880E+02  0.94199490285E+02 0.  0.
         13    1    3    3    0    0  0.17764274790E+02 -0.22071390132E+02  0.38330008708E+02  0.47664624752E+02  0.10566000000E+00 0.  1.
         22    1    1    0    0    0  0.10286156638E+02 -0.15336482031E+02 -0.19705375839E+02  0.27005824120E+02  0.00000000000E+00 0.  1.
</event>
<event>
 5    1  0.6835419E-004  0.9118800E+02  0.7818608E-02  0.1130116E+00
         25   -1    0    0    0    0  0.00000000000E+00  0.00000000000E+00  0.99999998245E-14  0.12500000000E+03  0.12500000000E+03 0.  0.
        -13    1    3    3    0    0 -0.18893860299E+02  0.15873451535E+02  0.42469979895E+02  0.49118782323E+02  0.10566000000E+00 0.  1.
         23    2    1    0    0    0 -0.25174952349E+02 -0.13602124088E+02  0.72341608908E+01  0.95485103943E+02  0.90809008285E+02 0.  0.
         13    1    3    3    0    0 -0.62810920505E+01 -0.29475575623E+02 -0.35235819004E+02  0.46366321620E+02  0.10566000000E+00 0. -1.
         22    1    1    0    0    0  0.25174952349E+02  0.13602124088E+02 -0.72341608908E+01  0.29514896057E+02  0.00000000000E+00 0. -1.
</event>
<event>
 5    1  0.6835419E-004  0.9118800E+02  0.7818608E-02  0.1130116E+00
         25   -1    0    0    0    0  0.00000000000E+00  0.00000000000E+00  0.99999998245E-14  0.12500000000E+03  0.12500000000E+03 0.  0.
        -13    1    3    3    0    0  0.34126700264E+02 -0.74411062740E+01  0.13431962036E+02  0.37422326246E+02  0.10566000000E+00 0.  1.
         23    2    1    0    0    0 -0.18338879028E+02  0.14477098578E+02  0.19449203622E+02  0.94599796238E+02  0.89582080013E+02 0.  0.
         13    1    3    3    0    0 -0.52465579292E+02  0.21918204852E+02  0.60172415869E+01  0.57177469992E+02  0.10566000000E+00 0. -1.
         22    1    1    0    0    0  0.18338879028E+02 -0.14477098578E+02 -0.19449203622E+02  0.30400203762E+02  0.00000000000E+00 0. -1.
</event>
<event>
 5    1  0.6835419E-004  0.9118800E+02  0.7818608E-02  0.1130116E+00
         25   -1    0    0    0    0  0.00000000000E+00  0.00000000000E+00  0.99999998245E-14  0.12500000000E+03  0.12500000000E+03 0.  0.
        -13    1    3    3    0    0 -0.41347466392E+02 -0.14525175419E+02  0.17865127883E+02  0.47326183623E+02  0.10566000000E+00 0. -1.
         23    2    1    0    0    0 -0.19638295924E+01  0.12473874368E+02  0.26309758983E+02  0.95816827003E+02  0.91264487895E+02 0.  0.
         13    1    3    3    0    0  0.39383636800E+02  0.26999049786E+02  0.84446310998E+01  0.48490643380E+02  0.10566000000E+00 0.  1.
         22    1    1    0    0    0  0.19638295924E+01 -0.12473874368E+02 -0.26309758983E+02  0.29183172997E+02  0.00000000000E+00 0. -1.
</event>
<event>
 5    1  0.6835419E-004  0.9118800E+02  0.7818608E-02  0.1130116E+00
         25   -1    0    0    0    0  0.00000000000E+00  0.00000000000E+00  0.99999998245E-14  0.12500000000E+03  0.12500000000E+03 0.  0.
        -13    1    3    3    0    0 -0.10221192375E+02  0.72523358700E+01 -0.52729071203E+02  0.54198111250E+02  0.10566000000E+00 0.  1.
         23    2    1    0    0    0  0.49095553070E+01 -0.17234121144E+02 -0.25593763623E+02  0.93756450245E+02  0.88397469201E+02 0.  0.
         13    1    3    3    0    0  0.15130747682E+02 -0.24486457014E+02  0.27135307580E+02  0.39558338994E+02  0.10566000000E+00 0. -1.
         22    1    1    0    0    0 -0.49095553070E+01  0.17234121144E+02  0.25593763623E+02  0.31243549755E+02  0.00000000000E+00 0.  1.
</event>
<event>
 5    1  0.6835419E-004  0.9118800E+02  0.7818608E-02  0.1130116E+00
         25   -1    0    0    0    0  0.00000000000E+00  0.00000000000E+00  0.99999998245E-14  0.12500000000E+03  0.12500000000E+03 0.  0.
        -13    1    3    3    0    0 -0.45446614446E+02 -0.18088595010E+02 -0.12019652121E+02  0.50369387878E+02  0.10566000000E+00 0. -1.
         23    2    1    0    0    0 -0.12283886725E+01 -0.48804331444E+01 -0.25943375579E+02  0.98573000495E+02  0.94964467691E+02 0.  0.
         13    1    3    3    0    0  0.44218225773E+02  0.13208161866E+02 -0.13923723458E+02  0.48203612617E+02  0.10566000000E+00 0.  1.
         22    1    1    0    0    0  0.12283886725E+01  0.48804331444E+01  0.25943375579E+02  0.26426999505E+02  0.00000000000E+00 0.  1.
</event>
<event>
 5    1  0.6835419E-004  0.9118800E+02  0.7818608E-02  0.1130116E+00
         25   -1    0    0    0    0  0.00000000000E+00  0.00000000000E+00  0.99999998245E-14  0.12500000000E+03  0.12500000000E+03 0.  0.
        -13    1    3    3    0    0  0.31580280748E+02 -0.21872964838E+02 -0.41644790535E+02  0.56657219008E+02  0.10566000000E+00 0.  1.
         23    2    1    0    0    0  0.31271595879E+02 -0.10492560747E+02 -0.96271063649E+01  0.90638863278E+02  0.83873212765E+02 0.  0.
         13    1    3    3    0    0 -0.30868486877E+00  0.11380404092E+02  0.32017684171E+02  0.33981644270E+02  0.10566000000E+00 0. -1.
         22    1    1    0    0    0 -0.31271595879E+02  0.10492560747E+02  0.96271063649E+01  0.34361136722E+02  0.00000000000E+00 0.  1.
</event>
<event>
 5    1  0.6835419E-004  0.9118800E+02  0.7818608E-02  0.1130116E+00
         25   -1    0    0    0    0  0.00000000000E+00  0.00000000000E+00  0.99999998245E-14  0.12500000000E+03  0.12500000000E+03 0.  0.
        -13    1    3    3    0    0  0.13551521249E+02 -0.39151602148E+02 -0.14676063187E+02  0.43953266928E+02  0.10566000000E+00 0.  1.
         23    2    1    0    0    0 -0.12034596384E+01  0.91693862039E+01 -0.27422571516E+02  0.96060003680E+02  0.91596948202E+02 0.  0.
         13    1    3    3    0    0 -0.14754980888E+02  0.48320988352E+02 -0.12746508329E+02  0.52106736752E+02  0.10566000000E+00 0. -1.
         22    1    1    0    0    0  0.12034596384E+01 -0.91693862039E+01  0.27422571516E+02  0.28939996320E+02  0.00000000000E+00 0. -1.
</event>
<event>
 5    1  0.6835419E-004  0.9118800E+02  0.7818608E-02  0.1130116E+00
         25   -1    0    0    0    0  0.00000000000E+00  0.00000000000E+00  0.99999998245E-14  0.12500000000E+03  0.12500000000E+03 0.  0.
        -13    1    3    3    0    0 -0.11105969671E+02  0.14447818935E+02 -0.32690101936E+02  0.37426407294E+02  0.10566000000E+00 0. -1.
         23    2    1    0    0    0  0.17595364151E+02 -0.24295304390E+02 -0.12723099565E+01  0.94975386303E+02  0.90104642366E+02 0.  0.
         13    1    3    3    0    0  0.28701333822E+02 -0.38743123325E+02  0.31417791980E+02  0.57548979009E+02  0.10566000000E+00 0.  1.
         22    1    1    0    0    0 -0.17595364151E+02  0.24295304390E+02  0.12723099565E+01  0.30024613697E+02  0.00000000000E+00 0.  1.
</event>
<event>
 5    1  0.6835419E-004  0.9118800E+02  0.7818608E-02  0.1130116E+00
         25   -1    0    0    0    0  0.00000000000E+00  0.00000000000E+00  0.99999998245E-14  0.12500000000E+03  0.12500000000E+03 0.  0.
        -13    1    3    3    0    0 -0.27215334312E+02  0.19232576574E+02  0.30122837577E+02  0.44921742298E+02  0.10566000000E+00 0.  1.
         23    2    1    0    0    0  0.15783039174E+02 -0.87348286566E+01  0.21499439805E+02  0.96935298520E+02  0.92783751973E+02 0.  0.
         13    1    3    3    0    0  0.42998373485E+02 -0.27967405230E+02 -0.86233977725E+01  0.52013556222E+02  0.10566000000E+00 0. -1.
         22    1    1    0    0    0 -0.15783039174E+02  0.87348286566E+01 -0.21499439805E+02  0.28064701480E+02  0.00000000000E+00 0. -1.
</event>
<event>
 5    1  0.6835419E-004  0.9118800E+02  0.7818608E-02  0.1130116E+00
         25   -1    0    0    0    0  0.00000000000E+00  0.00000000000E+00  0.99999998245E-14  0.12500000000E+03  0.12500000000E+03 0.  0.
        -13    1    3    3    0    0  0.64866946573E+00 -0.30544475426E+02 -0.38593478308E+02  0.49222489607E+02  0.10566000000E+00 0.  1.
         23    2    1    0    0    0  0.17668826709E+02 -0.23332096341E+02  0.38153743932E+01  0.95485067530E+02  0.90808958163E+02 0.  0.
         13    1    3    3    0    0  0.17020157243E+02  0.72123790851E+01  0.42408852701E+02  0.46262577924E+02  0.10566000000E+00 0. -1.
         22    1    1    0    0    0 -0.17668826709E+02  0.23332096341E+02 -0.38153743932E+01  0.29514932470E+02  0.00000000000E+00 0.  1.
</event>
<event>
 5    1  0.6835419E-004  0.9118800E+02  0.7818608E-02  0.1130116E+00
         25   -1    0    0    0    0  0.00000000000E+00  0.00000000000E+00  0.99999998245E-14  0.12500000000E+03  0.12500000000E+03 0.  0.
        -13    1    3    3    0    0 -0.21452207664E+02 -0.42195462850E+02  0.73698557709E+01  0.47905951999E+02  0.10566000000E+00 0. -1.
         23    2    1    0    0    0 -0.15964366897E+02  0.34453297877E+01  0.23290048718E+02  0.96554303014E+02  0.92269040059E+02 0.  0.
         13    1    3    3    0    0  0.54878407670E+01  0.45640792638E+02  0.15920192947E+02  0.48648351015E+02  0.10566000000E+00 0.  1.
         22    1    1    0    0    0  0.15964366897E+02 -0.34453297877E+01 -0.23290048718E+02  0.28445696986E+02  0.00000000000E+00 0.  1.
</event>
<event>
 5    1  0.6835419E-004  0.9118800E+02  0.7818608E-02  0.1130116E+00
         25   -1    0    0    0    0  0.00000000000E+00  0.00000000000E+00  0.99999998245E-14  0.12500000000E+03  0.12500000000E+03 0.  0.
        -13    1    3    3    0    0  0.14779126308E+02  0.10969017737E+00 -0.51426114827E+02  0.53507859764E+02  0.10566000000E+00 0. -1.
         23    2    1    0    0    0 -0.24682650326E+00 -0.22424255797E+02 -0.20511769365E+02  0.94608539788E+02  0.89594279655E+02 0.  0.
         13    1    3    3    0    0 -0.15025952811E+02 -0.22533945974E+02  0.30914345462E+02  0.41100680024E+02  0.10566000000E+00 0.  1.
         22    1    1    0    0    0  0.24682650326E+00  0.22424255797E+02  0.20511769365E+02  0.30391460212E+02  0.00000000000E+00 0. -1.
</event>
<event>
 5    1  0.6835419E-004  0.9118800E+02  0.7818608E-02  0.1130116E+00
         25   -1    0    0    0    0  0.00000000000E+00  0.00000000000E+00  0.99999998245E-14  0.12500000000E+03  0.12500000000E+03 0.  0.
        -13    1    3    3    0    0 -0.89778247229E+00 -0.53591093955E+02 -0.31147892663E+02  0.61992045829E+02  0.10566000000E+00 0.  1.
         23    2    1    0    0    0 -0.59997289830E+01 -0.23900197720E+02 -0.14316016699E+02  0.96501499459E+02  0.92197477540E+02 0.  0.
         13    1    3    3    0    0 -0.51019465107E+01  0.29690896234E+02  0.16831875964E+02  0.34509453631E+02  0.10566000000E+00 0. -1.
         22    1    1    0    0    0  0.59997289830E+01  0.23900197720E+02  0.14316016699E+02  0.28498500541E+02  0.00000000000E+00 0.  1.
</event>
<event>
 5    1  0.6835419E-004  0.9118800E+02  0.7818608E-02  0.1130116E+00
         25   -1    0    0    0    0  0.00000000000E+00  0.00000000000E+00  0.99999998245E-14  0.12500000000E+03  0.12500000000E+03 0.  0.
        -13    1    3    3    0    0  0.12505920572E+02  0.37360856369E+02 -0.94880055300E+01  0.40524869537E+02  0.10566000000E+00 0.  1.
         23    2    1    0    0    0  0.12891874742E+02 -0.16332601960E+02 -0.20997024638E+02  0.95439395054E+02  0.90746067482E+02 0.  0.
         13    1    3    3    0    0  0.38595417024E+00 -0.53693458329E+02 -0.11509019108E+02  0.54914525517E+02  0.10566000000E+00 0. -1.
         22    1    1    0    0    0 -0.12891874742E+02  0.16332601960E+02  0.20997024638E+02  0.29560604946E+02  0.00000000000E+00 0. -1.
</event>
<event>
 4    1  0.6835419E-004  0.9118800E+02  0.7818608E-02  0.1130116E+00
         25   -1    0    0    0    0  0.00000000000E+00  0.00000000000E+00  0.99999998245E-14  0.12500000000E+03  0.12500000000E+03 0.  0.
        -13    1    1    0    0    0  0.90718491586E+01  0.21866313932E+02 -0.24317712748E+02  0.33938126781E+02  0.10566000000E+00 0. -1.
         13    1    1    0    0    0 -0.28838897072E+02 -0.13258071963E+02 -0.22910373524E+02  0.39145304131E+02  0.10566000000E+00 0.  1.
         22    1    1    0    0    0  0.19767047913E+02 -0.86082419686E+01  0.47228086271E+02  0.51916569088E+02  0.00000000000E+00 0.  1.
</event>
<event>
 5    1  0.6835419E-004  0.9118800E+02  0.7818608E-02  0.1130116E+00
         25   -1    0    0    0    0  0.00000000000E+00  0.00000000000E+00  0.99999998245E-14  0.12500000000E+03  0.12500000000E+03 0.  0.
        -13    1    3    3    0    0 -0.31245796953E+01 -0.53693952391E+02 -0.12990935071E+02  0.55331537839E+02  0.10566000000E+00 0.  1.
         23    2    1    0    0    0  0.18483829040E+02 -0.22232177260E+02  0.12274979903E+01  0.96061644949E+02  0.91599187973E+02 0.  0.
         13    1    3    3    0    0  0.21608408736E+02  0.31461775130E+02  0.14218433061E+02  0.40730107110E+02  0.10566000000E+00 0. -1.
         22    1    1    0    0    0 -0.18483829040E+02  0.22232177260E+02 -0.12274979903E+01  0.28938355051E+02  0.00000000000E+00 0.  1.
</event>
<event>
 5    1  0.6835419E-004  0.9118800E+02  0.7818608E-02  0.1130116E+00
         25   -1    0    0    0    0  0.00000000000E+00  0.00000000000E+00  0.99999998245E-14  0.12500000000E+03  0.12500000000E+03 0.  0.
        -13    1    3    3    0    0  0.45496333298E+02 -0.32591764586E+02  0.22171671431E+02  0.60197455432E+02  0.10566000000E+00 0. -1.
         23    2    1    0    0    0  0.26502292107E+02 -0.10898917124E+02  0.37624996265E+00  0.96341677553E+02  0.91980538095E+02 0.  0.
         13    1    3    3    0    0 -0.18994041191E+02  0.21692847462E+02 -0.21795421468E+02  0.36144222121E+02  0.10566000000E+00 0.  1.
         22    1    1    0    0    0 -0.26502292107E+02  0.10898917124E+02 -0.37624996265E+00  0.28658322447E+02  0.00000000000E+00 0. -1.
</event>
<event>
 5    1  0.6835419E-004  0.9118800E+02  0.7818608E-02  0.1130116E+00
         25   -1    0    0    0    0  0.00000000000E+00  0.00000000000E+00  0.99999998245E-14  0.12500000000E+03  0.12500000000E+03 0.  0.
        -13    1    3    3    0    0  0.45752544146E+02  0.99535356339E+01 -0.40502331765E+02  0.61909758600E+02  0.10566000000E+00 0. -1.
         23    2    1    0    0    0  0.23390459201E+02  0.98622340839E+01 -0.16452076006E+02  0.94750238883E+02  0.89791757532E+02 0.  0.
         13    1    3    3    0    0 -0.22362084945E+02 -0.91301550036E-01  0.24050255759E+02  0.32840480283E+02  0.10566000000E+00 0.  1.
         22    1    1    0    0    0 -0.23390459201E+02 -0.98622340839E+01  0.16452076006E+02  0.30249761117E+02  0.00000000000E+00 0. -1.
</event>
<event>
 5    1  0.6835419E-004  0.9118800E+02  0.7818608E-02  0.1130116E+00
         25   -1    0    0    0    0  0.00000000000E+00  0.00000000000E+00  0.99999998245E-14  0.12500000000E+03  0.12500000000E+03 0.  0.
        -13    1    3    3    0    0  0.63548158308E+01 -0.30536007060E+02 -0.25994873829E+02  0.40602660515E+02  0.10566000000E+00 0.  1.
         23    2    1    0    0    0  0.26387510450E+01  0.18350254900E+02 -0.29936158808E+02  0.89788233981E+02  0.82595753494E+02 0.  0.
         13    1    3    3    0    0 -0.37160647858E+01  0.48886261960E+02 -0.39412849789E+01  0.49185573467E+02  0.10566000000E+00 0. -1.
         22    1    1    0    0    0 -0.26387510450E+01 -0.18350254900E+02  0.29936158808E+02  0.35211766019E+02  0.00000000000E+00 0. -1.
</event>
<event>
 5    1  0.6835419E-004  0.9118800E+02  0.7818608E-02  0.1130116E+00
         25   -1    0    0    0    0  0.00000000000E+00  0.00000000000E+00  0.99999998245E-14  0.12500000000E+03  0.12500000000E+03 0.  0.
        -13    1    3    3    0    0 -0.20554627785E+02 -0.96340518228E+01  0.56892817530E+02  0.61254481701E+02  0.10566000000E+00 0. -1.
         23    2    1    0    0    0 -0.73325976465E+01 -0.13092532373E+02  0.27408075149E+02  0.93752856521E+02  0.88392387287E+02 0.  0.
         13    1    3    3    0    0  0.13222030139E+02 -0.34584805502E+01 -0.29484742380E+02  0.32498374821E+02  0.10566000000E+00 0.  1.
         22    1    1    0    0    0  0.73325976465E+01  0.13092532373E+02 -0.27408075149E+02  0.31247143479E+02  0.00000000000E+00 0. -1.
</event>
<event>
 5    1  0.6835419E-004  0.9118800E+02  0.7818608E-02  0.1130116E+00
         25   -1    0    0    0    0  0.00000000000E+00  0.00000000000E+00  0.99999998245E-14  0.12500000000E+03  0.12500000000E+03 0.  0.
        -13    1    3    3    0    0 -0.46449496837E+02 -0.21709523232E+02 -0.12868743828E+02  0.52862793032E+02  0.10566000000E+00 0. -1.
         23    2    1    0    0    0  0.15317245620E+01  0.10532685508E+02 -0.94415551013E+01  0.11077232953E+03  0.10985482413E+03 0.  0.
         13    1    3    3    0    0  0.47981221399E+02  0.32242208739E+02  0.34271887264E+01  0.57909536503E+02  0.10566000000E+00 0.  1.
         22    1    1    0    0    0 -0.15317245620E+01 -0.10532685508E+02  0.94415551013E+01  0.14227670465E+02  0.00000000000E+00 0.  1.
</event>
<event>
 5    1  0.6835419E-004  0.9118800E+02  0.7818608E-02  0.1130116E+00
         25   -1    0    0    0    0  0.00000000000E+00  0.00000000000E+00  0.99999998245E-14  0.12500000000E+03  0.12500000000E+03 0.  0.
        -13    1    3    3    0    0  0.27003521664E+02  0.20599455147E+02  0.39860261853E+02  0.52367732179E+02  0.10566000000E+00 0.  1.
         23    2    1    0    0    0  0.16672788898E+02  0.24212382538E+02 -0.19025262207E+01  0.95540859418E+02  0.90885724151E+02 0.  0.
         13    1    3    3    0    0 -0.10330732766E+02  0.36129273916E+01 -0.41762788074E+02  0.43173127238E+02  0.10566000000E+00 0. -1.
         22    1    1    0    0    0 -0.16672788898E+02 -0.24212382538E+02  0.19025262207E+01  0.29459140582E+02  0.00000000000E+00 0.  1.
</event>
<event>
 5    1  0.6835419E-004  0.9118800E+02  0.7818608E-02  0.1130116E+00
         25   -1    0    0    0    0  0.00000000000E+00  0.00000000000E+00  0.99999998245E-14  0.12500000000E+03  0.12500000000E+03 0.  0.
        -13    1    3    3    0    0  0.23735661869E+02 -0.69281000493E+01  0.20356008093E+02  0.32027463905E+02  0.10566000000E+00 0.  1.
         23    2    1    0    0    0 -0.18024149381E+02  0.91786596872E+01 -0.23020450955E+02  0.94355931786E+02  0.89241150522E+02 0.  0.
         13    1    3    3    0    0 -0.41759811251E+02  0.16106759737E+02 -0.43376459047E+02  0.62328467881E+02  0.10566000000E+00 0. -1.
         22    1    1    0    0    0  0.18024149381E+02 -0.91786596872E+01  0.23020450955E+02  0.30644068214E+02  0.00000000000E+00 0. -1.
</event>
<event>
 5    1  0.6835419E-004  0.9118800E+02  0.7818608E-02  0.1130116E+00
         25   -1    0    0    0    0  0.00000000000E+00  0.00000000000E+00  0.99999998245E-14  0.12500000000E+03  0.12500000000E+03 0.  0.
        -13    1    3    3    0    0 -0.10758404376E+02  0.34661881322E+02 -0.29520337323E+02  0.46783017872E+02  0.10566000000E+00 0.  1.
         23    2    1    0    0    0  0.97222381056E+01  0.23397457442E+02  0.13904074515E+02  0.96098681403E+02  0.91649715497E+02 0.  0.
         13    1    3    3    0    0  0.20480642482E+02 -0.11264423880E+02  0.43424411839E+02  0.49315663530E+02  0.10566000000E+00 0. -1.
         22    1    1    0    0    0 -0.97222381056E+01 -0.23397457442E+02 -0.13904074515E+02  0.28901318597E+02  0.00000000000E+00 0. -1.
</event>
<event>
 5    1  0.6835419E-004  0.9118800E+02  0.7818608E-02  0.1130116E+00
         25   -1    0    0    0    0  0.00000000000E+00  0.00000000000E+00  0.99999998245E-14  0.12500000000E+03  0.12500000000E+03 0.  0.
        -13    1    3    3    0    0 -0.29824960650E+02 -0.15006346941E+02 -0.36267332267E+02  0.49295530021E+02  0.10566000000E+00 0.  1.
         23    2    1    0    0    0 -0.21459227676E+02 -0.88061187256E+01  0.12146309193E+02  0.98816436330E+02  0.95284359065E+02 0.  0.
         13    1    3    3    0    0  0.83657329740E+01  0.62002282158E+01  0.48413641461E+02  0.49520906309E+02  0.10566000000E+00 0. -1.
         22    1    1    0    0    0  0.21459227676E+02  0.88061187256E+01 -0.12146309193E+02  0.26183563670E+02  0.00000000000E+00 0.  1.
</event>
<event>
 5    1  0.6835419E-004  0.9118800E+02  0.7818608E-02  0.1130116E+00
         25   -1    0    0    0    0  0.00000000000E+00  0.00000000000E+00  0.99999998245E-14  0.12500000000E+03  0.12500000000E+03 0.  0.
        -13    1    3    3    0    0 -0.73184601769E+01  0.30547350212E+02  0.16398214496E+02  0.35434630900E+02  0.10566000000E+00 0.  1.
         23    2    1    0    0    0  0.12088994914E+02 -0.17165449479E+02 -0.17976501799E+02  0.97360335190E+02  0.93354613156E+02 0.  0.
         13    1    3    3    0    0  0.19407455091E+02 -0.47712799691E+02 -0.34374716295E+02  0.61925704290E+02  0.10566000000E+00 0. -1.
         22    1    1    0    0    0 -0.12088994914E+02  0.17165449479E+02  0.17976501799E+02  0.27639664810E+02  0.00000000000E+00 0. -1.
</event>
<event>
 5    1  0.6835419E-004  0.9118800E+02  0.7818608E-02  0.1130116E+00
         25   -1    0    0    0    0  0.00000000000E+00  0.00000000000E+00  0.99999998245E-14  0.12500000000E+03  0.12500000000E+03 0.  0.
        -13    1    3    3    0    0  0.51966809946E+01 -0.26727504867E+02  0.40567977407E+02  0.48858335673E+02  0.10566000000E+00 0.  1.
         23    2    1    0    0    0  0.26485116878E+02 -0.14275448645E+02  0.17331469609E+01  0.94862753138E+02  0.89948253371E+02 0.  0.
         13    1    3    3    0    0  0.21288435883E+02  0.12452056221E+02 -0.38834830446E+02  0.46004417465E+02  0.10566000000E+00 0. -1.
         22    1    1    0    0    0 -0.26485116878E+02  0.14275448645E+02 -0.17331469609E+01  0.30137246862E+02  0.00000000000E+00 0. -1.
</event>
<event>
 5    1  0.6835419E-004  0.9118800E+02  0.7818608E-02  0.1130116E+00
         25   -1    0    0    0    0  0.00000000000E+00  0.00000000000E+00  0.99999998245E-14  0.12500000000E+03  0.12500000000E+03 0.  0.
        -13    1    3    3    0    0 -0.50258649104E+02 -0.31863714572E+02 -0.11067787268E+02  0.60528796412E+02  0.10566000000E+00 0.  1.
         23    2    1    0    0    0 -0.28557995908E+02 -0.52544410903E+01 -0.72080500270E+01  0.95081372581E+02  0.90251554808E+02 0.  0.
         13    1    3    3    0    0  0.21700653195E+02  0.26609273481E+02  0.38597372407E+01  0.34552576169E+02  0.10566000000E+00 0. -1.
         22    1    1    0    0    0  0.28557995908E+02  0.52544410903E+01  0.72080500270E+01  0.29918627419E+02  0.00000000000E+00 0.  1.
</event>
<event>
 5    1  0.6835419E-004  0.9118800E+02  0.7818608E-02  0.1130116E+00
         25   -1    0    0    0    0  0.00000000000E+00  0.00000000000E+00  0.99999998245E-14  0.12500000000E+03  0.12500000000E+03 0.  0.
        -13    1    3    3    0    0 -0.20139814405E+02 -0.30645329144E+02  0.14289969620E+02  0.39356863675E+02  0.10566000000E+00 0. -1.
         23    2    1    0    0    0  0.18477890829E+02  0.99056719918E+01  0.20475153820E+02  0.95694937109E+02  0.91097388971E+02 0.  0.
         13    1    3    3    0    0  0.38617705234E+02  0.40551001135E+02  0.61851842000E+01  0.56338073434E+02  0.10566000000E+00 0.  1.
         22    1    1    0    0    0 -0.18477890829E+02 -0.99056719918E+01 -0.20475153820E+02  0.29305062891E+02  0.00000000000E+00 0.  1.
</event>
<event>
 5    1  0.6835419E-004  0.9118800E+02  0.7818608E-02  0.1130116E+00
         25   -1    0    0    0    0  0.00000000000E+00  0.00000000000E+00  0.99999998245E-14  0.12500000000E+03  0.12500000000E+03 0.  0.
        -13    1    3    3    0    0 -0.54071996520E+02  0.16115906978E+02 -0.92071692625E+01  0.57168928582E+02  0.10566000000E+00 0. -1.
         23    2    1    0    0    0 -0.21849514452E+02 -0.61217146409E+01 -0.16435975337E+02  0.96981828090E+02  0.92846416314E+02 0.  0.
         13    1    3    3    0    0  0.32222482068E+02 -0.22237621619E+02 -0.72288060744E+01  0.39812899507E+02  0.10566000000E+00 0.  1.
         22    1    1    0    0    0  0.21849514452E+02  0.61217146409E+01  0.16435975337E+02  0.28018171910E+02  0.00000000000E+00 0. -1.
</event>
<event>
 5    1  0.6835419E-004  0.9118800E+02  0.7818608E-02  0.1130116E+00
         25   -1    0    0    0    0  0.00000000000E+00  0.00000000000E+00  0.99999998245E-14  0.12500000000E+03  0.12500000000E+03 0.  0.
        -13    1    3    3    0    0 -0.19094155300E+02  0.10155511450E+00 -0.28545180675E+02  0.34342911697E+02  0.10566000000E+00 0.  1.
         23    2    1    0    0    0  0.97398030224E+01 -0.19483848827E+00  0.26654795318E+02  0.96620785099E+02  0.92359061681E+02 0.  0.
         13    1    3    3    0    0  0.28833958323E+02 -0.29639360277E+00  0.55199975993E+02  0.62277873401E+02  0.10566000000E+00 0. -1.
         22    1    1    0    0    0 -0.97398030224E+01  0.19483848827E+00 -0.26654795318E+02  0.28379214901E+02  0.00000000000E+00 0. -1.
</event>
<event>
 5    1  0.6835419E-004  0.9118800E+02  0.7818608E-02  0.1130116E+00
         25   -1    0    0    0    0  0.00000000000E+00  0.00000000000E+00  0.99999998245E-14  0.12500000000E+03  0.12500000000E+03 0.  0.
        -13    1    3    3    0    0 -0.90640840298E+01 -0.68835323139E+01  0.36208059542E+02  0.37954912412E+02  0.10566000000E+00 0. -1.
         23    2    1    0    0    0 -0.20366419664E+02 -0.11760689385E+02 -0.19153829304E+02  0.94668926135E+02  0.89678489806E+02 0.  0.
         13    1    3    3    0    0 -0.11302335635E+02 -0.48771570713E+01 -0.55361888846E+02  0.56714013723E+02  0.10566000000E+00 0.  1.
         22    1    1    0    0    0  0.20366419664E+02  0.11760689385E+02  0.19153829304E+02  0.30331073865E+02  0.00000000000E+00 0. -1.
</event>
<event>
 5    1  0.6835419E-004  0.9118800E+02  0.7818608E-02  0.1130116E+00
         25   -1    0    0    0    0  0.00000000000E+00  0.00000000000E+00  0.99999998245E-14  0.12500000000E+03  0.12500000000E+03 0.  0.
        -13    1    3    3    0    0 -0.11402973178E+02  0.33858202508E+02  0.81223409589E+01  0.36638630720E+02  0.10566000000E+00 0.  1.
         23    2    1    0    0    0 -0.15576478095E+02 -0.24539136322E+02  0.65479936057E+01  0.95206173432E+02  0.90424240987E+02 0.  0.
         13    1    3    3    0    0 -0.41735049167E+01 -0.58397338830E+02 -0.15743473532E+01  0.58567542712E+02  0.10566000000E+00 0. -1.
         22    1    1    0    0    0  0.15576478095E+02  0.24539136322E+02 -0.65479936057E+01  0.29793826568E+02  0.00000000000E+00 0. -1.
</event>
<event>
 5    1  0.6835419E-004  0.9118800E+02  0.7818608E-02  0.1130116E+00
         25   -1    0    0    0    0  0.00000000000E+00  0.00000000000E+00  0.99999998245E-14  0.12500000000E+03  0.12500000000E+03 0.  0.
        -13    1    3    3    0    0  0.44791043054E+02  0.29653061534E+02 -0.42145392609E+01  0.53882419224E+02  0.10566000000E+00 0. -1.
         23    2    1    0    0    0  0.33902256171E+01  0.28595693385E+02 -0.69169383681E+01  0.95384947302E+02  0.90671036310E+02 0.  0.
         13    1    3    3    0    0 -0.41400817437E+02 -0.10573681489E+01 -0.27023991072E+01  0.41502528078E+02  0.10566000000E+00 0.  1.
         22    1    1    0    0    0 -0.33902256171E+01 -0.28595693385E+02  0.69169383681E+01  0.29615052698E+02  0.00000000000E+00 0. -1.
</event>
<event>
 5    1  0.6835419E-004  0.9118800E+02  0.7818608E-02  0.1130116E+00
         25   -1    0    0    0    0  0.00000000000E+00  0.00000000000E+00  0.99999998245E-14  0.12500000000E+03  0.12500000000E+03 0.  0.
        -13    1    3    3    0    0 -0.48870942468E+02  0.98115140686E+00  0.44565979988E+01  0.49083643971E+02  0.10566000000E+00 0. -1.
         23    2    1    0    0    0 -0.31188990684E+02 -0.53359409450E+01  0.30407790760E+02  0.81115388295E+02  0.68219110766E+02 0.  0.
         13    1    3    3    0    0  0.17681951784E+02 -0.63170923518E+01  0.25951192761E+02  0.32031744324E+02  0.10566000000E+00 0.  1.
         22    1    1    0    0    0  0.31188990684E+02  0.53359409450E+01 -0.30407790760E+02  0.43884611705E+02  0.00000000000E+00 0. -1.
</event>
<event>
 5    1  0.6835419E-004  0.9118800E+02  0.7818608E-02  0.1130116E+00
         25   -1    0    0    0    0  0.00000000000E+00  0.00000000000E+00  0.99999998245E-14  0.12500000000E+03  0.12500000000E+03 0.  0.
        -13    1    3    3    0    0  0.31665556211E+02 -0.11150355449E+02 -0.15587434422E+02  0.37013742754E+02  0.10566000000E+00 0.  1.
         23    2    1    0    0    0 -0.26410559598E+02 -0.58258688131E+01 -0.11906739159E+02  0.95449554266E+02  0.90760060414E+02 0.  0.
         13    1    3    3    0    0 -0.58076115809E+02  0.53244866358E+01  0.36806952633E+01  0.58435811512E+02  0.10566000000E+00 0. -1.
         22    1    1    0    0    0  0.26410559598E+02  0.58258688131E+01  0.11906739159E+02  0.29550445734E+02  0.00000000000E+00 0. -1.
</event>
<event>
 5    1  0.6835419E-004  0.9118800E+02  0.7818608E-02  0.1130116E+00
         25   -1    0    0    0    0  0.00000000000E+00  0.00000000000E+00  0.99999998245E-14  0.12500000000E+03  0.12500000000E+03 0.  0.
        -13    1    3    3    0    0 -0.50422180286E+02  0.13603918813E+02 -0.31765794859E+02  0.61127242363E+02  0.10566000000E+00 0. -1.
         23    2    1    0    0    0 -0.17530262371E+02  0.36498445000E+01 -0.21555625150E+02  0.96977215711E+02  0.92840206418E+02 0.  0.
         13    1    3    3    0    0  0.32891917915E+02 -0.99540743128E+01  0.10210169708E+02  0.35849973348E+02  0.10566000000E+00 0.  1.
         22    1    1    0    0    0  0.17530262371E+02 -0.36498445000E+01  0.21555625150E+02  0.28022784289E+02  0.00000000000E+00 0. -1.
</event>
<event>
 5    1  0.6835419E-004  0.9118800E+02  0.7818608E-02  0.1130116E+00
         25   -1    0    0    0    0  0.00000000000E+00  0.00000000000E+00  0.99999998245E-14  0.12500000000E+03  0.12500000000E+03 0.  0.
        -13    1    3    3    0    0  0.25790474911E+02  0.56227321955E+02  0.10432727309E+01  0.61868892930E+02  0.10566000000E+00 0.  1.
         23    2    1    0    0    0  0.12820321169E+02  0.26293082420E+02 -0.57396408389E+01  0.95190097367E+02  0.90402015143E+02 0.  0.
         13    1    3    3    0    0 -0.12970153742E+02 -0.29934239535E+02 -0.67829135698E+01  0.33321204438E+02  0.10566000000E+00 0. -1.
         22    1    1    0    0    0 -0.12820321169E+02 -0.26293082420E+02  0.57396408389E+01  0.29809902633E+02  0.00000000000E+00 0.  1.
</event>
<event>
 5    1  0.6835419E-004  0.9118800E+02  0.7818608E-02  0.1130116E+00
         25   -1    0    0    0    0  0.00000000000E+00  0.00000000000E+00  0.99999998245E-14  0.12500000000E+03  0.12500000000E+03 0.  0.
        -13    1    3    3    0    0 -0.10644075300E+02 -0.22831291113E+02  0.26781742814E+02  0.36767337476E+02  0.10566000000E+00 0. -1.
         23    2    1    0    0    0 -0.25802366788E+02  0.15543291597E+02 -0.11214777019E+02  0.92857702803E+02  0.87117309994E+02 0.  0.
         13    1    3    3    0    0 -0.15158291488E+02  0.38374582710E+02 -0.37996519833E+02  0.56090365327E+02  0.10566000000E+00 0.  1.
         22    1    1    0    0    0  0.25802366788E+02 -0.15543291597E+02  0.11214777019E+02  0.32142297197E+02  0.00000000000E+00 0.  1.
</event>
<event>
 5    1  0.6835419E-004  0.9118800E+02  0.7818608E-02  0.1130116E+00
         25   -1    0    0    0    0  0.00000000000E+00  0.00000000000E+00  0.99999998245E-14  0.12500000000E+03  0.12500000000E+03 0.  0.
        -13    1    3    3    0    0  0.11011286014E+02  0.35436516172E+02 -0.85035318817E+01  0.38069887268E+02  0.10566000000E+00 0.  1.
         23    2    1    0    0    0  0.19615383027E+02 -0.21394995638E+02 -0.34104232649E+01  0.95774325047E+02  0.91206256702E+02 0.  0.
         13    1    3    3    0    0  0.86040970133E+01 -0.56831511809E+02  0.50931086168E+01  0.57704437779E+02  0.10566000000E+00 0. -1.
         22    1    1    0    0    0 -0.19615383027E+02  0.21394995638E+02  0.34104232649E+01  0.29225674953E+02  0.00000000000E+00 0. -1.
</event>
<event>
 5    1  0.6835419E-004  0.9118800E+02  0.7818608E-02  0.1130116E+00
         25   -1    0    0    0    0  0.00000000000E+00  0.00000000000E+00  0.99999998245E-14  0.12500000000E+03  0.12500000000E+03 0.  0.
        -13    1    3    3    0    0 -0.37668009416E+02  0.41834975245E+02 -0.60648745433E+01  0.56620119695E+02  0.10566000000E+00 0. -1.
         23    2    1    0    0    0 -0.36832434883E+01  0.24651603988E+02 -0.15230688571E+02  0.95789698117E+02  0.91227323370E+02 0.  0.
         13    1    3    3    0    0  0.33984765927E+02 -0.17183371257E+02 -0.91658140274E+01  0.39169578421E+02  0.10566000000E+00 0.  1.
         22    1    1    0    0    0  0.36832434883E+01 -0.24651603988E+02  0.15230688571E+02  0.29210301883E+02  0.00000000000E+00 0. -1.
</event>
<event>
 5    1  0.6835419E-004  0.9118800E+02  0.7818608E-02  0.1130116E+00
         25   -1    0    0    0    0  0.00000000000E+00  0.00000000000E+00  0.99999998245E-14  0.12500000000E+03  0.12500000000E+03 0.  0.
        -13    1    3    3    0    0 -0.28028734496E+02 -0.29979089042E+02  0.33728164695E+02  0.53122085755E+02  0.10566000000E+00 0.  1.
         23    2    1    0    0    0 -0.13712775697E+02 -0.23941209600E+02 -0.68490635183E+01  0.96572347872E+02  0.92293482803E+02 0.  0.
         13    1    3    3    0    0  0.14315958799E+02  0.60378794416E+01 -0.40577228213E+02  0.43450262117E+02  0.10566000000E+00 0. -1.
         22    1    1    0    0    0  0.13712775697E+02  0.23941209600E+02  0.68490635183E+01  0.28427652128E+02  0.00000000000E+00 0.  1.
</event>
<event>
 5    1  0.6835419E-004  0.9118800E+02  0.7818608E-02  0.1130116E+00
         25   -1    0    0    0    0  0.00000000000E+00  0.00000000000E+00  0.99999998245E-14  0.12500000000E+03  0.12500000000E+03 0.  0.
        -13    1    3    3    0    0  0.36225556233E+02  0.20097840928E+02  0.23660578658E+02  0.47707947774E+02  0.10566000000E+00 0. -1.
         23    2    1    0    0    0  0.23445503203E+02  0.43868679408E+01 -0.18719809149E+02  0.94678926712E+02  0.89692428209E+02 0.  0.
         13    1    3    3    0    0 -0.12780053030E+02 -0.15710972987E+02 -0.42380387807E+02  0.46970978938E+02  0.10566000000E+00 0.  1.
         22    1    1    0    0    0 -0.23445503203E+02 -0.43868679408E+01  0.18719809149E+02  0.30321073288E+02  0.00000000000E+00 0.  1.
</event>
<event>
 5    1  0.6835419E-004  0.9118800E+02  0.7818608E-02  0.1130116E+00
         25   -1    0    0    0    0  0.00000000000E+00  0.00000000000E+00  0.99999998245E-14  0.12500000000E+03  0.12500000000E+03 0.  0.
        -13    1    3    3    0    0 -0.31304035495E+02  0.40945095090E+02 -0.10105129608E+02  0.52522074013E+02  0.10566000000E+00 0. -1.
         23    2    1    0    0    0 -0.18668567027E+01  0.83638932846E+01 -0.24748749959E+02  0.98809534381E+02  0.95275304225E+02 0.  0.
         13    1    3    3    0    0  0.29437178792E+02 -0.32581201805E+02 -0.14643620351E+02  0.46287460368E+02  0.10566000000E+00 0.  1.
         22    1    1    0    0    0  0.18668567027E+01 -0.83638932846E+01  0.24748749959E+02  0.26190465619E+02  0.00000000000E+00 0. -1.
</event>
<event>
 5    1  0.6835419E-004  0.9118800E+02  0.7818608E-02  0.1130116E+00
         25   -1    0    0    0    0  0.00000000000E+00  0.00000000000E+00  0.99999998245E-14  0.12500000000E+03  0.12500000000E+03 0.  0.
        -13    1    3    3    0    0 -0.44647983986E+00  0.79739441554E+01  0.36116174329E+02  0.36988813739E+02  0.10566000000E+00 0.  1.
         23    2    1    0    0    0  0.26257356286E+02  0.50596357961E+01 -0.14712598430E+02  0.94479363930E+02  0.89413874665E+02 0.  0.
         13    1    3    3    0    0  0.26703836126E+02 -0.29143083594E+01 -0.50828772759E+02  0.57490550191E+02  0.10566000000E+00 0. -1.
         22    1    1    0    0    0 -0.26257356286E+02 -0.50596357961E+01  0.14712598430E+02  0.30520636070E+02  0.00000000000E+00 0. -1.
</event>
<event>
 5    1  0.6835419E-004  0.9118800E+02  0.7818608E-02  0.1130116E+00
         25   -1    0    0    0    0  0.00000000000E+00  0.00000000000E+00  0.99999998245E-14  0.12500000000E+03  0.12500000000E+03 0.  0.
        -13    1    3    3    0    0 -0.12428344732E+02 -0.31942423424E+02  0.27972704289E+02  0.44240993618E+02  0.10566000000E+00 0. -1.
         23    2    1    0    0    0 -0.16829640004E+01  0.18833719503E+02  0.21217461821E+02  0.96579548838E+02  0.92303235097E+02 0.  0.
         13    1    3    3    0    0  0.10745380732E+02  0.50776142928E+02 -0.67552424679E+01  0.52338555220E+02  0.10566000000E+00 0.  1.
         22    1    1    0    0    0  0.16829640004E+01 -0.18833719503E+02 -0.21217461821E+02  0.28420451162E+02  0.00000000000E+00 0. -1.
</event>
<event>
 5    1  0.6835419E-004  0.9118800E+02  0.7818608E-02  0.1130116E+00
         25   -1    0    0    0    0  0.00000000000E+00  0.00000000000E+00  0.99999998245E-14  0.12500000000E+03  0.12500000000E+03 0.  0.
        -13    1    3    3    0    0  0.26923457176E+01 -0.62240532774E+02 -0.21494383753E+01  0.62335895716E+02  0.10566000000E+00 0.  1.
         23    2    1    0    0    0  0.29547852123E+01 -0.26390760569E+02  0.16831106485E+01  0.98391056757E+02  0.94724675714E+02 0.  0.
         13    1    3    3    0    0  0.26243949476E+00  0.35849772204E+02  0.38325490238E+01  0.36055161040E+02  0.10566000000E+00 0. -1.
         22    1    1    0    0    0 -0.29547852123E+01  0.26390760569E+02 -0.16831106485E+01  0.26608943243E+02  0.00000000000E+00 0.  1.
</event>
<event>
 5    1  0.6835419E-004  0.9118800E+02  0.7818608E-02  0.1130116E+00
         25   -1    0    0    0    0  0.00000000000E+00  0.00000000000E+00  0.99999998245E-14  0.12500000000E+03  0.12500000000E+03 0.  0.
        -13    1    3    3    0    0 -0.21060946042E+01 -0.34088091303E+02 -0.19432085699E+02  0.39294410821E+02  0.10566000000E+00 0.  1.
         23    2    1    0    0    0  0.42118374816E+01  0.23177588829E+02 -0.14988512246E+02  0.97078759013E+02  0.92976823743E+02 0.  0.
         13    1    3    3    0    0  0.63179320858E+01  0.57265680132E+02  0.44435734529E+01  0.57784348192E+02  0.10566000000E+00 0. -1.
         22    1    1    0    0    0 -0.42118374816E+01 -0.23177588829E+02  0.14988512246E+02  0.27921240987E+02  0.00000000000E+00 0. -1.
</event>
<event>
 5    1  0.6835419E-004  0.9118800E+02  0.7818608E-02  0.1130116E+00
         25   -1    0    0    0    0  0.00000000000E+00  0.00000000000E+00  0.99999998245E-14  0.12500000000E+03  0.12500000000E+03 0.  0.
        -13    1    3    3    0    0 -0.12602345709E+02  0.31452309809E+02 -0.47638868473E+02  0.58459728558E+02  0.10566000000E+00 0.  1.
         23    2    1    0    0    0  0.75039833809E+01  0.21787241224E+02 -0.16979152411E+02  0.96376840438E+02  0.92028311456E+02 0.  0.
         13    1    3    3    0    0  0.20106329090E+02 -0.96650685841E+01  0.30659716062E+02  0.37917111879E+02  0.10566000000E+00 0. -1.
         22    1    1    0    0    0 -0.75039833809E+01 -0.21787241224E+02  0.16979152411E+02  0.28623159562E+02  0.00000000000E+00 0.  1.
</event>
<event>
 5    1  0.6835419E-004  0.9118800E+02  0.7818608E-02  0.1130116E+00
         25   -1    0    0    0    0  0.00000000000E+00  0.00000000000E+00  0.99999998245E-14  0.12500000000E+03  0.12500000000E+03 0.  0.
        -13    1    3    3    0    0 -0.21507029564E+02  0.26574142776E+02 -0.22829107098E+02  0.41108596180E+02  0.10566000000E+00 0. -1.
         23    2    1    0    0    0  0.13947510654E+02  0.13452081358E+02  0.19256884143E+02  0.97681157909E+02  0.93783204666E+02 0.  0.
         13    1    3    3    0    0  0.35454540218E+02 -0.13122061418E+02  0.42085991241E+02  0.56572561730E+02  0.10566000000E+00 0.  1.
         22    1    1    0    0    0 -0.13947510654E+02 -0.13452081358E+02 -0.19256884143E+02  0.27318842091E+02  0.00000000000E+00 0.  1.
</event>
<event>
 5    1  0.6835419E-004  0.9118800E+02  0.7818608E-02  0.1130116E+00
         25   -1    0    0    0    0  0.00000000000E+00  0.00000000000E+00  0.99999998245E-14  0.12500000000E+03  0.12500000000E+03 0.  0.
        -13    1    3    3    0    0  0.22392030092E+02  0.30686675996E+02  0.22604751369E+02  0.44204762682E+02  0.10566000000E+00 0.  1.
         23    2    1    0    0    0  0.12556617341E+02 -0.17691959471E+02  0.22736775609E+02  0.93573338801E+02  0.88138156892E+02 0.  0.
         13    1    3    3    0    0 -0.98354127512E+01 -0.48378635467E+02  0.13202424072E+00  0.49368576119E+02  0.10566000000E+00 0. -1.
         22    1    1    0    0    0 -0.12556617341E+02  0.17691959471E+02 -0.22736775609E+02  0.31426661199E+02  0.00000000000E+00 0. -1.
</event>
<event>
 5    1  0.6835419E-004  0.9118800E+02  0.7818608E-02  0.1130116E+00
         25   -1    0    0    0    0  0.00000000000E+00  0.00000000000E+00  0.99999998245E-14  0.12500000000E+03  0.12500000000E+03 0.  0.
        -13    1    3    3    0    0  0.21224603308E+02  0.27888165454E+02  0.46566232567E+02  0.58280860816E+02  0.10566000000E+00 0.  1.
         23    2    1    0    0    0  0.22485796642E+02  0.31800647408E+01  0.18383964677E+02  0.95781957293E+02  0.91216716250E+02 0.  0.
         13    1    3    3    0    0  0.12611933336E+01 -0.24708100714E+02 -0.28182267890E+02  0.37501096477E+02  0.10566000000E+00 0. -1.
         22    1    1    0    0    0 -0.22485796642E+02 -0.31800647408E+01 -0.18383964677E+02  0.29218042707E+02  0.00000000000E+00 0.  1.
</event>
<event>
 5    1  0.6835419E-004  0.9118800E+02  0.7818608E-02  0.1130116E+00
         25   -1    0    0    0    0  0.00000000000E+00  0.00000000000E+00  0.99999998245E-14  0.12500000000E+03  0.12500000000E+03 0.  0.
        -13    1    3    3    0    0 -0.43085994526E+02  0.59759215414E+01  0.12551703848E+02  0.45273292305E+02  0.10566000000E+00 0.  1.
         23    2    1    0    0    0 -0.10914747553E+02  0.68129911936E+01 -0.26299120801E+02  0.95722153118E+02  0.91134725980E+02 0.  0.
         13    1    3    3    0    0  0.32171246973E+02  0.83706965217E+00 -0.38850824649E+02  0.50448860813E+02  0.10566000000E+00 0. -1.
         22    1    1    0    0    0  0.10914747553E+02 -0.68129911936E+01  0.26299120801E+02  0.29277846882E+02  0.00000000000E+00 0. -1.
</event>
<event>
 5    1  0.6835419E-004  0.9118800E+02  0.7818608E-02  0.1130116E+00
         25   -1    0    0    0    0  0.00000000000E+00  0.00000000000E+00  0.99999998245E-14  0.12500000000E+03  0.12500000000E+03 0.  0.
        -13    1    3    3    0    0 -0.40377757725E+02  0.29233991615E+01 -0.13187762195E+02  0.42577433193E+02  0.10566000000E+00 0. -1.
         23    2    1    0    0    0 -0.30927095981E+01  0.32184016217E+02  0.26746541302E+01  0.92557288534E+02  0.86685189817E+02 0.  0.
         13    1    3    3    0    0  0.37285048127E+02  0.29260617056E+02  0.15862416325E+02  0.49979855342E+02  0.10566000000E+00 0.  1.
         22    1    1    0    0    0  0.30927095981E+01 -0.32184016217E+02 -0.26746541302E+01  0.32442711466E+02  0.00000000000E+00 0. -1.
</event>
<event>
 5    1  0.6835419E-004  0.9118800E+02  0.7818608E-02  0.1130116E+00
         25   -1    0    0    0    0  0.00000000000E+00  0.00000000000E+00  0.99999998245E-14  0.12500000000E+03  0.12500000000E+03 0.  0.
        -13    1    3    3    0    0 -0.32445691062E+02  0.20367384902E+02  0.23456203259E+02  0.44919459832E+02  0.10566000000E+00 0.  1.
         23    2    1    0    0    0  0.16064128134E+02  0.22922107910E+02  0.84488348901E+01  0.95761975875E+02  0.91189330345E+02 0.  0.
         13    1    3    3    0    0  0.48509819197E+02  0.25547230076E+01 -0.15007368369E+02  0.50842516042E+02  0.10566000000E+00 0. -1.
         22    1    1    0    0    0 -0.16064128134E+02 -0.22922107910E+02 -0.84488348901E+01  0.29238024125E+02  0.00000000000E+00 0.  1.
</event>
<event>
 5    1  0.6835419E-004  0.9118800E+02  0.7818608E-02  0.1130116E+00
         25   -1    0    0    0    0  0.00000000000E+00  0.00000000000E+00  0.99999998245E-14  0.12500000000E+03  0.12500000000E+03 0.  0.
        -13    1    3    3    0    0  0.67160454514E+01 -0.23744639858E+02 -0.22108413644E+02  0.33131651127E+02  0.10566000000E+00 0.  1.
         23    2    1    0    0    0 -0.34918266070E+02 -0.65000742462E+00  0.76098884907E+01  0.89256214277E+02  0.81786634417E+02 0.  0.
         13    1    3    3    0    0 -0.41634311521E+02  0.23094632434E+02  0.29718302134E+02  0.56124563151E+02  0.10566000000E+00 0. -1.
         22    1    1    0    0    0  0.34918266070E+02  0.65000742462E+00 -0.76098884907E+01  0.35743785723E+02  0.00000000000E+00 0. -1.
</event>
<event>
 5    1  0.6835419E-004  0.9118800E+02  0.7818608E-02  0.1130116E+00
         25   -1    0    0    0    0  0.00000000000E+00  0.00000000000E+00  0.99999998245E-14  0.12500000000E+03  0.12500000000E+03 0.  0.
        -13    1    3    3    0    0 -0.23303435096E+02  0.37542637621E+02 -0.23630598732E+01  0.44250366584E+02  0.10566000000E+00 0.  1.
         23    2    1    0    0    0 -0.14852908756E+02 -0.41710528458E+01  0.25553799074E+02  0.95150322825E+02  0.90347001645E+02 0.  0.
         13    1    3    3    0    0  0.84505263401E+01 -0.41713690467E+02  0.27916858947E+02  0.50899956241E+02  0.10566000000E+00 0. -1.
         22    1    1    0    0    0  0.14852908756E+02  0.41710528458E+01 -0.25553799074E+02  0.29849677175E+02  0.00000000000E+00 0. -1.
</event>
<event>
 5    1  0.6835419E-004  0.9118800E+02  0.7818608E-02  0.1130116E+00
         25   -1    0    0    0    0  0.00000000000E+00  0.00000000000E+00  0.99999998245E-14  0.12500000000E+03  0.12500000000E+03 0.  0.
        -13    1    3    3    0    0  0.10761431283E+02 -0.36037203494E+02 -0.38700755436E+01  0.37808426147E+02  0.10566000000E+00 0.  1.
         23    2    1    0    0    0 -0.17965617915E+02  0.64405739592E+01  0.22520197181E+02  0.95480452221E+02  0.90802604893E+02 0.  0.
         13    1    3    3    0    0 -0.28727049198E+02  0.42477777454E+02  0.26390272725E+02  0.57672026074E+02  0.10566000000E+00 0. -1.
         22    1    1    0    0    0  0.17965617915E+02 -0.64405739592E+01 -0.22520197181E+02  0.29519547779E+02  0.00000000000E+00 0. -1.
</event>
<event>
 5    1  0.6835419E-004  0.9118800E+02  0.7818608E-02  0.1130116E+00
         25   -1    0    0    0    0  0.00000000000E+00  0.00000000000E+00  0.99999998245E-14  0.12500000000E+03  0.12500000000E+03 0.  0.
        -13    1    3    3    0    0  0.12254106859E+01 -0.25645899996E+02  0.32123057501E+02  0.41123178442E+02  0.10566000000E+00 0.  1.
         23    2    1    0    0    0  0.11052568736E+02 -0.18540444702E+02 -0.20563736549E+02  0.95187676604E+02  0.90398667861E+02 0.  0.
         13    1    3    3    0    0  0.98271580505E+01  0.71054552935E+01 -0.52686794049E+02  0.54064498162E+02  0.10566000000E+00 0. -1.
         22    1    1    0    0    0 -0.11052568736E+02  0.18540444702E+02  0.20563736549E+02  0.29812323396E+02  0.00000000000E+00 0. -1.
</event>
<event>
 5    1  0.6835419E-004  0.9118800E+02  0.7818608E-02  0.1130116E+00
         25   -1    0    0    0    0  0.00000000000E+00  0.00000000000E+00  0.99999998245E-14  0.12500000000E+03  0.12500000000E+03 0.  0.
        -13    1    3    3    0    0 -0.39573307241E+02  0.16187295385E+02 -0.22679243561E+02  0.48398702776E+02  0.10566000000E+00 0.  1.
         23    2    1    0    0    0 -0.73681208244E+01 -0.21358896191E+02 -0.13410689498E+02  0.98725711355E+02  0.95165265926E+02 0.  0.
         13    1    3    3    0    0  0.32205186417E+02 -0.37546191576E+02  0.92685540633E+01  0.50327008579E+02  0.10566000000E+00 0. -1.
         22    1    1    0    0    0  0.73681208244E+01  0.21358896191E+02  0.13410689498E+02  0.26274288645E+02  0.00000000000E+00 0. -1.
</event>
<event>
 5    1  0.6835419E-004  0.9118800E+02  0.7818608E-02  0.1130116E+00
         25   -1    0    0    0    0  0.00000000000E+00  0.00000000000E+00  0.99999998245E-14  0.12500000000E+03  0.12500000000E+03 0.  0.
        -13    1    3    3    0    0  0.16641087120E+02  0.48155113771E+02  0.13168145196E+02  0.52623682641E+02  0.10566000000E+00 0. -1.
         23    2    1    0    0    0  0.26023011197E+02  0.54385026510E+01  0.10422722148E+02  0.96444657946E+02  0.92120380408E+02 0.  0.
         13    1    3    3    0    0  0.93819240770E+01 -0.42716611120E+02 -0.27454230482E+01  0.43820975305E+02  0.10566000000E+00 0.  1.
         22    1    1    0    0    0 -0.26023011197E+02 -0.54385026510E+01 -0.10422722148E+02  0.28555342054E+02  0.00000000000E+00 0. -1.
</event>
<event>
 5    1  0.6835419E-004  0.9118800E+02  0.7818608E-02  0.1130116E+00
         25   -1    0    0    0    0  0.00000000000E+00  0.00000000000E+00  0.99999998245E-14  0.12500000000E+03  0.12500000000E+03 0.  0.
        -13    1    3    3    0    0  0.44876019728E+01  0.37054579971E+02 -0.18109896832E+01  0.37369390093E+02  0.10566000000E+00 0.  1.
         23    2    1    0    0    0 -0.20238469903E+02 -0.95221773326E+01  0.20529863369E+02  0.94639782361E+02  0.89637858019E+02 0.  0.
         13    1    3    3    0    0 -0.24726071876E+02 -0.46576757304E+02  0.22340853052E+02  0.57270392267E+02  0.10566000000E+00 0. -1.
         22    1    1    0    0    0  0.20238469903E+02  0.95221773326E+01 -0.20529863369E+02  0.30360217639E+02  0.00000000000E+00 0. -1.
</event>
<event>
 5    1  0.6835419E-004  0.9118800E+02  0.7818608E-02  0.1130116E+00
         25   -1    0    0    0    0  0.00000000000E+00  0.00000000000E+00  0.99999998245E-14  0.12500000000E+03  0.12500000000E+03 0.  0.
        -13    1    3    3    0    0 -0.84386451644E+01  0.20466988660E+01  0.45192332294E+02  0.46019102237E+02  0.10566000000E+00 0.  1.
         23    2    1    0    0    0 -0.12544939435E+01  0.25893601014E+02 -0.15998510941E+01  0.99026708871E+02  0.95559809636E+02 0.  0.
         13    1    3    3    0    0  0.71841512209E+01  0.23846902148E+02 -0.46792183388E+02  0.53007606634E+02  0.10566000000E+00 0. -1.
         22    1    1    0    0    0  0.12544939435E+01 -0.25893601014E+02  0.15998510941E+01  0.25973291129E+02  0.00000000000E+00 0. -1.
</event>
<event>
 5    1  0.6835419E-004  0.9118800E+02  0.7818608E-02  0.1130116E+00
         25   -1    0    0    0    0  0.00000000000E+00  0.00000000000E+00  0.99999998245E-14  0.12500000000E+03  0.12500000000E+03 0.  0.
        -13    1    3    3    0    0 -0.14936423972E+02 -0.24242011602E+02 -0.23670814219E+02  0.37028239189E+02  0.10566000000E+00 0. -1.
         23    2    1    0    0    0  0.22091365385E+02 -0.25283939609E+02  0.12852740497E+02  0.89048658369E+02  0.81468795206E+02 0.  0.
         13    1    3    3    0    0  0.37027789357E+02 -0.10419280074E+01  0.36523554716E+02  0.52020419181E+02  0.10566000000E+00 0.  1.
         22    1    1    0    0    0 -0.22091365385E+02  0.25283939609E+02 -0.12852740497E+02  0.35951341631E+02  0.00000000000E+00 0.  1.
</event>
<event>
 5    1  0.6835419E-004  0.9118800E+02  0.7818608E-02  0.1130116E+00
         25   -1    0    0    0    0  0.00000000000E+00  0.00000000000E+00  0.99999998245E-14  0.12500000000E+03  0.12500000000E+03 0.  0.
        -13    1    3    3    0    0 -0.50966206658E+02  0.23956267266E+02  0.19879540953E+02  0.59721556201E+02  0.10566000000E+00 0.  1.
         23    2    1    0    0    0 -0.27569834574E+02  0.22971593605E+00  0.15612669348E+02  0.93315555993E+02  0.87771800701E+02 0.  0.
         13    1    3    3    0    0  0.23396372084E+02 -0.23726551330E+02 -0.42668716049E+01  0.33593999792E+02  0.10566000000E+00 0. -1.
         22    1    1    0    0    0  0.27569834574E+02 -0.22971593605E+00 -0.15612669348E+02  0.31684444007E+02  0.00000000000E+00 0.  1.
</event>
<event>
 5    1  0.6835419E-004  0.9118800E+02  0.7818608E-02  0.1130116E+00
         25   -1    0    0    0    0  0.00000000000E+00  0.00000000000E+00  0.99999998245E-14  0.12500000000E+03  0.12500000000E+03 0.  0.
        -13    1    3    3    0    0  0.26811950125E+02 -0.20542379293E+02 -0.36237669478E+02  0.49538367653E+02  0.10566000000E+00 0.  1.
         23    2    1    0    0    0  0.27416231674E+02  0.89675608894E+01 -0.15714183413E+00  0.96154001992E+02  0.91725135585E+02 0.  0.
         13    1    3    3    0    0  0.60428154935E+00  0.29509940183E+02  0.36080527643E+02  0.46615634339E+02  0.10566000000E+00 0. -1.
         22    1    1    0    0    0 -0.27416231674E+02 -0.89675608894E+01  0.15714183413E+00  0.28845998008E+02  0.00000000000E+00 0.  1.
</event>
<event>
 5    1  0.6835419E-004  0.9118800E+02  0.7818608E-02  0.1130116E+00
         25   -1    0    0    0    0  0.00000000000E+00  0.00000000000E+00  0.99999998245E-14  0.12500000000E+03  0.12500000000E+03 0.  0.
        -13    1    3    3    0    0 -0.24118836691E+01 -0.26793647592E+02  0.17724990276E+02  0.32216504752E+02  0.10566000000E+00 0. -1.
         23    2    1    0    0    0  0.12378725643E+02  0.25304307020E+02 -0.12437758088E+02  0.94206516459E+02  0.89031618624E+02 0.  0.
         13    1    3    3    0    0  0.14790609312E+02  0.52097954612E+02 -0.30162748364E+02  0.61990011707E+02  0.10566000000E+00 0.  1.
         22    1    1    0    0    0 -0.12378725643E+02 -0.25304307020E+02  0.12437758088E+02  0.30793483541E+02  0.00000000000E+00 0.  1.
</event>
<event>
 5    1  0.6835419E-004  0.9118800E+02  0.7818608E-02  0.1130116E+00
         25   -1    0    0    0    0  0.00000000000E+00  0.00000000000E+00  0.99999998245E-14  0.12500000000E+03  0.12500000000E+03 0.  0.
        -13    1    3    3    0    0  0.36515258761E+02  0.81168648038E+01  0.24785218951E+02  0.44872774141E+02  0.10566000000E+00 0.  1.
         23    2    1    0    0    0  0.53409483195E+01 -0.27552904513E+02  0.38273526217E+01  0.96674447858E+02  0.92431661050E+02 0.  0.
         13    1    3    3    0    0 -0.31174310442E+02 -0.35669769317E+02 -0.20957866330E+02  0.51801673716E+02  0.10566000000E+00 0. -1.
         22    1    1    0    0    0 -0.53409483195E+01  0.27552904513E+02 -0.38273526217E+01  0.28325552142E+02  0.00000000000E+00 0. -1.
</event>
<event>
 5    1  0.6835419E-004  0.9118800E+02  0.7818608E-02  0.1130116E+00
         25   -1    0    0    0    0  0.00000000000E+00  0.00000000000E+00  0.99999998245E-14  0.12500000000E+03  0.12500000000E+03 0.  0.
        -13    1    3    3    0    0 -0.36982120366E+02 -0.15564278588E+02  0.33956631661E+02  0.52564132186E+02  0.10566000000E+00 0. -1.
         23    2    1    0    0    0  0.51305165274E+00  0.40359723115E+01  0.29627749508E+02  0.95094217359E+02  0.90269343299E+02 0.  0.
         13    1    3    3    0    0  0.37495172018E+02  0.19600250900E+02 -0.43288821529E+01  0.42530085172E+02  0.10566000000E+00 0.  1.
         22    1    1    0    0    0 -0.51305165274E+00 -0.40359723115E+01 -0.29627749508E+02  0.29905782641E+02  0.00000000000E+00 0.  1.
</event>
<event>
 5    1  0.6835419E-004  0.9118800E+02  0.7818608E-02  0.1130116E+00
         25   -1    0    0    0    0  0.00000000000E+00  0.00000000000E+00  0.99999998245E-14  0.12500000000E+03  0.12500000000E+03 0.  0.
        -13    1    3    3    0    0  0.72048309678E+01  0.27827098403E+02 -0.22076216795E+02  0.36243999597E+02  0.10566000000E+00 0.  1.
         23    2    1    0    0    0  0.13578253839E+02 -0.21884659904E+02  0.11731318833E+02  0.96699272836E+02  0.92465227026E+02 0.  0.
         13    1    3    3    0    0  0.63734228713E+01 -0.49711758307E+02  0.33807535628E+02  0.60455273239E+02  0.10566000000E+00 0. -1.
         22    1    1    0    0    0 -0.13578253839E+02  0.21884659904E+02 -0.11731318833E+02  0.28300727164E+02  0.00000000000E+00 0. -1.
</event>
<event>
 5    1  0.6835419E-004  0.9118800E+02  0.7818608E-02  0.1130116E+00
         25   -1    0    0    0    0  0.00000000000E+00  0.00000000000E+00  0.99999998245E-14  0.12500000000E+03  0.12500000000E+03 0.  0.
        -13    1    3    3    0    0 -0.31227132346E+02  0.25755839427E+02 -0.75236038562E+00  0.40485482205E+02  0.10566000000E+00 0. -1.
         23    2    1    0    0    0 -0.57105833794E+01 -0.20527492745E+02  0.18548269831E+02  0.96750627712E+02  0.92534625562E+02 0.  0.
         13    1    3    3    0    0  0.25516548967E+02 -0.46283332172E+02  0.19300630217E+02  0.56265145507E+02  0.10566000000E+00 0.  1.
         22    1    1    0    0    0  0.57105833794E+01  0.20527492745E+02 -0.18548269831E+02  0.28249372288E+02  0.00000000000E+00 0.  1.
</event>
<event>
 5    1  0.6835419E-004  0.9118800E+02  0.7818608E-02  0.1130116E+00
         25   -1    0    0    0    0  0.00000000000E+00  0.00000000000E+00  0.99999998245E-14  0.12500000000E+03  0.12500000000E+03 0.  0.
        -13    1    3    3    0    0  0.14878243198E+02  0.39756230057E+02  0.63446967954E+01  0.42920697693E+02  0.10566000000E+00 0. -1.
         23    2    1    0    0    0  0.17071082800E+01  0.32324638266E+01 -0.29207211190E+02  0.95564915041E+02  0.90918803117E+02 0.  0.
         13    1    3    3    0    0 -0.13171134918E+02 -0.36523766230E+02 -0.35551907985E+02  0.52644217347E+02  0.10566000000E+00 0.  1.
         22    1    1    0    0    0 -0.17071082800E+01 -0.32324638266E+01  0.29207211190E+02  0.29435084959E+02  0.00000000000E+00 0.  1.
</event>
<event>
 5    1  0.6835419E-004  0.9118800E+02  0.7818608E-02  0.1130116E+00
         25   -1    0    0    0    0  0.00000000000E+00  0.00000000000E+00  0.99999998245E-14  0.12500000000E+03  0.12500000000E+03 0.  0.
        -13    1    3    3    0    0  0.19873645370E+02 -0.10545363339E+02  0.10932045486E+02  0.25013741239E+02  0.10566000000E+00 0.  1.
         23    2    1    0    0    0 -0.24913245628E+02  0.24622994815E+02  0.22831077715E+02  0.83188281655E+02  0.71917107934E+02 0.  0.
         13    1    3    3    0    0 -0.44786890998E+02  0.35168358154E+02  0.11899032229E+02  0.58174540415E+02  0.10566000000E+00 0. -1.
         22    1    1    0    0    0  0.24913245628E+02 -0.24622994815E+02 -0.22831077715E+02  0.41811718345E+02  0.00000000000E+00 0. -1.
</event>
<event>
 5    1  0.6835419E-004  0.9118800E+02  0.7818608E-02  0.1130116E+00
         25   -1    0    0    0    0  0.00000000000E+00  0.00000000000E+00  0.99999998245E-14  0.12500000000E+03  0.12500000000E+03 0.  0.
        -13    1    3    3    0    0 -0.20587300704E+02 -0.18152839510E+02 -0.24638415449E+02  0.36883942474E+02  0.10566000000E+00 0.  1.
         23    2    1    0    0    0  0.19149338849E+01 -0.76672465315E+01  0.28440705546E+02  0.95481745087E+02  0.90804384651E+02 0.  0.
         13    1    3    3    0    0  0.22502234589E+02  0.10485592979E+02  0.53079120994E+02  0.58597802614E+02  0.10566000000E+00 0. -1.
         22    1    1    0    0    0 -0.19149338849E+01  0.76672465315E+01 -0.28440705546E+02  0.29518254913E+02  0.00000000000E+00 0. -1.
</event>
<event>
 5    1  0.6835419E-004  0.9118800E+02  0.7818608E-02  0.1130116E+00
         25   -1    0    0    0    0  0.00000000000E+00  0.00000000000E+00  0.99999998245E-14  0.12500000000E+03  0.12500000000E+03 0.  0.
        -13    1    3    3    0    0  0.94259756925E+01  0.31255399907E+02  0.39027055927E+02  0.50880952226E+02  0.10566000000E+00 0.  1.
         23    2    1    0    0    0 -0.15755947826E+01 -0.10388867494E+02  0.27634517488E+02  0.95435196204E+02  0.90740283507E+02 0.  0.
         13    1    3    3    0    0 -0.11001570475E+02 -0.41644267401E+02 -0.11392538439E+02  0.44554243978E+02  0.10566000000E+00 0. -1.
         22    1    1    0    0    0  0.15755947826E+01  0.10388867494E+02 -0.27634517488E+02  0.29564803796E+02  0.00000000000E+00 0.  1.
</event>
<event>
 5    1  0.6835419E-004  0.9118800E+02  0.7818608E-02  0.1130116E+00
         25   -1    0    0    0    0  0.00000000000E+00  0.00000000000E+00  0.99999998245E-14  0.12500000000E+03  0.12500000000E+03 0.  0.
        -13    1    3    3    0    0 -0.83816955020E+01 -0.23564358399E+02  0.15444572524E+02  0.29395200131E+02  0.10566000000E+00 0. -1.
         23    2    1    0    0    0 -0.16424348454E+02  0.33067989107E+02  0.92968524292E+01  0.86925302486E+02  0.78142981908E+02 0.  0.
         13    1    3    3    0    0 -0.80426529518E+01  0.56632347506E+02 -0.61477200945E+01  0.57530102355E+02  0.10566000000E+00 0.  1.
         22    1    1    0    0    0  0.16424348454E+02 -0.33067989107E+02 -0.92968524292E+01  0.38074697514E+02  0.00000000000E+00 0.  1.
</event>
<event>
 5    1  0.6835419E-004  0.9118800E+02  0.7818608E-02  0.1130116E+00
         25   -1    0    0    0    0  0.00000000000E+00  0.00000000000E+00  0.99999998245E-14  0.12500000000E+03  0.12500000000E+03 0.  0.
        -13    1    3    3    0    0  0.23360429372E+02 -0.22150187282E+02 -0.15390561314E+02  0.35682222446E+02  0.10566000000E+00 0. -1.
         23    2    1    0    0    0 -0.57961273970E+01  0.24540797935E+02  0.11893513653E+02  0.97119872254E+02  0.93032080830E+02 0.  0.
         13    1    3    3    0    0 -0.29156556769E+02  0.46690985217E+02  0.27284074967E+02  0.61437649809E+02  0.10566000000E+00 0.  1.
         22    1    1    0    0    0  0.57961273970E+01 -0.24540797935E+02 -0.11893513653E+02  0.27880127746E+02  0.00000000000E+00 0.  1.
</event>
<event>
 5    1  0.6835419E-004  0.9118800E+02  0.7818608E-02  0.1130116E+00
         25   -1    0    0    0    0  0.00000000000E+00  0.00000000000E+00  0.99999998245E-14  0.12500000000E+03  0.12500000000E+03 0.  0.
        -13    1    3    3    0    0 -0.28659227478E+02 -0.30738739065E+01  0.25820133344E+02  0.38697422012E+02  0.10566000000E+00 0.  1.
         23    2    1    0    0    0  0.12772192692E+02 -0.20991763963E+02 -0.12062219344E+02  0.97627017043E+02  0.93711014619E+02 0.  0.
         13    1    3    3    0    0  0.41431420169E+02 -0.17917890057E+02 -0.37882352688E+02  0.58929595032E+02  0.10566000000E+00 0. -1.
         22    1    1    0    0    0 -0.12772192692E+02  0.20991763963E+02  0.12062219344E+02  0.27372982957E+02  0.00000000000E+00 0. -1.
</event>
<event>
 5    1  0.6835419E-004  0.9118800E+02  0.7818608E-02  0.1130116E+00
         25   -1    0    0    0    0  0.00000000000E+00  0.00000000000E+00  0.99999998245E-14  0.12500000000E+03  0.12500000000E+03 0.  0.
        -13    1    3    3    0    0 -0.40129744770E+02  0.23915391884E+02  0.28714833695E+02  0.54835164105E+02  0.10566000000E+00 0.  1.
         23    2    1    0    0    0 -0.22481050859E+02  0.17293733977E+02 -0.74997723926E+01  0.95662013216E+02  0.91052200984E+02 0.  0.
         13    1    3    3    0    0  0.17648693912E+02 -0.66216579068E+01 -0.36214606088E+02  0.40826849111E+02  0.10566000000E+00 0. -1.
         22    1    1    0    0    0  0.22481050859E+02 -0.17293733977E+02  0.74997723926E+01  0.29337986784E+02  0.00000000000E+00 0.  1.
</event>
<event>
 5    1  0.6835419E-004  0.9118800E+02  0.7818608E-02  0.1130116E+00
         25   -1    0    0    0    0  0.00000000000E+00  0.00000000000E+00  0.99999998245E-14  0.12500000000E+03  0.12500000000E+03 0.  0.
        -13    1    3    3    0    0 -0.50312484175E+02 -0.31857918950E+02  0.83515509259E+01  0.60133456832E+02  0.10566000000E+00 0. -1.
         23    2    1    0    0    0 -0.15908672744E+02 -0.23794325093E+02  0.29844836198E+00  0.96375799635E+02  0.92026897747E+02 0.  0.
         13    1    3    3    0    0  0.34403811431E+02  0.80635938575E+01 -0.80531025639E+01  0.36242342803E+02  0.10566000000E+00 0.  1.
         22    1    1    0    0    0  0.15908672744E+02  0.23794325093E+02 -0.29844836198E+00  0.28624200365E+02  0.00000000000E+00 0. -1.
</event>
<event>
 5    1  0.6835419E-004  0.9118800E+02  0.7818608E-02  0.1130116E+00
         25   -1    0    0    0    0  0.00000000000E+00  0.00000000000E+00  0.99999998245E-14  0.12500000000E+03  0.12500000000E+03 0.  0.
        -13    1    3    3    0    0 -0.11686790446E+02 -0.73232454077E+01 -0.22428958149E+02  0.26330216898E+02  0.10566000000E+00 0.  1.
         23    2    1    0    0    0 -0.28875233451E+02  0.18483939283E+02  0.24699819048E+02  0.82744631356E+02  0.71141814983E+02 0.  0.
         13    1    3    3    0    0 -0.17188443005E+02  0.25807184691E+02  0.47128777196E+02  0.56414414458E+02  0.10566000000E+00 0. -1.
         22    1    1    0    0    0  0.28875233451E+02 -0.18483939283E+02 -0.24699819048E+02  0.42255368644E+02  0.00000000000E+00 0. -1.
</event>
<event>
 5    1  0.6835419E-004  0.9118800E+02  0.7818608E-02  0.1130116E+00
         25   -1    0    0    0    0  0.00000000000E+00  0.00000000000E+00  0.99999998245E-14  0.12500000000E+03  0.12500000000E+03 0.  0.
        -13    1    3    3    0    0 -0.16687208381E+02  0.28711574541E+02  0.24327918980E+02  0.41166445585E+02  0.10566000000E+00 0.  1.
         23    2    1    0    0    0 -0.17399824324E+02 -0.52112627124E+01 -0.20644310572E+02  0.97502750964E+02  0.93545110728E+02 0.  0.
         13    1    3    3    0    0 -0.71261594315E+00 -0.33922837254E+02 -0.44972229552E+02  0.56336305379E+02  0.10566000000E+00 0. -1.
         22    1    1    0    0    0  0.17399824324E+02  0.52112627124E+01  0.20644310572E+02  0.27497249036E+02  0.00000000000E+00 0. -1.
</event>
<event>
 5    1  0.6835419E-004  0.9118800E+02  0.7818608E-02  0.1130116E+00
         25   -1    0    0    0    0  0.00000000000E+00  0.00000000000E+00  0.99999998245E-14  0.12500000000E+03  0.12500000000E+03 0.  0.
        -13    1    3    3    0    0  0.54055736928E+02  0.63074035200E+01 -0.28589435869E+02  0.61474978986E+02  0.10566000000E+00 0.  1.
         23    2    1    0    0    0  0.26724420244E+02  0.10090985204E+02 -0.10047859938E+02  0.94718287547E+02  0.89747266737E+02 0.  0.
         13    1    3    3    0    0 -0.27331316684E+02  0.37835816843E+01  0.18541575931E+02  0.33243308561E+02  0.10566000000E+00 0. -1.
         22    1    1    0    0    0 -0.26724420244E+02 -0.10090985204E+02  0.10047859938E+02  0.30281712453E+02  0.00000000000E+00 0.  1.
</event>
<event>
 5    1  0.6835419E-004  0.9118800E+02  0.7818608E-02  0.1130116E+00
         25   -1    0    0    0    0  0.00000000000E+00  0.00000000000E+00  0.99999998245E-14  0.12500000000E+03  0.12500000000E+03 0.  0.
        -13    1    3    3    0    0  0.31063439270E+02 -0.18561123035E+02 -0.21296511249E+02  0.41988154317E+02  0.10566000000E+00 0. -1.
         23    2    1    0    0    0  0.17999436006E+02  0.17855606155E+02  0.15419283521E+02  0.95325824830E+02  0.90589492810E+02 0.  0.
         13    1    3    3    0    0 -0.13064003263E+02  0.36416729189E+02  0.36715794770E+02  0.53337670513E+02  0.10566000000E+00 0.  1.
         22    1    1    0    0    0 -0.17999436006E+02 -0.17855606155E+02 -0.15419283521E+02  0.29674175170E+02  0.00000000000E+00 0.  1.
</event>
<event>
 5    1  0.6835419E-004  0.9118800E+02  0.7818608E-02  0.1130116E+00
         25   -1    0    0    0    0  0.00000000000E+00  0.00000000000E+00  0.99999998245E-14  0.12500000000E+03  0.12500000000E+03 0.  0.
        -13    1    3    3    0    0 -0.30695400156E+02 -0.15226666201E+02 -0.29407300580E+02  0.45153731250E+02  0.10566000000E+00 0. -1.
         23    2    1    0    0    0 -0.47323221454E+01 -0.14747343414E+02  0.19241655551E+02  0.10029938626E+03  0.97210321292E+02 0.  0.
         13    1    3    3    0    0  0.25963078011E+02  0.47932278726E+00  0.48648956131E+02  0.55145655013E+02  0.10566000000E+00 0.  1.
         22    1    1    0    0    0  0.47323221454E+01  0.14747343414E+02 -0.19241655551E+02  0.24700613737E+02  0.00000000000E+00 0.  1.
</event>
<event>
 5    1  0.6835419E-004  0.9118800E+02  0.7818608E-02  0.1130116E+00
         25   -1    0    0    0    0  0.00000000000E+00  0.00000000000E+00  0.99999998245E-14  0.12500000000E+03  0.12500000000E+03 0.  0.
        -13    1    3    3    0    0 -0.31432634267E+02 -0.41481109319E+02 -0.18007413569E+02  0.55072416279E+02  0.10566000000E+00 0. -1.
         23    2    1    0    0    0 -0.29653645549E+02 -0.58550193973E+01 -0.59040830977E+00  0.94768087581E+02  0.89816601446E+02 0.  0.
         13    1    3    3    0    0  0.17789887177E+01  0.35626089921E+02  0.17417005259E+02  0.39695671303E+02  0.10566000000E+00 0.  1.
         22    1    1    0    0    0  0.29653645549E+02  0.58550193973E+01  0.59040830977E+00  0.30231912419E+02  0.00000000000E+00 0. -1.
</event>
<event>
 5    1  0.6835419E-004  0.9118800E+02  0.7818608E-02  0.1130116E+00
         25   -1    0    0    0    0  0.00000000000E+00  0.00000000000E+00  0.99999998245E-14  0.12500000000E+03  0.12500000000E+03 0.  0.
        -13    1    3    3    0    0 -0.24809035652E+02  0.73884241782E+01 -0.51114396775E+02  0.57295460409E+02  0.10566000000E+00 0. -1.
         23    2    1    0    0    0 -0.88297792336E+01  0.16812094559E+02 -0.76978967735E+01  0.10450929139E+03  0.10248084136E+03 0.  0.
         13    1    3    3    0    0  0.15979256418E+02  0.94236703804E+01  0.43416500001E+02  0.47213830977E+02  0.10566000000E+00 0.  1.
         22    1    1    0    0    0  0.88297792336E+01 -0.16812094559E+02  0.76978967735E+01  0.20490708614E+02  0.00000000000E+00 0. -1.
</event>
<event>
 5    1  0.6835419E-004  0.9118800E+02  0.7818608E-02  0.1130116E+00
         25   -1    0    0    0    0  0.00000000000E+00  0.00000000000E+00  0.99999998245E-14  0.12500000000E+03  0.12500000000E+03 0.  0.
        -13    1    3    3    0    0  0.11189511582E+02  0.72386022910E+01  0.40370077400E+02  0.42513019722E+02  0.10566000000E+00 0.  1.
         23    2    1    0    0    0  0.23879435510E+02  0.21986940049E+02 -0.52585860066E+01  0.92116786960E+02  0.86047642269E+02 0.  0.
         13    1    3    3    0    0  0.12689923928E+02  0.14748337758E+02 -0.45628663407E+02  0.49603767238E+02  0.10566000000E+00 0. -1.
         22    1    1    0    0    0 -0.23879435510E+02 -0.21986940049E+02  0.52585860066E+01  0.32883213040E+02  0.00000000000E+00 0. -1.
</event>
<event>
 5    1  0.6835419E-004  0.9118800E+02  0.7818608E-02  0.1130116E+00
         25   -1    0    0    0    0  0.00000000000E+00  0.00000000000E+00  0.99999998245E-14  0.12500000000E+03  0.12500000000E+03 0.  0.
        -13    1    3    3    0    0 -0.16712440956E+02 -0.44713330646E+02  0.69285207061E+01  0.48234875177E+02  0.10566000000E+00 0.  1.
         23    2    1    0    0    0 -0.20482486940E+02 -0.65397853126E+01 -0.20421699211E+02  0.95346216737E+02  0.90617626234E+02 0.  0.
         13    1    3    3    0    0 -0.37700459834E+01  0.38173545333E+02 -0.27350219917E+02  0.47111341560E+02  0.10566000000E+00 0. -1.
         22    1    1    0    0    0  0.20482486940E+02  0.65397853126E+01  0.20421699211E+02  0.29653783263E+02  0.00000000000E+00 0. -1.
</event>
<event>
 5    1  0.6835419E-004  0.9118800E+02  0.7818608E-02  0.1130116E+00
         25   -1    0    0    0    0  0.00000000000E+00  0.00000000000E+00  0.99999998245E-14  0.12500000000E+03  0.12500000000E+03 0.  0.
        -13    1    3    3    0    0  0.11420708962E+02  0.42932836274E+02  0.68148134715E+01  0.44945676883E+02  0.10566000000E+00 0.  1.
         23    2    1    0    0    0 -0.11970356383E+02 -0.58970344478E+00 -0.20388826043E+02  0.10134960023E+03  0.98551509660E+02 0.  0.
         13    1    3    3    0    0 -0.23391065345E+02 -0.43522539719E+02 -0.27203639515E+02  0.56403923343E+02  0.10566000000E+00 0. -1.
         22    1    1    0    0    0  0.11970356383E+02  0.58970344478E+00  0.20388826043E+02  0.23650399775E+02  0.00000000000E+00 0. -1.
</event>
<event>
 5    1  0.6835419E-004  0.9118800E+02  0.7818608E-02  0.1130116E+00
         25   -1    0    0    0    0  0.00000000000E+00  0.00000000000E+00  0.99999998245E-14  0.12500000000E+03  0.12500000000E+03 0.  0.
        -13    1    3    3    0    0  0.13805624655E+02  0.32451546316E+02  0.27984944217E+02  0.45020732972E+02  0.10566000000E+00 0. -1.
         23    2    1    0    0    0  0.81413305255E+01 -0.19626213662E+02  0.15554108700E+01  0.10369533318E+03  0.10148316754E+03 0.  0.
         13    1    3    3    0    0 -0.56642941294E+01 -0.52077759979E+02 -0.26429533347E+02  0.58674600206E+02  0.10566000000E+00 0.  1.
         22    1    1    0    0    0 -0.81413305255E+01  0.19626213662E+02 -0.15554108700E+01  0.21304666822E+02  0.00000000000E+00 0. -1.
</event>
<event>
 5    1  0.6835419E-004  0.9118800E+02  0.7818608E-02  0.1130116E+00
         25   -1    0    0    0    0  0.00000000000E+00  0.00000000000E+00  0.99999998245E-14  0.12500000000E+03  0.12500000000E+03 0.  0.
        -13    1    3    3    0    0  0.20409173474E+02  0.98033723413E+01  0.34514610115E+02  0.41278444091E+02  0.10566000000E+00 0. -1.
         23    2    1    0    0    0 -0.19606923501E+02 -0.17943598789E+02  0.58439875820E+01  0.97786834481E+02  0.93923951260E+02 0.  0.
         13    1    3    3    0    0 -0.40016096975E+02 -0.27746971131E+02 -0.28670622533E+02  0.56508390390E+02  0.10566000000E+00 0.  1.
         22    1    1    0    0    0  0.19606923501E+02  0.17943598789E+02 -0.58439875820E+01  0.27213165519E+02  0.00000000000E+00 0.  1.
</event>
<event>
 5    1  0.6835419E-004  0.9118800E+02  0.7818608E-02  0.1130116E+00
         25   -1    0    0    0    0  0.00000000000E+00  0.00000000000E+00  0.99999998245E-14  0.12500000000E+03  0.12500000000E+03 0.  0.
        -13    1    3    3    0    0  0.44426983959E+01 -0.28607074889E+02 -0.53717088953E+02  0.61021628234E+02  0.10566000000E+00 0.  1.
         23    2    1    0    0    0 -0.61194211789E+01 -0.18303174783E+02 -0.23979316355E+02  0.94219143359E+02  0.89049344971E+02 0.  0.
         13    1    3    3    0    0 -0.10562119575E+02  0.10303900106E+02  0.29737772598E+02  0.33197515124E+02  0.10566000000E+00 0. -1.
         22    1    1    0    0    0  0.61194211789E+01  0.18303174783E+02  0.23979316355E+02  0.30780856641E+02  0.00000000000E+00 0.  1.
</event>
<event>
 5    1  0.6835419E-004  0.9118800E+02  0.7818608E-02  0.1130116E+00
         25   -1    0    0    0    0  0.00000000000E+00  0.00000000000E+00  0.99999998245E-14  0.12500000000E+03  0.12500000000E+03 0.  0.
        -13    1    3    3    0    0  0.89114449420E+01  0.29234023137E+02  0.20133497446E+02  0.36597962281E+02  0.10566000000E+00 0.  1.
         23    2    1    0    0    0 -0.11995026082E+02 -0.24921579343E+02  0.10356664363E+02  0.95466522989E+02  0.90783427712E+02 0.  0.
         13    1    3    3    0    0 -0.20906471024E+02 -0.54155602480E+02 -0.97768330826E+01  0.58868560707E+02  0.10566000000E+00 0. -1.
         22    1    1    0    0    0  0.11995026082E+02  0.24921579343E+02 -0.10356664363E+02  0.29533477011E+02  0.00000000000E+00 0. -1.
</event>
<event>
 5    1  0.6835419E-004  0.9118800E+02  0.7818608E-02  0.1130116E+00
         25   -1    0    0    0    0  0.00000000000E+00  0.00000000000E+00  0.99999998245E-14  0.12500000000E+03  0.12500000000E+03 0.  0.
        -13    1    3    3    0    0 -0.42113108578E+02  0.17009272945E+02 -0.20091451179E+02  0.49663939179E+02  0.10566000000E+00 0.  1.
         23    2    1    0    0    0 -0.26252012151E+02 -0.64467897945E+01  0.14466185089E+02  0.94340584616E+02  0.89219651165E+02 0.  0.
         13    1    3    3    0    0  0.15861096427E+02 -0.23456062739E+02  0.34557636268E+02  0.44676645437E+02  0.10566000000E+00 0. -1.
         22    1    1    0    0    0  0.26252012151E+02  0.64467897945E+01 -0.14466185089E+02  0.30659415384E+02  0.00000000000E+00 0. -1.
</event>
<event>
 5    1  0.6835419E-004  0.9118800E+02  0.7818608E-02  0.1130116E+00
         25   -1    0    0    0    0  0.00000000000E+00  0.00000000000E+00  0.99999998245E-14  0.12500000000E+03  0.12500000000E+03 0.  0.
        -13    1    3    3    0    0 -0.24529965175E+02 -0.50432684030E+02 -0.23134051244E+02  0.60666055591E+02  0.10566000000E+00 0.  1.
         23    2    1    0    0    0 -0.13700700870E+02 -0.18473524434E+02 -0.19938323916E+02  0.94561257090E+02  0.89528287555E+02 0.  0.
         13    1    3    3    0    0  0.10829264305E+02  0.31959159596E+02  0.31957273282E+01  0.33895201499E+02  0.10566000000E+00 0. -1.
         22    1    1    0    0    0  0.13700700870E+02  0.18473524434E+02  0.19938323916E+02  0.30438742910E+02  0.00000000000E+00 0.  1.
</event>
<event>
 5    1  0.6835419E-004  0.9118800E+02  0.7818608E-02  0.1130116E+00
         25   -1    0    0    0    0  0.00000000000E+00  0.00000000000E+00  0.99999998245E-14  0.12500000000E+03  0.12500000000E+03 0.  0.
        -13    1    3    3    0    0 -0.10835546926E+02  0.32239850165E+02 -0.43489757469E+02  0.55210390187E+02  0.10566000000E+00 0. -1.
         23    2    1    0    0    0  0.15976268849E+02  0.15054359965E+02 -0.23653929528E+02  0.92729528941E+02  0.86933205596E+02 0.  0.
         13    1    3    3    0    0  0.26811815776E+02 -0.17185490201E+02  0.19835827942E+02  0.37519138753E+02  0.10566000000E+00 0.  1.
         22    1    1    0    0    0 -0.15976268849E+02 -0.15054359965E+02  0.23653929528E+02  0.32270471059E+02  0.00000000000E+00 0. -1.
</event>
<event>
 5    1  0.6835419E-004  0.9118800E+02  0.7818608E-02  0.1130116E+00
         25   -1    0    0    0    0  0.00000000000E+00  0.00000000000E+00  0.99999998245E-14  0.12500000000E+03  0.12500000000E+03 0.  0.
        -13    1    3    3    0    0  0.18651429906E+02 -0.57291843367E+02  0.30988856905E+00  0.60252289159E+02  0.10566000000E+00 0.  1.
         23    2    1    0    0    0  0.77891664542E+01 -0.28500725815E+02 -0.11613268885E+02  0.93253653750E+02  0.87683598452E+02 0.  0.
         13    1    3    3    0    0 -0.10862263452E+02  0.28791117552E+02 -0.11923157454E+02  0.33001364591E+02  0.10566000000E+00 0. -1.
         22    1    1    0    0    0 -0.77891664542E+01  0.28500725815E+02  0.11613268885E+02  0.31746346250E+02  0.00000000000E+00 0.  1.
</event>
<event>
 5    1  0.6835419E-004  0.9118800E+02  0.7818608E-02  0.1130116E+00
         25   -1    0    0    0    0  0.00000000000E+00  0.00000000000E+00  0.99999998245E-14  0.12500000000E+03  0.12500000000E+03 0.  0.
        -13    1    3    3    0    0  0.44693793853E+01 -0.76148554650E+01  0.24743907902E+02  0.26272295639E+02  0.10566000000E+00 0.  1.
         23    2    1    0    0    0 -0.15885827069E+02  0.19572909514E+02 -0.26932610183E+02  0.88110654929E+02  0.80016646595E+02 0.  0.
         13    1    3    3    0    0 -0.20355206454E+02  0.27187764979E+02 -0.51676518085E+02  0.61838359290E+02  0.10566000000E+00 0. -1.
         22    1    1    0    0    0  0.15885827069E+02 -0.19572909514E+02  0.26932610183E+02  0.36889345071E+02  0.00000000000E+00 0. -1.
</event>
<event>
 5    1  0.6835419E-004  0.9118800E+02  0.7818608E-02  0.1130116E+00
         25   -1    0    0    0    0  0.00000000000E+00  0.00000000000E+00  0.99999998245E-14  0.12500000000E+03  0.12500000000E+03 0.  0.
        -13    1    3    3    0    0  0.62996574807E+01 -0.25003566693E+02 -0.21606876755E+02  0.33641229450E+02  0.10566000000E+00 0.  1.
         23    2    1    0    0    0  0.55186141883E+00  0.23361366342E+02  0.17256035885E+02  0.95951269170E+02  0.91448440624E+02 0.  0.
         13    1    3    3    0    0 -0.57477960619E+01  0.48364933035E+02  0.38862912640E+02  0.62310039720E+02  0.10566000000E+00 0. -1.
         22    1    1    0    0    0 -0.55186141883E+00 -0.23361366342E+02 -0.17256035885E+02  0.29048730830E+02  0.00000000000E+00 0. -1.
</event>
<event>
 5    1  0.6835419E-004  0.9118800E+02  0.7818608E-02  0.1130116E+00
         25   -1    0    0    0    0  0.00000000000E+00  0.00000000000E+00  0.99999998245E-14  0.12500000000E+03  0.12500000000E+03 0.  0.
        -13    1    3    3    0    0  0.48830790471E+02  0.75214433039E+01 -0.20169402507E+01  0.49447926341E+02  0.10566000000E+00 0. -1.
         23    2    1    0    0    0  0.39493697268E+02 -0.11192691117E+02 -0.22045438141E+02  0.78405689176E+02  0.63058879580E+02 0.  0.
         13    1    3    3    0    0 -0.93370932029E+01 -0.18714134421E+02 -0.20028497890E+02  0.28957762835E+02  0.10566000000E+00 0.  1.
         22    1    1    0    0    0 -0.39493697268E+02  0.11192691117E+02  0.22045438141E+02  0.46594310824E+02  0.00000000000E+00 0.  1.
</event>
<event>
 5    1  0.6835419E-004  0.9118800E+02  0.7818608E-02  0.1130116E+00
         25   -1    0    0    0    0  0.00000000000E+00  0.00000000000E+00  0.99999998245E-14  0.12500000000E+03  0.12500000000E+03 0.  0.
        -13    1    3    3    0    0 -0.58387185256E+02 -0.11230003642E+02 -0.38733778561E+01  0.59583475931E+02  0.10566000000E+00 0.  1.
         23    2    1    0    0    0 -0.24727975206E+02  0.86272474723E+01 -0.55416320193E+00  0.98804403928E+02  0.95268572897E+02 0.  0.
         13    1    3    3    0    0  0.33659210050E+02  0.19857251114E+02  0.33192146542E+01  0.39220927997E+02  0.10566000000E+00 0. -1.
         22    1    1    0    0    0  0.24727975206E+02 -0.86272474723E+01  0.55416320193E+00  0.26195596072E+02  0.00000000000E+00 0.  1.
</event>
<event>
 5    1  0.6835419E-004  0.9118800E+02  0.7818608E-02  0.1130116E+00
         25   -1    0    0    0    0  0.00000000000E+00  0.00000000000E+00  0.99999998245E-14  0.12500000000E+03  0.12500000000E+03 0.  0.
        -13    1    3    3    0    0  0.41473477593E+02  0.32693545887E+02 -0.12384711679E+02  0.54243059775E+02  0.10566000000E+00 0.  1.
         23    2    1    0    0    0 -0.61890661607E+00  0.26876715342E+02 -0.79440850541E+01  0.96966995160E+02  0.92826444455E+02 0.  0.
         13    1    3    3    0    0 -0.42092384209E+02 -0.58168305444E+01  0.44406266252E+01  0.42723935386E+02  0.10566000000E+00 0. -1.
         22    1    1    0    0    0  0.61890661607E+00 -0.26876715342E+02  0.79440850541E+01  0.28033004840E+02  0.00000000000E+00 0.  1.
</event>
<event>
 5    1  0.6835419E-004  0.9118800E+02  0.7818608E-02  0.1130116E+00
         25   -1    0    0    0    0  0.00000000000E+00  0.00000000000E+00  0.99999998245E-14  0.12500000000E+03  0.12500000000E+03 0.  0.
        -13    1    3    3    0    0 -0.98854794424E+01 -0.19232043093E+02  0.38967450957E+02  0.44565318168E+02  0.10566000000E+00 0. -1.
         23    2    1    0    0    0 -0.23031746616E+02 -0.13936400266E+02 -0.10561568094E+02  0.96082335413E+02  0.91627418676E+02 0.  0.
         13    1    3    3    0    0 -0.13146267174E+02  0.52956428269E+01 -0.49529019051E+02  0.51517017244E+02  0.10566000000E+00 0.  1.
         22    1    1    0    0    0  0.23031746616E+02  0.13936400266E+02  0.10561568094E+02  0.28917664587E+02  0.00000000000E+00 0.  1.
</event>
<event>
 5    1  0.6835419E-004  0.9118800E+02  0.7818608E-02  0.1130116E+00
         25   -1    0    0    0    0  0.00000000000E+00  0.00000000000E+00  0.99999998245E-14  0.12500000000E+03  0.12500000000E+03 0.  0.
        -13    1    3    3    0    0 -0.10436721514E+02  0.34133194624E+02 -0.13482165316E+02  0.38154686171E+02  0.10566000000E+00 0.  1.
         23    2    1    0    0    0 -0.86291289952E+01 -0.15995559531E+02 -0.29099524725E+02  0.90691077966E+02  0.83950994583E+02 0.  0.
         13    1    3    3    0    0  0.18075925193E+01 -0.50128754155E+02 -0.15617359409E+02  0.52536391795E+02  0.10566000000E+00 0. -1.
         22    1    1    0    0    0  0.86291289952E+01  0.15995559531E+02  0.29099524725E+02  0.34308922034E+02  0.00000000000E+00 0. -1.
</event>
<event>
 5    1  0.6835419E-004  0.9118800E+02  0.7818608E-02  0.1130116E+00
         25   -1    0    0    0    0  0.00000000000E+00  0.00000000000E+00  0.99999998245E-14  0.12500000000E+03  0.12500000000E+03 0.  0.
        -13    1    3    3    0    0  0.12603187932E+02  0.26429592542E+02  0.34535507023E+02  0.45277766258E+02  0.10566000000E+00 0. -1.
         23    2    1    0    0    0  0.20860652766E+02  0.17574290384E+02 -0.13322375029E+02  0.94643646584E+02  0.89643246516E+02 0.  0.
         13    1    3    3    0    0  0.82574648341E+01 -0.88553021588E+01 -0.47857882052E+02  0.49365880326E+02  0.10566000000E+00 0.  1.
         22    1    1    0    0    0 -0.20860652766E+02 -0.17574290384E+02  0.13322375029E+02  0.30356353416E+02  0.00000000000E+00 0.  1.
</event>
<event>
 5    1  0.6835419E-004  0.9118800E+02  0.7818608E-02  0.1130116E+00
         25   -1    0    0    0    0  0.00000000000E+00  0.00000000000E+00  0.99999998245E-14  0.12500000000E+03  0.12500000000E+03 0.  0.
        -13    1    3    3    0    0 -0.74251230588E+01  0.35894560458E+01 -0.33734974769E+02  0.34728609731E+02  0.10566000000E+00 0. -1.
         23    2    1    0    0    0 -0.59415863770E+01  0.11085916323E+02  0.26616086754E+02  0.95561656577E+02  0.90914323098E+02 0.  0.
         13    1    3    3    0    0  0.14835366818E+01  0.74964602771E+01  0.60351061522E+02  0.60833046847E+02  0.10566000000E+00 0.  1.
         22    1    1    0    0    0  0.59415863770E+01 -0.11085916323E+02 -0.26616086754E+02  0.29438343423E+02  0.00000000000E+00 0.  1.
</event>
<event>
 5    1  0.6835419E-004  0.9118800E+02  0.7818608E-02  0.1130116E+00
         25   -1    0    0    0    0  0.00000000000E+00  0.00000000000E+00  0.99999998245E-14  0.12500000000E+03  0.12500000000E+03 0.  0.
        -13    1    3    3    0    0 -0.19859907144E+02  0.11646194506E+02  0.28262217954E+02  0.36452899555E+02  0.10566000000E+00 0. -1.
         23    2    1    0    0    0  0.23536287536E+02  0.10008514980E+02 -0.12958701247E+02  0.96328496009E+02  0.91962622854E+02 0.  0.
         13    1    3    3    0    0  0.43396194680E+02 -0.16376795255E+01 -0.41220919201E+02  0.59875596454E+02  0.10566000000E+00 0.  1.
         22    1    1    0    0    0 -0.23536287536E+02 -0.10008514980E+02  0.12958701247E+02  0.28671503991E+02  0.00000000000E+00 0.  1.
</event>
<event>
 5    1  0.6835419E-004  0.9118800E+02  0.7818608E-02  0.1130116E+00
         25   -1    0    0    0    0  0.00000000000E+00  0.00000000000E+00  0.99999998245E-14  0.12500000000E+03  0.12500000000E+03 0.  0.
        -13    1    3    3    0    0 -0.27717623433E+02  0.27940050273E+02 -0.54272455746E+00  0.39360116514E+02  0.10566000000E+00 0.  1.
         23    2    1    0    0    0  0.26470454790E+02  0.12181342627E+02 -0.17810641125E+01  0.95806811165E+02  0.91250768716E+02 0.  0.
         13    1    3    3    0    0  0.54188078222E+02 -0.15758707647E+02 -0.12383395551E+01  0.56446694651E+02  0.10566000000E+00 0. -1.
         22    1    1    0    0    0 -0.26470454790E+02 -0.12181342627E+02  0.17810641125E+01  0.29193188835E+02  0.00000000000E+00 0. -1.
</event>
<event>
 5    1  0.6835419E-004  0.9118800E+02  0.7818608E-02  0.1130116E+00
         25   -1    0    0    0    0  0.00000000000E+00  0.00000000000E+00  0.99999998245E-14  0.12500000000E+03  0.12500000000E+03 0.  0.
        -13    1    3    3    0    0  0.16023588540E+02 -0.30175744010E+02 -0.47611866071E+02  0.58602319673E+02  0.10566000000E+00 0.  1.
         23    2    1    0    0    0  0.93294539498E+01 -0.88551012714E+01 -0.41181871589E+02  0.81856077171E+02  0.69563059828E+02 0.  0.
         13    1    3    3    0    0 -0.66941345907E+01  0.21320642738E+02  0.64299944818E+01  0.23253757498E+02  0.10566000000E+00 0. -1.
         22    1    1    0    0    0 -0.93294539498E+01  0.88551012714E+01  0.41181871589E+02  0.43143922829E+02  0.00000000000E+00 0.  1.
</event>
<event>
 5    1  0.6835419E-004  0.9118800E+02  0.7818608E-02  0.1130116E+00
         25   -1    0    0    0    0  0.00000000000E+00  0.00000000000E+00  0.99999998245E-14  0.12500000000E+03  0.12500000000E+03 0.  0.
        -13    1    3    3    0    0  0.29822196320E+02  0.21261944317E+02 -0.72025024170E+01  0.37327213592E+02  0.10566000000E+00 0. -1.
         23    2    1    0    0    0 -0.61461187668E+01 -0.11347097635E+02  0.25882805107E+02  0.96078537366E+02  0.91622237157E+02 0.  0.
         13    1    3    3    0    0 -0.35968315087E+02 -0.32609041952E+02  0.33085307524E+02  0.58751323774E+02  0.10566000000E+00 0.  1.
         22    1    1    0    0    0  0.61461187668E+01  0.11347097635E+02 -0.25882805107E+02  0.28921462634E+02  0.00000000000E+00 0.  1.
</event>
<event>
 5    1  0.6835419E-004  0.9118800E+02  0.7818608E-02  0.1130116E+00
         25   -1    0    0    0    0  0.00000000000E+00  0.00000000000E+00  0.99999998245E-14  0.12500000000E+03  0.12500000000E+03 0.  0.
        -13    1    3    3    0    0  0.38981074252E+02 -0.14104854051E+02  0.28680825881E+02  0.50409046756E+02  0.10566000000E+00 0. -1.
         23    2    1    0    0    0 -0.90394885548E+01  0.42382902394E+01  0.20143636602E+02  0.10251797267E+03  0.10002246331E+03 0.  0.
         13    1    3    3    0    0 -0.48020562806E+02  0.18343144290E+02 -0.85371892785E+01  0.52108925910E+02  0.10566000000E+00 0.  1.
         22    1    1    0    0    0  0.90394885548E+01 -0.42382902394E+01 -0.20143636602E+02  0.22482027334E+02  0.00000000000E+00 0.  1.
</event>
<event>
 5    1  0.6835419E-004  0.9118800E+02  0.7818608E-02  0.1130116E+00
         25   -1    0    0    0    0  0.00000000000E+00  0.00000000000E+00  0.99999998245E-14  0.12500000000E+03  0.12500000000E+03 0.  0.
        -13    1    3    3    0    0 -0.34218387044E+02  0.75788827856E+01 -0.13500067554E+02  0.37557961395E+02  0.10566000000E+00 0. -1.
         23    2    1    0    0    0  0.11142449278E+02  0.44971200811E+01  0.25082539198E+02  0.97187915620E+02  0.93123460551E+02 0.  0.
         13    1    3    3    0    0  0.45360836322E+02 -0.30817627045E+01  0.38582606751E+02  0.59629954225E+02  0.10566000000E+00 0.  1.
         22    1    1    0    0    0 -0.11142449278E+02 -0.44971200811E+01 -0.25082539198E+02  0.27812084380E+02  0.00000000000E+00 0.  1.
</event>
<event>
 5    1  0.6835419E-004  0.9118800E+02  0.7818608E-02  0.1130116E+00
         25   -1    0    0    0    0  0.00000000000E+00  0.00000000000E+00  0.99999998245E-14  0.12500000000E+03  0.12500000000E+03 0.  0.
        -13    1    3    3    0    0 -0.80691550632E+01  0.44286098861E+02  0.84434963868E+01  0.45800366931E+02  0.10566000000E+00 0.  1.
         23    2    1    0    0    0 -0.25422773964E+02 -0.22142684067E+01  0.14249889935E+02  0.95771934998E+02  0.91202981034E+02 0.  0.
         13    1    3    3    0    0 -0.17353618901E+02 -0.46500367268E+02  0.58063935485E+01  0.49971568067E+02  0.10566000000E+00 0. -1.
         22    1    1    0    0    0  0.25422773964E+02  0.22142684067E+01 -0.14249889935E+02  0.29228065002E+02  0.00000000000E+00 0. -1.
</event>
<event>
 5    1  0.6835419E-004  0.9118800E+02  0.7818608E-02  0.1130116E+00
         25   -1    0    0    0    0  0.00000000000E+00  0.00000000000E+00  0.99999998245E-14  0.12500000000E+03  0.12500000000E+03 0.  0.
        -13    1    3    3    0    0 -0.45584563280E+02  0.13857288817E+02 -0.14473080575E+02  0.49794157169E+02  0.10566000000E+00 0.  1.
         23    2    1    0    0    0 -0.17107717114E+02 -0.22076643896E+02 -0.46096051424E+01  0.96692745627E+02  0.92456402736E+02 0.  0.
         13    1    3    3    0    0  0.28476846166E+02 -0.35933932713E+02  0.98634754330E+01  0.46898588459E+02  0.10566000000E+00 0. -1.
         22    1    1    0    0    0  0.17107717114E+02  0.22076643896E+02  0.46096051424E+01  0.28307254373E+02  0.00000000000E+00 0.  1.
</event>
<event>
 5    1  0.6835419E-004  0.9118800E+02  0.7818608E-02  0.1130116E+00
         25   -1    0    0    0    0  0.00000000000E+00  0.00000000000E+00  0.99999998245E-14  0.12500000000E+03  0.12500000000E+03 0.  0.
        -13    1    3    3    0    0  0.40935015448E+02 -0.20038884271E+02  0.22618183988E+02  0.50880504945E+02  0.10566000000E+00 0.  1.
         23    2    1    0    0    0  0.10096583029E+01 -0.27532318547E+02  0.18722825900E+02  0.91689458363E+02  0.85424613495E+02 0.  0.
         13    1    3    3    0    0 -0.39925357145E+02 -0.74934342760E+01 -0.38953580875E+01  0.40808953418E+02  0.10566000000E+00 0. -1.
         22    1    1    0    0    0 -0.10096583029E+01  0.27532318547E+02 -0.18722825900E+02  0.33310541637E+02  0.00000000000E+00 0.  1.
</event>
<event>
 5    1  0.6835419E-004  0.9118800E+02  0.7818608E-02  0.1130116E+00
         25   -1    0    0    0    0  0.00000000000E+00  0.00000000000E+00  0.99999998245E-14  0.12500000000E+03  0.12500000000E+03 0.  0.
        -13    1    3    3    0    0 -0.44302606875E+02 -0.22353761298E+02 -0.31569398827E+02  0.58813686557E+02  0.10566000000E+00 0.  1.
         23    2    1    0    0    0 -0.28710700027E+02 -0.21696146440E+02 -0.63701925124E+01  0.88454050580E+02  0.80551304427E+02 0.  0.
         13    1    3    3    0    0  0.15591906848E+02  0.65761485836E+00  0.25199206315E+02  0.29640364023E+02  0.10566000000E+00 0. -1.
         22    1    1    0    0    0  0.28710700027E+02  0.21696146440E+02  0.63701925124E+01  0.36545949420E+02  0.00000000000E+00 0.  1.
</event>
<event>
 5    1  0.6835419E-004  0.9118800E+02  0.7818608E-02  0.1130116E+00
         25   -1    0    0    0    0  0.00000000000E+00  0.00000000000E+00  0.99999998245E-14  0.12500000000E+03  0.12500000000E+03 0.  0.
        -13    1    3    3    0    0 -0.15019108351E+02 -0.31690549119E+02 -0.13105794826E+01  0.35094063625E+02  0.10566000000E+00 0.  1.
         23    2    1    0    0    0  0.27807852170E+02  0.89403663879E+01 -0.85356403049E+01  0.94568701163E+02  0.89538680417E+02 0.  0.
         13    1    3    3    0    0  0.42826960521E+02  0.40630915507E+02 -0.72250608223E+01  0.59474637538E+02  0.10566000000E+00 0. -1.
         22    1    1    0    0    0 -0.27807852170E+02 -0.89403663879E+01  0.85356403049E+01  0.30431298837E+02  0.00000000000E+00 0. -1.
</event>
<event>
 5    1  0.6835419E-004  0.9118800E+02  0.7818608E-02  0.1130116E+00
         25   -1    0    0    0    0  0.00000000000E+00  0.00000000000E+00  0.99999998245E-14  0.12500000000E+03  0.12500000000E+03 0.  0.
        -13    1    3    3    0    0 -0.13557956407E+02  0.21871007048E+02  0.21117202841E+02  0.33288234424E+02  0.10566000000E+00 0. -1.
         23    2    1    0    0    0  0.17001207034E+02 -0.26774104709E+02  0.56114844818E+01  0.92791577473E+02  0.87022378548E+02 0.  0.
         13    1    3    3    0    0  0.30559163441E+02 -0.48645111757E+02 -0.15505718359E+02  0.59503343049E+02  0.10566000000E+00 0.  1.
         22    1    1    0    0    0 -0.17001207034E+02  0.26774104709E+02 -0.56114844818E+01  0.32208422527E+02  0.00000000000E+00 0.  1.
</event>
<event>
 5    1  0.6835419E-004  0.9118800E+02  0.7818608E-02  0.1130116E+00
         25   -1    0    0    0    0  0.00000000000E+00  0.00000000000E+00  0.99999998245E-14  0.12500000000E+03  0.12500000000E+03 0.  0.
        -13    1    3    3    0    0 -0.13029934473E+01  0.23675654512E+00 -0.36678407528E+02  0.36702460250E+02  0.10566000000E+00 0. -1.
         23    2    1    0    0    0  0.23514266835E+00  0.24477718437E+02  0.16713265847E+02  0.95359702309E+02  0.90636226627E+02 0.  0.
         13    1    3    3    0    0  0.15381361157E+01  0.24240961892E+02  0.53391673375E+02  0.58657242059E+02  0.10566000000E+00 0.  1.
         22    1    1    0    0    0 -0.23514266835E+00 -0.24477718437E+02 -0.16713265847E+02  0.29640297691E+02  0.00000000000E+00 0.  1.
</event>
<event>
 5    1  0.6835419E-004  0.9118800E+02  0.7818608E-02  0.1130116E+00
         25   -1    0    0    0    0  0.00000000000E+00  0.00000000000E+00  0.99999998245E-14  0.12500000000E+03  0.12500000000E+03 0.  0.
        -13    1    3    3    0    0 -0.19430790562E+02  0.25814778753E+02  0.12026753963E+02  0.34476258481E+02  0.10566000000E+00 0.  1.
         23    2    1    0    0    0  0.13894738840E+01 -0.26658003645E+02 -0.11879242500E+02  0.95781920008E+02  0.91216665155E+02 0.  0.
         13    1    3    3    0    0  0.20820264446E+02 -0.52472782399E+02 -0.23905996463E+02  0.61305661527E+02  0.10566000000E+00 0. -1.
         22    1    1    0    0    0 -0.13894738840E+01  0.26658003645E+02  0.11879242500E+02  0.29218079992E+02  0.00000000000E+00 0. -1.
</event>
<event>
 5    1  0.6835419E-004  0.9118800E+02  0.7818608E-02  0.1130116E+00
         25   -1    0    0    0    0  0.00000000000E+00  0.00000000000E+00  0.99999998245E-14  0.12500000000E+03  0.12500000000E+03 0.  0.
        -13    1    3    3    0    0 -0.22453091389E+02 -0.87706459509E+01 -0.34349326719E+02  0.41963709958E+02  0.10566000000E+00 0.  1.
         23    2    1    0    0    0  0.18526622594E+02  0.18464888443E+02 -0.15081694375E+02  0.94806534561E+02  0.89870093136E+02 0.  0.
         13    1    3    3    0    0  0.40979713983E+02  0.27235534394E+02  0.19267632345E+02  0.52842824604E+02  0.10566000000E+00 0. -1.
         22    1    1    0    0    0 -0.18526622594E+02 -0.18464888443E+02  0.15081694375E+02  0.30193465439E+02  0.00000000000E+00 0. -1.
</event>
<event>
 5    1  0.6835419E-004  0.9118800E+02  0.7818608E-02  0.1130116E+00
         25   -1    0    0    0    0  0.00000000000E+00  0.00000000000E+00  0.99999998245E-14  0.12500000000E+03  0.12500000000E+03 0.  0.
        -13    1    3    3    0    0  0.15611946492E+02  0.27873805683E+02 -0.17209616339E+02  0.36288620463E+02  0.10566000000E+00 0.  1.
         23    2    1    0    0    0 -0.29274740298E+02 -0.47031055359E+01  0.27253513298E+01  0.95224890242E+02  0.90450110893E+02 0.  0.
         13    1    3    3    0    0 -0.44886686790E+02 -0.32576911219E+02  0.19934967669E+02  0.58936269780E+02  0.10566000000E+00 0. -1.
         22    1    1    0    0    0  0.29274740298E+02  0.47031055359E+01 -0.27253513298E+01  0.29775109758E+02  0.00000000000E+00 0. -1.
</event>
<event>
 5    1  0.6835419E-004  0.9118800E+02  0.7818608E-02  0.1130116E+00
         25   -1    0    0    0    0  0.00000000000E+00  0.00000000000E+00  0.99999998245E-14  0.12500000000E+03  0.12500000000E+03 0.  0.
        -13    1    3    3    0    0  0.54953573147E+02  0.28517307938E+01 -0.19171131847E+02  0.58271528472E+02  0.10566000000E+00 0. -1.
         23    2    1    0    0    0  0.23884748699E+02 -0.12819016628E+02 -0.22639538295E+00  0.97891704912E+02  0.94063415991E+02 0.  0.
         13    1    3    3    0    0 -0.31068824448E+02 -0.15670747422E+02  0.18944736464E+02  0.39620176439E+02  0.10566000000E+00 0.  1.
         22    1    1    0    0    0 -0.23884748699E+02  0.12819016628E+02  0.22639538295E+00  0.27108295088E+02  0.00000000000E+00 0. -1.
</event>
<event>
 5    1  0.6835419E-004  0.9118800E+02  0.7818608E-02  0.1130116E+00
         25   -1    0    0    0    0  0.00000000000E+00  0.00000000000E+00  0.99999998245E-14  0.12500000000E+03  0.12500000000E+03 0.  0.
        -13    1    3    3    0    0 -0.32301702521E+02  0.91713095123E+01 -0.25221313461E+02  0.41995698836E+02  0.10566000000E+00 0.  1.
         23    2    1    0    0    0  0.18755537627E+02 -0.69343420840E+01 -0.21464022501E+02  0.95664704642E+02  0.91055895804E+02 0.  0.
         13    1    3    3    0    0  0.51057240148E+02 -0.16105651596E+02  0.37572909604E+01  0.53669005807E+02  0.10566000000E+00 0. -1.
         22    1    1    0    0    0 -0.18755537627E+02  0.69343420840E+01  0.21464022501E+02  0.29335295358E+02  0.00000000000E+00 0. -1.
</event>
<event>
 5    1  0.6835419E-004  0.9118800E+02  0.7818608E-02  0.1130116E+00
         25   -1    0    0    0    0  0.00000000000E+00  0.00000000000E+00  0.99999998245E-14  0.12500000000E+03  0.12500000000E+03 0.  0.
        -13    1    3    3    0    0  0.68837510824E+01  0.55041359193E+02 -0.15338547283E+02  0.57551884830E+02  0.10566000000E+00 0. -1.
         23    2    1    0    0    0 -0.57841393733E+01  0.21207913012E+02 -0.21558008988E+02  0.94210722741E+02  0.89037524029E+02 0.  0.
         13    1    3    3    0    0 -0.12667890456E+02 -0.33833446180E+02 -0.62194617042E+01  0.36658837911E+02  0.10566000000E+00 0.  1.
         22    1    1    0    0    0  0.57841393733E+01 -0.21207913012E+02  0.21558008988E+02  0.30789277259E+02  0.00000000000E+00 0. -1.
</event>
<event>
 5    1  0.6835419E-004  0.9118800E+02  0.7818608E-02  0.1130116E+00
         25   -1    0    0    0    0  0.00000000000E+00  0.00000000000E+00  0.99999998245E-14  0.12500000000E+03  0.12500000000E+03 0.  0.
        -13    1    3    3    0    0 -0.86057767608E+01 -0.40162735848E+02 -0.39225557714E+02  0.56795777013E+02  0.10566000000E+00 0. -1.
         23    2    1    0    0    0 -0.11637380749E+01 -0.40361480750E+01 -0.29852574481E+02  0.94853342130E+02  0.89935174056E+02 0.  0.
         13    1    3    3    0    0  0.74420386859E+01  0.36126587773E+02  0.93729832328E+01  0.38057565117E+02  0.10566000000E+00 0.  1.
         22    1    1    0    0    0  0.11637380749E+01  0.40361480750E+01  0.29852574481E+02  0.30146657870E+02  0.00000000000E+00 0. -1.
</event>
<event>
 5    1  0.6835419E-004  0.9118800E+02  0.7818608E-02  0.1130116E+00
         25   -1    0    0    0    0  0.00000000000E+00  0.00000000000E+00  0.99999998245E-14  0.12500000000E+03  0.12500000000E+03 0.  0.
        -13    1    3    3    0    0  0.30017146659E+02 -0.35488522803E+02 -0.26403646406E+02  0.53456786771E+02  0.10566000000E+00 0. -1.
         23    2    1    0    0    0  0.60117515634E+01  0.61963879386E+01 -0.21526887442E+02  0.10180639607E+03  0.99129203655E+02 0.  0.
         13    1    3    3    0    0 -0.24005395096E+02  0.41684910742E+02  0.48767589640E+01  0.48349609298E+02  0.10566000000E+00 0.  1.
         22    1    1    0    0    0 -0.60117515634E+01 -0.61963879386E+01  0.21526887442E+02  0.23193603931E+02  0.00000000000E+00 0. -1.
</event>
<event>
 5    1  0.6835419E-004  0.9118800E+02  0.7818608E-02  0.1130116E+00
         25   -1    0    0    0    0  0.00000000000E+00  0.00000000000E+00  0.99999998245E-14  0.12500000000E+03  0.12500000000E+03 0.  0.
        -13    1    3    3    0    0  0.16637661263E+02  0.12707650505E+02 -0.31559867917E+02  0.37872583496E+02  0.10566000000E+00 0. -1.
         23    2    1    0    0    0  0.21840571163E+01 -0.28300683326E+02  0.67507261386E+01  0.95823449731E+02  0.91273558234E+02 0.  0.
         13    1    3    3    0    0 -0.14453604147E+02 -0.41008333831E+02  0.38310594056E+02  0.57950866235E+02  0.10566000000E+00 0.  1.
         22    1    1    0    0    0 -0.21840571163E+01  0.28300683326E+02 -0.67507261386E+01  0.29176550269E+02  0.00000000000E+00 0.  1.
</event>
<event>
 5    1  0.6835419E-004  0.9118800E+02  0.7818608E-02  0.1130116E+00
         25   -1    0    0    0    0  0.00000000000E+00  0.00000000000E+00  0.99999998245E-14  0.12500000000E+03  0.12500000000E+03 0.  0.
        -13    1    3    3    0    0  0.67019989395E+01 -0.44902383000E+02  0.32759908491E+02  0.55985386997E+02  0.10566000000E+00 0. -1.
         23    2    1    0    0    0  0.22108567384E+02 -0.18169982280E+02  0.87684956532E+01  0.95069688878E+02  0.90235371222E+02 0.  0.
         13    1    3    3    0    0  0.15406568445E+02  0.26732400721E+02 -0.23991412837E+02  0.39084301881E+02  0.10566000000E+00 0.  1.
         22    1    1    0    0    0 -0.22108567384E+02  0.18169982280E+02 -0.87684956532E+01  0.29930311122E+02  0.00000000000E+00 0. -1.
</event>
<event>
 5    1  0.6835419E-004  0.9118800E+02  0.7818608E-02  0.1130116E+00
         25   -1    0    0    0    0  0.00000000000E+00  0.00000000000E+00  0.99999998245E-14  0.12500000000E+03  0.12500000000E+03 0.  0.
        -13    1    3    3    0    0  0.47282025736E+02 -0.19719416310E+02 -0.17554605350E+02  0.54153676425E+02  0.10566000000E+00 0. -1.
         23    2    1    0    0    0  0.12289733482E+02 -0.27058765554E+02  0.25491529665E+01  0.95171950731E+02  0.90376920077E+02 0.  0.
         13    1    3    3    0    0 -0.34992292254E+02 -0.73393492435E+01  0.20103758317E+02  0.41018274305E+02  0.10566000000E+00 0.  1.
         22    1    1    0    0    0 -0.12289733482E+02  0.27058765554E+02 -0.25491529665E+01  0.29828049269E+02  0.00000000000E+00 0. -1.
</event>
<event>
 5    1  0.6835419E-004  0.9118800E+02  0.7818608E-02  0.1130116E+00
         25   -1    0    0    0    0  0.00000000000E+00  0.00000000000E+00  0.99999998245E-14  0.12500000000E+03  0.12500000000E+03 0.  0.
        -13    1    3    3    0    0  0.25938157547E+02 -0.37295281966E+02 -0.39967993338E+02  0.60507666699E+02  0.10566000000E+00 0.  1.
         23    2    1    0    0    0  0.13740834181E+02 -0.17806444395E+02 -0.56600975494E+01  0.10180696893E+03  0.99129926018E+02 0.  0.
         13    1    3    3    0    0 -0.12197323366E+02  0.19488837571E+02  0.34307895789E+02  0.41299302230E+02  0.10566000000E+00 0. -1.
         22    1    1    0    0    0 -0.13740834181E+02  0.17806444395E+02  0.56600975494E+01  0.23193031071E+02  0.00000000000E+00 0.  1.
</event>
<event>
 5    1  0.6835419E-004  0.9118800E+02  0.7818608E-02  0.1130116E+00
         25   -1    0    0    0    0  0.00000000000E+00  0.00000000000E+00  0.99999998245E-14  0.12500000000E+03  0.12500000000E+03 0.  0.
        -13    1    3    3    0    0 -0.38054472817E+00  0.23499825666E+02 -0.77301707232E+01  0.24741732438E+02  0.10566000000E+00 0.  1.
         23    2    1    0    0    0 -0.21880150678E+02 -0.32940162905E+02 -0.40055917188E+01  0.85252797697E+02  0.75420152640E+02 0.  0.
         13    1    3    3    0    0 -0.21499605950E+02 -0.56439988571E+02  0.37245790045E+01  0.60511065258E+02  0.10566000000E+00 0. -1.
         22    1    1    0    0    0  0.21880150678E+02  0.32940162905E+02  0.40055917188E+01  0.39747202303E+02  0.00000000000E+00 0. -1.
</event>
<event>
 5    1  0.6835419E-004  0.9118800E+02  0.7818608E-02  0.1130116E+00
         25   -1    0    0    0    0  0.00000000000E+00  0.00000000000E+00  0.99999998245E-14  0.12500000000E+03  0.12500000000E+03 0.  0.
        -13    1    3    3    0    0 -0.10980129061E+02 -0.27958831110E+02  0.29227138007E+02  0.41910574219E+02  0.10566000000E+00 0.  1.
         23    2    1    0    0    0  0.12742580964E+02  0.28483301922E+01 -0.17796320100E+02  0.10292749757E+03  0.10053295177E+03 0.  0.
         13    1    3    3    0    0  0.23722710026E+02  0.30807161303E+02 -0.47023458107E+02  0.61016923348E+02  0.10566000000E+00 0. -1.
         22    1    1    0    0    0 -0.12742580964E+02 -0.28483301922E+01  0.17796320100E+02  0.22072502432E+02  0.00000000000E+00 0. -1.
</event>
<event>
 5    1  0.6835419E-004  0.9118800E+02  0.7818608E-02  0.1130116E+00
         25   -1    0    0    0    0  0.00000000000E+00  0.00000000000E+00  0.99999998245E-14  0.12500000000E+03  0.12500000000E+03 0.  0.
        -13    1    3    3    0    0  0.34118206101E+02 -0.26686730454E+02  0.23959540240E+02  0.49500548506E+02  0.10566000000E+00 0. -1.
         23    2    1    0    0    0 -0.54231594143E+01 -0.57783346418E+01  0.29392090640E+02  0.94558337735E+02  0.89524211438E+02 0.  0.
         13    1    3    3    0    0 -0.39541365516E+02  0.20908395812E+02  0.54325504008E+01  0.45057789229E+02  0.10566000000E+00 0.  1.
         22    1    1    0    0    0  0.54231594143E+01  0.57783346418E+01 -0.29392090640E+02  0.30441662265E+02  0.00000000000E+00 0.  1.
</event>
<event>
 5    1  0.6835419E-004  0.9118800E+02  0.7818608E-02  0.1130116E+00
         25   -1    0    0    0    0  0.00000000000E+00  0.00000000000E+00  0.99999998245E-14  0.12500000000E+03  0.12500000000E+03 0.  0.
        -13    1    3    3    0    0 -0.23281165680E+02 -0.12720589491E+02 -0.46950214187E+02  0.53927357145E+02  0.10566000000E+00 0.  1.
         23    2    1    0    0    0 -0.59404693888E+01 -0.27057949798E+02 -0.13648316680E+02  0.94117992746E+02  0.88907244849E+02 0.  0.
         13    1    3    3    0    0  0.17340696291E+02 -0.14337360307E+02  0.33301897507E+02  0.40190635601E+02  0.10566000000E+00 0. -1.
         22    1    1    0    0    0  0.59404693888E+01  0.27057949798E+02  0.13648316680E+02  0.30882007254E+02  0.00000000000E+00 0.  1.
</event>
<event>
 5    1  0.6835419E-004  0.9118800E+02  0.7818608E-02  0.1130116E+00
         25   -1    0    0    0    0  0.00000000000E+00  0.00000000000E+00  0.99999998245E-14  0.12500000000E+03  0.12500000000E+03 0.  0.
        -13    1    3    3    0    0 -0.13747012769E+02 -0.52621500672E+02  0.39543481676E+01  0.54531190401E+02  0.10566000000E+00 0.  1.
         23    2    1    0    0    0 -0.17549940484E+02 -0.14423404449E+02  0.18623234594E+02  0.95625523432E+02  0.91002092603E+02 0.  0.
         13    1    3    3    0    0 -0.38029277149E+01  0.38198096223E+02  0.14668886426E+02  0.41094333031E+02  0.10566000000E+00 0. -1.
         22    1    1    0    0    0  0.17549940484E+02  0.14423404449E+02 -0.18623234594E+02  0.29374476568E+02  0.00000000000E+00 0.  1.
</event>
<event>
 5    1  0.6835419E-004  0.9118800E+02  0.7818608E-02  0.1130116E+00
         25   -1    0    0    0    0  0.00000000000E+00  0.00000000000E+00  0.99999998245E-14  0.12500000000E+03  0.12500000000E+03 0.  0.
        -13    1    3    3    0    0 -0.29087472957E+02  0.13632276486E+02 -0.16543031904E+02  0.36133130418E+02  0.10566000000E+00 0.  1.
         23    2    1    0    0    0  0.20390026824E+02 -0.13067159414E+02 -0.21556424988E+02  0.92578042821E+02  0.86715112324E+02 0.  0.
         13    1    3    3    0    0  0.49477499781E+02 -0.26699435900E+02 -0.50133930841E+01  0.56444912403E+02  0.10566000000E+00 0. -1.
         22    1    1    0    0    0 -0.20390026824E+02  0.13067159414E+02  0.21556424988E+02  0.32421957179E+02  0.00000000000E+00 0. -1.
</event>
<event>
 5    1  0.6835419E-004  0.9118800E+02  0.7818608E-02  0.1130116E+00
         25   -1    0    0    0    0  0.00000000000E+00  0.00000000000E+00  0.99999998245E-14  0.12500000000E+03  0.12500000000E+03 0.  0.
        -13    1    3    3    0    0  0.23654373895E+02 -0.66668849100E+01 -0.57123375837E+02  0.62185753914E+02  0.10566000000E+00 0.  1.
         23    2    1    0    0    0  0.99098271434E+01 -0.73890069961E+01 -0.26849722763E+02  0.95441418998E+02  0.90748855362E+02 0.  0.
         13    1    3    3    0    0 -0.13744546751E+02 -0.72212208613E+00  0.30273653074E+02  0.33255665084E+02  0.10566000000E+00 0. -1.
         22    1    1    0    0    0 -0.99098271434E+01  0.73890069961E+01  0.26849722763E+02  0.29558581002E+02  0.00000000000E+00 0.  1.
</event>
<event>
 5    1  0.6835419E-004  0.9118800E+02  0.7818608E-02  0.1130116E+00
         25   -1    0    0    0    0  0.00000000000E+00  0.00000000000E+00  0.99999998245E-14  0.12500000000E+03  0.12500000000E+03 0.  0.
        -13    1    3    3    0    0 -0.74745024158E+00 -0.13428739213E+02 -0.55956656376E+02  0.57550397701E+02  0.10566000000E+00 0.  1.
         23    2    1    0    0    0 -0.16112360002E+02  0.15688555814E+01 -0.24211437226E+02  0.95875042572E+02  0.91344187790E+02 0.  0.
         13    1    3    3    0    0 -0.15364909760E+02  0.14997594795E+02  0.31745219150E+02  0.38324644871E+02  0.10566000000E+00 0. -1.
         22    1    1    0    0    0  0.16112360002E+02 -0.15688555814E+01  0.24211437226E+02  0.29124957428E+02  0.00000000000E+00 0.  1.
</event>
<event>
 5    1  0.6835419E-004  0.9118800E+02  0.7818608E-02  0.1130116E+00
         25   -1    0    0    0    0  0.00000000000E+00  0.00000000000E+00  0.99999998245E-14  0.12500000000E+03  0.12500000000E+03 0.  0.
        -13    1    3    3    0    0  0.26897274786E+02 -0.20886878536E+02 -0.49772127156E+02  0.60307552525E+02  0.10566000000E+00 0. -1.
         23    2    1    0    0    0  0.60256749098E+01  0.10795389710E+01 -0.24446692165E+02  0.99798513529E+02  0.96564115397E+02 0.  0.
         13    1    3    3    0    0 -0.20871599877E+02  0.21966417507E+02  0.25325434991E+02  0.39490961004E+02  0.10566000000E+00 0.  1.
         22    1    1    0    0    0 -0.60256749098E+01 -0.10795389710E+01  0.24446692165E+02  0.25201486471E+02  0.00000000000E+00 0. -1.
</event>
<event>
 5    1  0.6835419E-004  0.9118800E+02  0.7818608E-02  0.1130116E+00
         25   -1    0    0    0    0  0.00000000000E+00  0.00000000000E+00  0.99999998245E-14  0.12500000000E+03  0.12500000000E+03 0.  0.
        -13    1    3    3    0    0 -0.25880504755E+02  0.45404341545E+02  0.29389878286E+02  0.59959410164E+02  0.10566000000E+00 0.  1.
         23    2    1    0    0    0 -0.18628114275E+02  0.11411332924E+02  0.18470897069E+02  0.96392322725E+02  0.92049338298E+02 0.  0.
         13    1    3    3    0    0  0.72523904803E+01 -0.33993008621E+02 -0.10918981217E+02  0.36432912560E+02  0.10566000000E+00 0. -1.
         22    1    1    0    0    0  0.18628114275E+02 -0.11411332924E+02 -0.18470897069E+02  0.28607677275E+02  0.00000000000E+00 0.  1.
</event>
<event>
 5    1  0.6835419E-004  0.9118800E+02  0.7818608E-02  0.1130116E+00
         25   -1    0    0    0    0  0.00000000000E+00  0.00000000000E+00  0.99999998245E-14  0.12500000000E+03  0.12500000000E+03 0.  0.
        -13    1    3    3    0    0 -0.17468866639E+02 -0.23179437525E+02 -0.20089497355E+02  0.35299386590E+02  0.10566000000E+00 0.  1.
         23    2    1    0    0    0 -0.44675779448E+01  0.22744761444E+02  0.17420473050E+02  0.96004201906E+02  0.91520765274E+02 0.  0.
         13    1    3    3    0    0  0.13001288694E+02  0.45924198969E+02  0.37509970405E+02  0.60704815316E+02  0.10566000000E+00 0. -1.
         22    1    1    0    0    0  0.44675779448E+01 -0.22744761444E+02 -0.17420473050E+02  0.28995798094E+02  0.00000000000E+00 0. -1.
</event>
<event>
 5    1  0.6835419E-004  0.9118800E+02  0.7818608E-02  0.1130116E+00
         25   -1    0    0    0    0  0.00000000000E+00  0.00000000000E+00  0.99999998245E-14  0.12500000000E+03  0.12500000000E+03 0.  0.
        -13    1    3    3    0    0 -0.58432709086E+01  0.10762241060E+02  0.32255103016E+02  0.34501775058E+02  0.10566000000E+00 0.  1.
         23    2    1    0    0    0  0.25870175766E+02 -0.75544302839E+01 -0.14897311000E+02  0.94206083619E+02  0.89031010916E+02 0.  0.
         13    1    3    3    0    0  0.31713446674E+02 -0.18316671344E+02 -0.47152414016E+02  0.59704308561E+02  0.10566000000E+00 0. -1.
         22    1    1    0    0    0 -0.25870175766E+02  0.75544302839E+01  0.14897311000E+02  0.30793916381E+02  0.00000000000E+00 0. -1.
</event>
<event>
 5    1  0.6835419E-004  0.9118800E+02  0.7818608E-02  0.1130116E+00
         25   -1    0    0    0    0  0.00000000000E+00  0.00000000000E+00  0.99999998245E-14  0.12500000000E+03  0.12500000000E+03 0.  0.
        -13    1    3    3    0    0  0.31435177578E+02 -0.35246485303E+02 -0.38041872209E+02  0.60643881148E+02  0.10566000000E+00 0. -1.
         23    2    1    0    0    0  0.21575876402E+02 -0.17641973376E+02 -0.95868840117E+01  0.95526859479E+02  0.90866467246E+02 0.  0.
         13    1    3    3    0    0 -0.98593011756E+01  0.17604511926E+02  0.28454988198E+02  0.34882978330E+02  0.10566000000E+00 0.  1.
         22    1    1    0    0    0 -0.21575876402E+02  0.17641973376E+02  0.95868840117E+01  0.29473140521E+02  0.00000000000E+00 0. -1.
</event>
<event>
 5    1  0.6835419E-004  0.9118800E+02  0.7818608E-02  0.1130116E+00
         25   -1    0    0    0    0  0.00000000000E+00  0.00000000000E+00  0.99999998245E-14  0.12500000000E+03  0.12500000000E+03 0.  0.
        -13    1    3    3    0    0  0.14758916545E+02 -0.25628294278E+02 -0.15686969240E+02  0.33477264720E+02  0.10566000000E+00 0. -1.
         23    2    1    0    0    0 -0.11038986852E+02  0.14883501258E+02  0.23223440910E+02  0.95289630630E+02  0.90539536432E+02 0.  0.
         13    1    3    3    0    0 -0.25797903397E+02  0.40511795535E+02  0.38910410150E+02  0.61812365909E+02  0.10566000000E+00 0.  1.
         22    1    1    0    0    0  0.11038986852E+02 -0.14883501258E+02 -0.23223440910E+02  0.29710369370E+02  0.00000000000E+00 0.  1.
</event>
<event>
 5    1  0.6835419E-004  0.9118800E+02  0.7818608E-02  0.1130116E+00
         25   -1    0    0    0    0  0.00000000000E+00  0.00000000000E+00  0.99999998245E-14  0.12500000000E+03  0.12500000000E+03 0.  0.
        -13    1    3    3    0    0  0.27469722763E+02 -0.45922959688E+02  0.20281326131E+02  0.57226281103E+02  0.10566000000E+00 0.  1.
         23    2    1    0    0    0  0.34045535295E+01 -0.19074980183E+02  0.24761338246E+02  0.93558471325E+02  0.88117068898E+02 0.  0.
         13    1    3    3    0    0 -0.24065169233E+02  0.26847979506E+02  0.44800121145E+01  0.36332190222E+02  0.10566000000E+00 0. -1.
         22    1    1    0    0    0 -0.34045535295E+01  0.19074980183E+02 -0.24761338246E+02  0.31441528675E+02  0.00000000000E+00 0.  1.
</event>
<event>
 5    1  0.6835419E-004  0.9118800E+02  0.7818608E-02  0.1130116E+00
         25   -1    0    0    0    0  0.00000000000E+00  0.00000000000E+00  0.99999998245E-14  0.12500000000E+03  0.12500000000E+03 0.  0.
        -13    1    3    3    0    0 -0.31359683354E+02 -0.51924812857E+02  0.13807794309E+02  0.62211592795E+02  0.10566000000E+00 0.  1.
         23    2    1    0    0    0 -0.13245992041E+02 -0.23961344438E+02  0.10436364829E+02  0.95699487321E+02  0.91103632366E+02 0.  0.
         13    1    3    3    0    0  0.18113691313E+02  0.27963468420E+02 -0.33714294803E+01  0.33487894527E+02  0.10566000000E+00 0. -1.
         22    1    1    0    0    0  0.13245992041E+02  0.23961344438E+02 -0.10436364829E+02  0.29300512679E+02  0.00000000000E+00 0.  1.
</event>
<event>
 5    1  0.6835419E-004  0.9118800E+02  0.7818608E-02  0.1130116E+00
         25   -1    0    0    0    0  0.00000000000E+00  0.00000000000E+00  0.99999998245E-14  0.12500000000E+03  0.12500000000E+03 0.  0.
        -13    1    3    3    0    0  0.23880029969E+02  0.24715892637E+02  0.37407648400E+02  0.50798371066E+02  0.10566000000E+00 0.  1.
         23    2    1    0    0    0 -0.15784948314E+02  0.17707854062E+02  0.15677936911E+02  0.96565331116E+02  0.92283978995E+02 0.  0.
         13    1    3    3    0    0 -0.39664978283E+02 -0.70080385751E+01 -0.21729711488E+02  0.45766960050E+02  0.10566000000E+00 0. -1.
         22    1    1    0    0    0  0.15784948314E+02 -0.17707854062E+02 -0.15677936911E+02  0.28434668884E+02  0.00000000000E+00 0. -1.
</event>
<event>
 5    1  0.6835419E-004  0.9118800E+02  0.7818608E-02  0.1130116E+00
         25   -1    0    0    0    0  0.00000000000E+00  0.00000000000E+00  0.99999998245E-14  0.12500000000E+03  0.12500000000E+03 0.  0.
        -13    1    3    3    0    0  0.16693738548E+02 -0.40602513243E+02 -0.93135898608E+00  0.43910404028E+02  0.10566000000E+00 0.  1.
         23    2    1    0    0    0  0.37835154483E+01 -0.52680158505E+01 -0.31782611374E+02  0.92562346480E+02  0.86692483065E+02 0.  0.
         13    1    3    3    0    0 -0.12910223100E+02  0.35334497392E+02 -0.30851252387E+02  0.48651942452E+02  0.10566000000E+00 0. -1.
         22    1    1    0    0    0 -0.37835154483E+01  0.52680158505E+01  0.31782611374E+02  0.32437653520E+02  0.00000000000E+00 0. -1.
</event>
<event>
 5    1  0.6835419E-004  0.9118800E+02  0.7818608E-02  0.1130116E+00
         25   -1    0    0    0    0  0.00000000000E+00  0.00000000000E+00  0.99999998245E-14  0.12500000000E+03  0.12500000000E+03 0.  0.
        -13    1    3    3    0    0  0.23077817836E+02  0.29380092212E+02  0.38748994488E+02  0.53826306137E+02  0.10566000000E+00 0.  1.
         23    2    1    0    0    0  0.27037001996E+02  0.10014171935E+02  0.13396042245E+01  0.96136915342E+02  0.91701847504E+02 0.  0.
         13    1    3    3    0    0  0.39591841598E+01 -0.19365920278E+02 -0.37409390263E+02  0.42310609205E+02  0.10566000000E+00 0. -1.
         22    1    1    0    0    0 -0.27037001996E+02 -0.10014171935E+02 -0.13396042245E+01  0.28863084658E+02  0.00000000000E+00 0.  1.
</event>
<event>
 5    1  0.6835419E-004  0.9118800E+02  0.7818608E-02  0.1130116E+00
         25   -1    0    0    0    0  0.00000000000E+00  0.00000000000E+00  0.99999998245E-14  0.12500000000E+03  0.12500000000E+03 0.  0.
        -13    1    3    3    0    0 -0.23872115788E+02 -0.75379710576E+01 -0.34805753905E+02  0.42873658449E+02  0.10566000000E+00 0. -1.
         23    2    1    0    0    0 -0.17550251951E+02 -0.22891040294E+02  0.12911708829E+02  0.93397416337E+02  0.87888304594E+02 0.  0.
         13    1    3    3    0    0  0.63218638374E+01 -0.15353069237E+02  0.47717462734E+02  0.50523757888E+02  0.10566000000E+00 0.  1.
         22    1    1    0    0    0  0.17550251951E+02  0.22891040294E+02 -0.12911708829E+02  0.31602583663E+02  0.00000000000E+00 0. -1.
</event>
<event>
 5    1  0.6835419E-004  0.9118800E+02  0.7818608E-02  0.1130116E+00
         25   -1    0    0    0    0  0.00000000000E+00  0.00000000000E+00  0.99999998245E-14  0.12500000000E+03  0.12500000000E+03 0.  0.
        -13    1    3    3    0    0 -0.15179514821E+02  0.22123760209E+02  0.25715352922E+02  0.37164081799E+02  0.10566000000E+00 0.  1.
         23    2    1    0    0    0 -0.78218232407E+01  0.93850432190E+01 -0.28845754592E+02  0.93673692956E+02  0.88280367234E+02 0.  0.
         13    1    3    3    0    0  0.73576915803E+01 -0.12738716990E+02 -0.54561107514E+02  0.56509611157E+02  0.10566000000E+00 0. -1.
         22    1    1    0    0    0  0.78218232407E+01 -0.93850432190E+01  0.28845754592E+02  0.31326307044E+02  0.00000000000E+00 0. -1.
</event>
<event>
 5    1  0.6835419E-004  0.9118800E+02  0.7818608E-02  0.1130116E+00
         25   -1    0    0    0    0  0.00000000000E+00  0.00000000000E+00  0.99999998245E-14  0.12500000000E+03  0.12500000000E+03 0.  0.
        -13    1    3    3    0    0  0.34064922002E+02 -0.20561761385E+01 -0.61275466575E+01  0.34672824566E+02  0.10566000000E+00 0.  1.
         23    2    1    0    0    0 -0.27143511856E+02 -0.69489265329E+01  0.32677284074E+01  0.96791209441E+02  0.92589428987E+02 0.  0.
         13    1    3    3    0    0 -0.61208433859E+02 -0.48927503944E+01  0.93952750649E+01  0.62118384875E+02  0.10566000000E+00 0. -1.
         22    1    1    0    0    0  0.27143511856E+02  0.69489265329E+01 -0.32677284074E+01  0.28208790559E+02  0.00000000000E+00 0. -1.
</event>
<event>
 5    1  0.6835419E-004  0.9118800E+02  0.7818608E-02  0.1130116E+00
         25   -1    0    0    0    0  0.00000000000E+00  0.00000000000E+00  0.99999998245E-14  0.12500000000E+03  0.12500000000E+03 0.  0.
        -13    1    3    3    0    0 -0.14243710365E+02 -0.29860677741E+02  0.28949560985E+02  0.43961706124E+02  0.10566000000E+00 0.  1.
         23    2    1    0    0    0 -0.16958462732E+02 -0.17853709694E+02 -0.19272690317E+02  0.93730510076E+02  0.88360780434E+02 0.  0.
         13    1    3    3    0    0 -0.27147523669E+01  0.12006968047E+02 -0.48222251302E+02  0.49768803952E+02  0.10566000000E+00 0. -1.
         22    1    1    0    0    0  0.16958462732E+02  0.17853709694E+02  0.19272690317E+02  0.31269489924E+02  0.00000000000E+00 0.  1.
</event>
<event>
 5    1  0.6835419E-004  0.9118800E+02  0.7818608E-02  0.1130116E+00
         25   -1    0    0    0    0  0.00000000000E+00  0.00000000000E+00  0.99999998245E-14  0.12500000000E+03  0.12500000000E+03 0.  0.
        -13    1    3    3    0    0 -0.95093973117E+01 -0.33976512759E+02  0.15634655618E+02  0.38591264256E+02  0.10566000000E+00 0.  1.
         23    2    1    0    0    0 -0.28279959747E+01  0.24777749090E+02  0.10481029253E+02  0.97948449482E+02  0.94138793122E+02 0.  0.
         13    1    3    3    0    0  0.66814013371E+01  0.58754261849E+02 -0.51536263643E+01  0.59357185227E+02  0.10566000000E+00 0. -1.
         22    1    1    0    0    0  0.28279959747E+01 -0.24777749090E+02 -0.10481029253E+02  0.27051550518E+02  0.00000000000E+00 0.  1.
</event>
<event>
 5    1  0.6835419E-004  0.9118800E+02  0.7818608E-02  0.1130116E+00
         25   -1    0    0    0    0  0.00000000000E+00  0.00000000000E+00  0.99999998245E-14  0.12500000000E+03  0.12500000000E+03 0.  0.
        -13    1    3    3    0    0  0.23127776413E+02  0.13690335414E+02 -0.53340527487E+02  0.59728907257E+02  0.10566000000E+00 0.  1.
         23    2    1    0    0    0  0.52252891434E+01 -0.55009495637E+01 -0.27162300183E+02  0.96797967379E+02  0.92598552066E+02 0.  0.
         13    1    3    3    0    0 -0.17902487269E+02 -0.19191284978E+02  0.26178227303E+02  0.37069060122E+02  0.10566000000E+00 0. -1.
         22    1    1    0    0    0 -0.52252891434E+01  0.55009495637E+01  0.27162300183E+02  0.28202032621E+02  0.00000000000E+00 0.  1.
</event>
<event>
 5    1  0.6835419E-004  0.9118800E+02  0.7818608E-02  0.1130116E+00
         25   -1    0    0    0    0  0.00000000000E+00  0.00000000000E+00  0.99999998245E-14  0.12500000000E+03  0.12500000000E+03 0.  0.
        -13    1    3    3    0    0 -0.42506259925E+02 -0.12276777939E+02  0.17572501465E+02  0.47605728449E+02  0.10566000000E+00 0. -1.
         23    2    1    0    0    0 -0.16342140994E+01  0.10640090819E+02  0.27468203360E+02  0.95497722390E+02  0.90826376112E+02 0.  0.
         13    1    3    3    0    0  0.40872045826E+02  0.22916868758E+02  0.98957018947E+01  0.47891993941E+02  0.10566000000E+00 0.  1.
         22    1    1    0    0    0  0.16342140994E+01 -0.10640090819E+02 -0.27468203360E+02  0.29502277610E+02  0.00000000000E+00 0. -1.
</event>
<event>
 5    1  0.6835419E-004  0.9118800E+02  0.7818608E-02  0.1130116E+00
         25   -1    0    0    0    0  0.00000000000E+00  0.00000000000E+00  0.99999998245E-14  0.12500000000E+03  0.12500000000E+03 0.  0.
        -13    1    3    3    0    0 -0.18467729950E+02 -0.31453276477E+02  0.23862413554E+02  0.43586598804E+02  0.10566000000E+00 0. -1.
         23    2    1    0    0    0 -0.27411400903E+02 -0.78091031262E+00 -0.14877338337E+02  0.93801764211E+02  0.88461523007E+02 0.  0.
         13    1    3    3    0    0 -0.89436709524E+01  0.30672366165E+02 -0.38739751891E+02  0.50215165407E+02  0.10566000000E+00 0.  1.
         22    1    1    0    0    0  0.27411400903E+02  0.78091031262E+00  0.14877338337E+02  0.31198235789E+02  0.00000000000E+00 0. -1.
</event>
<event>
 5    1  0.6835419E-004  0.9118800E+02  0.7818608E-02  0.1130116E+00
         25   -1    0    0    0    0  0.00000000000E+00  0.00000000000E+00  0.99999998245E-14  0.12500000000E+03  0.12500000000E+03 0.  0.
        -13    1    3    3    0    0  0.30987516685E+02  0.52268627063E+01  0.19642056060E+02  0.37058977513E+02  0.10566000000E+00 0. -1.
         23    2    1    0    0    0 -0.25204899728E+02  0.13152115433E+02  0.19427292374E+01  0.96503696598E+02  0.92200456342E+02 0.  0.
         13    1    3    3    0    0 -0.56192416413E+02  0.79252527268E+01 -0.17699326822E+02  0.59444719085E+02  0.10566000000E+00 0.  1.
         22    1    1    0    0    0  0.25204899728E+02 -0.13152115433E+02 -0.19427292374E+01  0.28496303402E+02  0.00000000000E+00 0.  1.
</event>
<event>
 5    1  0.6835419E-004  0.9118800E+02  0.7818608E-02  0.1130116E+00
         25   -1    0    0    0    0  0.00000000000E+00  0.00000000000E+00  0.99999998245E-14  0.12500000000E+03  0.12500000000E+03 0.  0.
        -13    1    3    3    0    0 -0.23685393746E+00  0.36137851924E+02  0.11406669233E+02  0.37896222879E+02  0.10566000000E+00 0.  1.
         23    2    1    0    0    0  0.33433153999E+00 -0.21476989024E+02  0.19388330379E+02  0.96064205731E+02  0.91602682454E+02 0.  0.
         13    1    3    3    0    0  0.57118547745E+00 -0.57614840948E+02  0.79816611453E+01  0.58167982851E+02  0.10566000000E+00 0. -1.
         22    1    1    0    0    0 -0.33433153999E+00  0.21476989024E+02 -0.19388330379E+02  0.28935794269E+02  0.00000000000E+00 0. -1.
</event>
<event>
 5    1  0.6835419E-004  0.9118800E+02  0.7818608E-02  0.1130116E+00
         25   -1    0    0    0    0  0.00000000000E+00  0.00000000000E+00  0.99999998245E-14  0.12500000000E+03  0.12500000000E+03 0.  0.
        -13    1    3    3    0    0  0.14603766295E+02  0.21660561381E+02  0.23388570602E+02  0.35064031545E+02  0.10566000000E+00 0. -1.
         23    2    1    0    0    0  0.35382316657E+01 -0.77433697151E+01 -0.28242324543E+02  0.95502411057E+02  0.90832828670E+02 0.  0.
         13    1    3    3    0    0 -0.11065534629E+02 -0.29403931097E+02 -0.51630895145E+02  0.60438379512E+02  0.10566000000E+00 0.  1.
         22    1    1    0    0    0 -0.35382316657E+01  0.77433697151E+01  0.28242324543E+02  0.29497588943E+02  0.00000000000E+00 0.  1.
</event>
<event>
 5    1  0.6835419E-004  0.9118800E+02  0.7818608E-02  0.1130116E+00
         25   -1    0    0    0    0  0.00000000000E+00  0.00000000000E+00  0.99999998245E-14  0.12500000000E+03  0.12500000000E+03 0.  0.
        -13    1    3    3    0    0  0.38198784738E+02 -0.25746499431E+02  0.18581154860E+02  0.49671922334E+02  0.10566000000E+00 0. -1.
         23    2    1    0    0    0  0.39163684769E+02  0.58839781250E+01  0.18431846373E+02  0.81317642417E+02  0.68588706099E+02 0.  0.
         13    1    3    3    0    0  0.96490003081E+00  0.31630477556E+02 -0.14930848636E+00  0.31645720083E+02  0.10566000000E+00 0.  1.
         22    1    1    0    0    0 -0.39163684769E+02 -0.58839781250E+01 -0.18431846373E+02  0.43682357583E+02  0.00000000000E+00 0. -1.
</event>
<event>
 5    1  0.6835419E-004  0.9118800E+02  0.7818608E-02  0.1130116E+00
         25   -1    0    0    0    0  0.00000000000E+00  0.00000000000E+00  0.99999998245E-14  0.12500000000E+03  0.12500000000E+03 0.  0.
        -13    1    3    3    0    0  0.37157411276E+02 -0.39226514882E+02 -0.20802295478E+02  0.57897662679E+02  0.10566000000E+00 0.  1.
         23    2    1    0    0    0  0.25804810282E+02 -0.77286854057E+01  0.13247501940E+01  0.98030095016E+02  0.94247141888E+02 0.  0.
         13    1    3    3    0    0 -0.11352600994E+02  0.31497829477E+02  0.22127045672E+02  0.40132432337E+02  0.10566000000E+00 0. -1.
         22    1    1    0    0    0 -0.25804810282E+02  0.77286854057E+01 -0.13247501940E+01  0.26969904984E+02  0.00000000000E+00 0.  1.
</event>
<event>
 5    1  0.6835419E-004  0.9118800E+02  0.7818608E-02  0.1130116E+00
         25   -1    0    0    0    0  0.00000000000E+00  0.00000000000E+00  0.99999998245E-14  0.12500000000E+03  0.12500000000E+03 0.  0.
        -13    1    3    3    0    0  0.67442429264E+01 -0.74568096423E+01 -0.50304073549E+02  0.51299120874E+02  0.10566000000E+00 0.  1.
         23    2    1    0    0    0  0.10348866689E+02  0.21487708542E+02 -0.16235232449E+02  0.96148597385E+02  0.91717770069E+02 0.  0.
         13    1    3    3    0    0  0.36046237631E+01  0.28944518185E+02  0.34068841101E+02  0.44849476512E+02  0.10566000000E+00 0. -1.
         22    1    1    0    0    0 -0.10348866689E+02 -0.21487708542E+02  0.16235232449E+02  0.28851402615E+02  0.00000000000E+00 0. -1.
</event>
<event>
 5    1  0.6835419E-004  0.9118800E+02  0.7818608E-02  0.1130116E+00
         25   -1    0    0    0    0  0.00000000000E+00  0.00000000000E+00  0.99999998245E-14  0.12500000000E+03  0.12500000000E+03 0.  0.
        -13    1    3    3    0    0 -0.85298512924E+01  0.35607408726E+02 -0.23394310326E+02  0.43450556256E+02  0.10566000000E+00 0.  1.
         23    2    1    0    0    0  0.25723873486E+02  0.14308923538E+02  0.79231560745E+01  0.94516572337E+02  0.89465876647E+02 0.  0.
         13    1    3    3    0    0  0.34253724778E+02 -0.21298485189E+02  0.31317466401E+02  0.51066016081E+02  0.10566000000E+00 0. -1.
         22    1    1    0    0    0 -0.25723873486E+02 -0.14308923538E+02 -0.79231560745E+01  0.30483427663E+02  0.00000000000E+00 0. -1.
</event>
<event>
 5    1  0.6835419E-004  0.9118800E+02  0.7818608E-02  0.1130116E+00
         25   -1    0    0    0    0  0.00000000000E+00  0.00000000000E+00  0.99999998245E-14  0.12500000000E+03  0.12500000000E+03 0.  0.
        -13    1    3    3    0    0 -0.23053581249E+02  0.42753834001E+02  0.63741441829E+01  0.48989782693E+02  0.10566000000E+00 0.  1.
         23    2    1    0    0    0 -0.67857562430E+00  0.10232357592E+02  0.28826686662E+02  0.94403603633E+02  0.89307899473E+02 0.  0.
         13    1    3    3    0    0  0.22375005625E+02 -0.32521476409E+02  0.22452542479E+02  0.45413820940E+02  0.10566000000E+00 0. -1.
         22    1    1    0    0    0  0.67857562430E+00 -0.10232357592E+02 -0.28826686662E+02  0.30596396367E+02  0.00000000000E+00 0.  1.
</event>
<event>
 5    1  0.6835419E-004  0.9118800E+02  0.7818608E-02  0.1130116E+00
         25   -1    0    0    0    0  0.00000000000E+00  0.00000000000E+00  0.99999998245E-14  0.12500000000E+03  0.12500000000E+03 0.  0.
        -13    1    3    3    0    0  0.12549378226E+02 -0.23853820728E+02  0.18239187236E+02  0.32544903936E+02  0.10566000000E+00 0. -1.
         23    2    1    0    0    0 -0.14644028359E+02  0.19437820382E+02 -0.17588240006E+02  0.94972968607E+02  0.90101288291E+02 0.  0.
         13    1    3    3    0    0 -0.27193406584E+02  0.43291641110E+02 -0.35827427242E+02  0.62428064670E+02  0.10566000000E+00 0.  1.
         22    1    1    0    0    0  0.14644028359E+02 -0.19437820382E+02  0.17588240006E+02  0.30027031393E+02  0.00000000000E+00 0.  1.
</event>
<event>
 5    1  0.6835419E-004  0.9118800E+02  0.7818608E-02  0.1130116E+00
         25   -1    0    0    0    0  0.00000000000E+00  0.00000000000E+00  0.99999998245E-14  0.12500000000E+03  0.12500000000E+03 0.  0.
        -13    1    3    3    0    0 -0.20746958724E+02 -0.20414183256E+01 -0.44783423982E+02  0.49398076002E+02  0.10566000000E+00 0.  1.
         23    2    1    0    0    0 -0.21831134147E+02  0.14342970340E+02  0.18256060710E+01  0.98815041458E+02  0.95282529167E+02 0.  0.
         13    1    3    3    0    0 -0.10841754236E+01  0.16384388666E+02  0.46609030053E+02  0.49416965456E+02  0.10566000000E+00 0. -1.
         22    1    1    0    0    0  0.21831134147E+02 -0.14342970340E+02 -0.18256060710E+01  0.26184958542E+02  0.00000000000E+00 0.  1.
</event>
<event>
 5    1  0.6835419E-004  0.9118800E+02  0.7818608E-02  0.1130116E+00
         25   -1    0    0    0    0  0.00000000000E+00  0.00000000000E+00  0.99999998245E-14  0.12500000000E+03  0.12500000000E+03 0.  0.
        -13    1    3    3    0    0 -0.92147311562E+01  0.36622276826E+02  0.20114516974E+02  0.42786766498E+02  0.10566000000E+00 0.  1.
         23    2    1    0    0    0  0.96068062705E+01  0.21496881459E+01 -0.22318377384E+02  0.10060693019E+03  0.97604982182E+02 0.  0.
         13    1    3    3    0    0  0.18821537427E+02 -0.34472588680E+02 -0.42432894358E+02  0.57820163689E+02  0.10566000000E+00 0. -1.
         22    1    1    0    0    0 -0.96068062705E+01 -0.21496881459E+01  0.22318377384E+02  0.24393069813E+02  0.00000000000E+00 0. -1.
</event>
<event>
 5    1  0.6835419E-004  0.9118800E+02  0.7818608E-02  0.1130116E+00
         25   -1    0    0    0    0  0.00000000000E+00  0.00000000000E+00  0.99999998245E-14  0.12500000000E+03  0.12500000000E+03 0.  0.
        -13    1    3    3    0    0 -0.26870266598E+02  0.39673671619E+02  0.30398554495E+02  0.56745878495E+02  0.10566000000E+00 0. -1.
         23    2    1    0    0    0  0.81293245750E+00  0.28130507835E+02  0.42474784680E+01  0.96539019631E+02  0.92248332818E+02 0.  0.
         13    1    3    3    0    0  0.27683199055E+02 -0.11543163784E+02 -0.26151076027E+02  0.39793141136E+02  0.10566000000E+00 0.  1.
         22    1    1    0    0    0 -0.81293245750E+00 -0.28130507835E+02 -0.42474784680E+01  0.28460980369E+02  0.00000000000E+00 0. -1.
</event>
<event>
 5    1  0.6835419E-004  0.9118800E+02  0.7818608E-02  0.1130116E+00
         25   -1    0    0    0    0  0.00000000000E+00  0.00000000000E+00  0.99999998245E-14  0.12500000000E+03  0.12500000000E+03 0.  0.
        -13    1    3    3    0    0  0.30611695012E+02  0.30053567403E+00  0.30535107766E+02  0.43238526380E+02  0.10566000000E+00 0.  1.
         23    2    1    0    0    0 -0.14687855079E+02  0.20817446696E+02  0.15443497079E+02  0.95207370445E+02  0.90425895689E+02 0.  0.
         13    1    3    3    0    0 -0.45299550091E+02  0.20516911022E+02 -0.15091610687E+02  0.51968844065E+02  0.10566000000E+00 0. -1.
         22    1    1    0    0    0  0.14687855079E+02 -0.20817446696E+02 -0.15443497079E+02  0.29792629555E+02  0.00000000000E+00 0. -1.
</event>
<event>
 5    1  0.6835419E-004  0.9118800E+02  0.7818608E-02  0.1130116E+00
         25   -1    0    0    0    0  0.00000000000E+00  0.00000000000E+00  0.99999998245E-14  0.12500000000E+03  0.12500000000E+03 0.  0.
        -13    1    3    3    0    0 -0.81613057144E+01 -0.38693164508E+00  0.43942952542E+02  0.44696206429E+02  0.10566000000E+00 0. -1.
         23    2    1    0    0    0 -0.21299685356E+02 -0.17931189964E+02 -0.34812953015E+01  0.96940713003E+02  0.92791046178E+02 0.  0.
         13    1    3    3    0    0 -0.13138379642E+02 -0.17544258319E+02 -0.47424247843E+02  0.52244506573E+02  0.10566000000E+00 0.  1.
         22    1    1    0    0    0  0.21299685356E+02  0.17931189964E+02  0.34812953015E+01  0.28059286997E+02  0.00000000000E+00 0.  1.
</event>
<event>
 4    1  0.6835419E-004  0.9118800E+02  0.7818608E-02  0.1130116E+00
         25   -1    0    0    0    0  0.00000000000E+00  0.00000000000E+00  0.99999998245E-14  0.12500000000E+03  0.12500000000E+03 0.  0.
        -13    1    1    0    0    0 -0.13096125742E+02  0.23241306113E+01  0.44932073750E+01  0.14039592910E+02  0.10566000000E+00 0. -1.
         13    1    1    0    0    0 -0.20854962667E+02 -0.37829570698E+02  0.28528755011E+02  0.51767817353E+02  0.10566000000E+00 0.  1.
         22    1    1    0    0    0  0.33951088408E+02  0.35505440087E+02 -0.33021962386E+02  0.59192589736E+02  0.00000000000E+00 0.  1.
</event>
<event>
 5    1  0.6835419E-004  0.9118800E+02  0.7818608E-02  0.1130116E+00
         25   -1    0    0    0    0  0.00000000000E+00  0.00000000000E+00  0.99999998245E-14  0.12500000000E+03  0.12500000000E+03 0.  0.
        -13    1    3    3    0    0  0.83710849215E+01  0.16977677509E+00 -0.43389603471E+02  0.44190188281E+02  0.10566000000E+00 0.  1.
         23    2    1    0    0    0  0.21193626834E+02  0.19087751933E+02  0.34126401569E+01  0.96274432902E+02  0.91889108307E+02 0.  0.
         13    1    3    3    0    0  0.12822541913E+02  0.18917975158E+02  0.46802243627E+02  0.52084244621E+02  0.10566000000E+00 0. -1.
         22    1    1    0    0    0 -0.21193626834E+02 -0.19087751933E+02 -0.34126401569E+01  0.28725567098E+02  0.00000000000E+00 0. -1.
</event>
<event>
 5    1  0.6835419E-004  0.9118800E+02  0.7818608E-02  0.1130116E+00
         25   -1    0    0    0    0  0.00000000000E+00  0.00000000000E+00  0.99999998245E-14  0.12500000000E+03  0.12500000000E+03 0.  0.
        -13    1    3    3    0    0 -0.32444112954E+02  0.22854216026E+01  0.25924749220E+02  0.41592636409E+02  0.10566000000E+00 0.  1.
         23    2    1    0    0    0  0.51417348068E+01  0.28249643138E+02 -0.37137174750E+01  0.96047081810E+02  0.91579312361E+02 0.  0.
         13    1    3    3    0    0  0.37585847761E+02  0.25964221535E+02 -0.29638466695E+02  0.54454445401E+02  0.10566000000E+00 0. -1.
         22    1    1    0    0    0 -0.51417348068E+01 -0.28249643138E+02  0.37137174750E+01  0.28952918190E+02  0.00000000000E+00 0. -1.
</event>
<event>
 5    1  0.6835419E-004  0.9118800E+02  0.7818608E-02  0.1130116E+00
         25   -1    0    0    0    0  0.00000000000E+00  0.00000000000E+00  0.99999998245E-14  0.12500000000E+03  0.12500000000E+03 0.  0.
        -13    1    3    3    0    0 -0.49436384693E+02 -0.15351875825E+02 -0.16522070089E+02  0.54338073088E+02  0.10566000000E+00 0.  1.
         23    2    1    0    0    0 -0.90698434276E+01 -0.70620666220E+01 -0.25955380617E+02  0.96613090556E+02  0.92348647197E+02 0.  0.
         13    1    3    3    0    0  0.40366541266E+02  0.82898092032E+01 -0.94333105279E+01  0.42275017468E+02  0.10566000000E+00 0. -1.
         22    1    1    0    0    0  0.90698434276E+01  0.70620666220E+01  0.25955380617E+02  0.28386909444E+02  0.00000000000E+00 0.  1.
</event>
<event>
 5    1  0.6835419E-004  0.9118800E+02  0.7818608E-02  0.1130116E+00
         25   -1    0    0    0    0  0.00000000000E+00  0.00000000000E+00  0.99999998245E-14  0.12500000000E+03  0.12500000000E+03 0.  0.
        -13    1    3    3    0    0  0.14321914038E+02 -0.25644379559E+01  0.34731619956E+02  0.37656210013E+02  0.10566000000E+00 0.  1.
         23    2    1    0    0    0 -0.21089151509E+02 -0.18616277989E+02 -0.83197043529E+01  0.95665112953E+02  0.91056456324E+02 0.  0.
         13    1    3    3    0    0 -0.35411065547E+02 -0.16051840033E+02 -0.43051324309E+02  0.58008902941E+02  0.10566000000E+00 0. -1.
         22    1    1    0    0    0  0.21089151509E+02  0.18616277989E+02  0.83197043529E+01  0.29334887047E+02  0.00000000000E+00 0. -1.
</event>
<event>
 5    1  0.6835419E-004  0.9118800E+02  0.7818608E-02  0.1130116E+00
         25   -1    0    0    0    0  0.00000000000E+00  0.00000000000E+00  0.99999998245E-14  0.12500000000E+03  0.12500000000E+03 0.  0.
        -13    1    3    3    0    0 -0.32540853407E+02  0.33378488173E+02 -0.29918807696E+02  0.55391125924E+02  0.10566000000E+00 0.  1.
         23    2    1    0    0    0 -0.24921067317E+02  0.15178678272E+02  0.48999904203E+01  0.95411796668E+02  0.90708043563E+02 0.  0.
         13    1    3    3    0    0  0.76197860900E+01 -0.18199809901E+02  0.34818798117E+02  0.40020670744E+02  0.10566000000E+00 0. -1.
         22    1    1    0    0    0  0.24921067317E+02 -0.15178678272E+02 -0.48999904203E+01  0.29588203332E+02  0.00000000000E+00 0. -1.
</event>
<event>
 5    1  0.6835419E-004  0.9118800E+02  0.7818608E-02  0.1130116E+00
         25   -1    0    0    0    0  0.00000000000E+00  0.00000000000E+00  0.99999998245E-14  0.12500000000E+03  0.12500000000E+03 0.  0.
        -13    1    3    3    0    0  0.58021704181E+01  0.40734923865E+02  0.52013426084E+01  0.41473658301E+02  0.10566000000E+00 0. -1.
         23    2    1    0    0    0  0.28287545481E+02 -0.23199766921E+01 -0.13560837712E+02  0.93544255840E+02  0.88096900967E+02 0.  0.
         13    1    3    3    0    0  0.22485375063E+02 -0.43054900557E+02 -0.18762180320E+02  0.52070597540E+02  0.10566000000E+00 0.  1.
         22    1    1    0    0    0 -0.28287545481E+02  0.23199766921E+01  0.13560837712E+02  0.31455744160E+02  0.00000000000E+00 0. -1.
</event>
<event>
 5    1  0.6835419E-004  0.9118800E+02  0.7818608E-02  0.1130116E+00
         25   -1    0    0    0    0  0.00000000000E+00  0.00000000000E+00  0.99999998245E-14  0.12500000000E+03  0.12500000000E+03 0.  0.
        -13    1    3    3    0    0 -0.81756495398E+01 -0.86812341913E+01 -0.32196809675E+02  0.34334396599E+02  0.10566000000E+00 0. -1.
         23    2    1    0    0    0 -0.34560881527E+02 -0.18774106677E+02  0.93473661681E+01  0.84573587004E+02  0.74285912198E+02 0.  0.
         13    1    3    3    0    0 -0.26385231987E+02 -0.10092872485E+02  0.41544175844E+02  0.50239190405E+02  0.10566000000E+00 0.  1.
         22    1    1    0    0    0  0.34560881527E+02  0.18774106677E+02 -0.93473661681E+01  0.40426412996E+02  0.00000000000E+00 0.  1.
</event>
<event>
 5    1  0.6835419E-004  0.9118800E+02  0.7818608E-02  0.1130116E+00
         25   -1    0    0    0    0  0.00000000000E+00  0.00000000000E+00  0.99999998245E-14  0.12500000000E+03  0.12500000000E+03 0.  0.
        -13    1    3    3    0    0 -0.82575861119E+01 -0.27578841049E+02 -0.18084958280E+02  0.33997898200E+02  0.10566000000E+00 0.  1.
         23    2    1    0    0    0  0.20950690173E+01  0.26893817560E+02  0.10097391282E+02  0.96196804902E+02  0.91783447449E+02 0.  0.
         13    1    3    3    0    0  0.10352655129E+02  0.54472658609E+02  0.28182349562E+02  0.62198906702E+02  0.10566000000E+00 0. -1.
         22    1    1    0    0    0 -0.20950690173E+01 -0.26893817560E+02 -0.10097391282E+02  0.28803195098E+02  0.00000000000E+00 0. -1.
</event>
<event>
 5    1  0.6835419E-004  0.9118800E+02  0.7818608E-02  0.1130116E+00
         25   -1    0    0    0    0  0.00000000000E+00  0.00000000000E+00  0.99999998245E-14  0.12500000000E+03  0.12500000000E+03 0.  0.
        -13    1    3    3    0    0  0.31838100109E+02  0.59578207311E+01  0.18168783733E+02  0.37138606770E+02  0.10566000000E+00 0.  1.
         23    2    1    0    0    0 -0.14473916440E+02 -0.25494996105E+02  0.11138459519E+01  0.95661804140E+02  0.91051913956E+02 0.  0.
         13    1    3    3    0    0 -0.46312016549E+02 -0.31452816836E+02 -0.17054937781E+02  0.58523197371E+02  0.10566000000E+00 0. -1.
         22    1    1    0    0    0  0.14473916440E+02  0.25494996105E+02 -0.11138459519E+01  0.29338195860E+02  0.00000000000E+00 0. -1.
</event>
<event>
 5    1  0.6835419E-004  0.9118800E+02  0.7818608E-02  0.1130116E+00
         25   -1    0    0    0    0  0.00000000000E+00  0.00000000000E+00  0.99999998245E-14  0.12500000000E+03  0.12500000000E+03 0.  0.
        -13    1    3    3    0    0  0.34860839906E+02 -0.24587465910E+01  0.18845509647E+02  0.39705012173E+02  0.10566000000E+00 0.  1.
         23    2    1    0    0    0 -0.61440605107E+01  0.18860715849E+02  0.31636975524E+02  0.87658678354E+02  0.79307437158E+02 0.  0.
         13    1    3    3    0    0 -0.41004900417E+02  0.21319462440E+02  0.12791465878E+02  0.47953666182E+02  0.10566000000E+00 0. -1.
         22    1    1    0    0    0  0.61440605107E+01 -0.18860715849E+02 -0.31636975524E+02  0.37341321646E+02  0.00000000000E+00 0. -1.
</event>
<event>
 5    1  0.6835419E-004  0.9118800E+02  0.7818608E-02  0.1130116E+00
         25   -1    0    0    0    0  0.00000000000E+00  0.00000000000E+00  0.99999998245E-14  0.12500000000E+03  0.12500000000E+03 0.  0.
        -13    1    3    3    0    0  0.16699487292E+02  0.35632421837E+02 -0.18151822603E+02  0.43336384131E+02  0.10566000000E+00 0. -1.
         23    2    1    0    0    0 -0.24048261673E+02  0.20540389460E+01 -0.15726679719E+02  0.96192597818E+02  0.91777717636E+02 0.  0.
         13    1    3    3    0    0 -0.40747748965E+02 -0.33578382891E+02  0.24251428838E+01  0.52856213687E+02  0.10566000000E+00 0.  1.
         22    1    1    0    0    0  0.24048261673E+02 -0.20540389460E+01  0.15726679719E+02  0.28807402182E+02  0.00000000000E+00 0.  1.
</event>
<event>
 5    1  0.6835419E-004  0.9118800E+02  0.7818608E-02  0.1130116E+00
         25   -1    0    0    0    0  0.00000000000E+00  0.00000000000E+00  0.99999998245E-14  0.12500000000E+03  0.12500000000E+03 0.  0.
        -13    1    3    3    0    0 -0.21374062465E+02  0.86358668360E+01  0.52083149997E+02  0.56956952341E+02  0.10566000000E+00 0. -1.
         23    2    1    0    0    0 -0.79079678203E+01  0.20635750831E+02  0.14716669635E+02  0.98449095448E+02  0.94801233441E+02 0.  0.
         13    1    3    3    0    0  0.13466094645E+02  0.11999883995E+02 -0.37366480363E+02  0.41492143107E+02  0.10566000000E+00 0.  1.
         22    1    1    0    0    0  0.79079678203E+01 -0.20635750831E+02 -0.14716669635E+02  0.26550904552E+02  0.00000000000E+00 0. -1.
</event>
<event>
 5    1  0.6835419E-004  0.9118800E+02  0.7818608E-02  0.1130116E+00
         25   -1    0    0    0    0  0.00000000000E+00  0.00000000000E+00  0.99999998245E-14  0.12500000000E+03  0.12500000000E+03 0.  0.
        -13    1    3    3    0    0 -0.48552118014E+02  0.39881576118E+01 -0.27542562587E+02  0.55962643635E+02  0.10566000000E+00 0. -1.
         23    2    1    0    0    0 -0.28275911462E+02  0.76843665027E+01  0.57701570008E+01  0.95135784468E+02  0.90326884796E+02 0.  0.
         13    1    3    3    0    0  0.20276206552E+02  0.36962088909E+01  0.33312719587E+02  0.39173140832E+02  0.10566000000E+00 0.  1.
         22    1    1    0    0    0  0.28275911462E+02 -0.76843665027E+01 -0.57701570008E+01  0.29864215532E+02  0.00000000000E+00 0. -1.
</event>
<event>
 5    1  0.6835419E-004  0.9118800E+02  0.7818608E-02  0.1130116E+00
         25   -1    0    0    0    0  0.00000000000E+00  0.00000000000E+00  0.99999998245E-14  0.12500000000E+03  0.12500000000E+03 0.  0.
        -13    1    3    3    0    0 -0.33765755143E+02 -0.13543095002E+02 -0.70595788759E+01  0.37059283055E+02  0.10566000000E+00 0.  1.
         23    2    1    0    0    0  0.14728140643E+01  0.15796475408E+02 -0.32018978844E+02  0.89266083019E+02  0.81801716087E+02 0.  0.
         13    1    3    3    0    0  0.35238569207E+02  0.29339570411E+02 -0.24959399968E+02  0.52206799964E+02  0.10566000000E+00 0. -1.
         22    1    1    0    0    0 -0.14728140643E+01 -0.15796475408E+02  0.32018978844E+02  0.35733916981E+02  0.00000000000E+00 0. -1.
</event>
<event>
 5    1  0.6835419E-004  0.9118800E+02  0.7818608E-02  0.1130116E+00
         25   -1    0    0    0    0  0.00000000000E+00  0.00000000000E+00  0.99999998245E-14  0.12500000000E+03  0.12500000000E+03 0.  0.
        -13    1    3    3    0    0  0.99936800745E+01 -0.23120220238E+02  0.36226462584E+02  0.44122397721E+02  0.10566000000E+00 0.  1.
         23    2    1    0    0    0 -0.19996238247E+02  0.10674662742E+02 -0.46687481223E+00  0.10232808035E+03  0.99784869027E+02 0.  0.
         13    1    3    3    0    0 -0.29989918321E+02  0.33794882980E+02 -0.36693337396E+02  0.58205682625E+02  0.10566000000E+00 0. -1.
         22    1    1    0    0    0  0.19996238247E+02 -0.10674662742E+02  0.46687481223E+00  0.22671919653E+02  0.00000000000E+00 0. -1.
</event>
<event>
 5    1  0.6835419E-004  0.9118800E+02  0.7818608E-02  0.1130116E+00
         25   -1    0    0    0    0  0.00000000000E+00  0.00000000000E+00  0.99999998245E-14  0.12500000000E+03  0.12500000000E+03 0.  0.
        -13    1    3    3    0    0 -0.60471901814E+01 -0.46027792546E+02 -0.17216123282E+02  0.49512950434E+02  0.10566000000E+00 0. -1.
         23    2    1    0    0    0 -0.25950660068E+02 -0.34029955471E+01 -0.30064794261E+01  0.98655056364E+02  0.95072414984E+02 0.  0.
         13    1    3    3    0    0 -0.19903469886E+02  0.42624796999E+02  0.14209643856E+02  0.49142105930E+02  0.10566000000E+00 0.  1.
         22    1    1    0    0    0  0.25950660068E+02  0.34029955471E+01  0.30064794261E+01  0.26344943636E+02  0.00000000000E+00 0.  1.
</event>
<event>
 5    1  0.6835419E-004  0.9118800E+02  0.7818608E-02  0.1130116E+00
         25   -1    0    0    0    0  0.00000000000E+00  0.00000000000E+00  0.99999998245E-14  0.12500000000E+03  0.12500000000E+03 0.  0.
        -13    1    3    3    0    0 -0.31299296276E+02  0.27506613807E+02 -0.12545106721E+02  0.43516096070E+02  0.10566000000E+00 0.  1.
         23    2    1    0    0    0  0.13697379199E+02  0.21565137137E+02  0.13767419904E+02  0.95979056055E+02  0.91486414367E+02 0.  0.
         13    1    3    3    0    0  0.44996675476E+02 -0.59414766704E+01  0.26312526626E+02  0.52462959985E+02  0.10566000000E+00 0. -1.
         22    1    1    0    0    0 -0.13697379199E+02 -0.21565137137E+02 -0.13767419904E+02  0.29020943945E+02  0.00000000000E+00 0.  1.
</event>
<event>
 5    1  0.6835419E-004  0.9118800E+02  0.7818608E-02  0.1130116E+00
         25   -1    0    0    0    0  0.00000000000E+00  0.00000000000E+00  0.99999998245E-14  0.12500000000E+03  0.12500000000E+03 0.  0.
        -13    1    3    3    0    0 -0.32757893455E+01 -0.54611281389E+02 -0.97834727768E+01  0.55577426662E+02  0.10566000000E+00 0.  1.
         23    2    1    0    0    0 -0.11034495747E+02 -0.24280651134E+02  0.13985226932E+02  0.94885274562E+02  0.89979545678E+02 0.  0.
         13    1    3    3    0    0 -0.77587064013E+01  0.30330630255E+02  0.23768699709E+02  0.39307847900E+02  0.10566000000E+00 0. -1.
         22    1    1    0    0    0  0.11034495747E+02  0.24280651134E+02 -0.13985226932E+02  0.30114725438E+02  0.00000000000E+00 0.  1.
</event>
<event>
 5    1  0.6835419E-004  0.9118800E+02  0.7818608E-02  0.1130116E+00
         25   -1    0    0    0    0  0.00000000000E+00  0.00000000000E+00  0.99999998245E-14  0.12500000000E+03  0.12500000000E+03 0.  0.
        -13    1    3    3    0    0 -0.39746124702E+02 -0.15928397855E+02 -0.11077079618E+02  0.44228736631E+02  0.10566000000E+00 0.  1.
         23    2    1    0    0    0 -0.33346075376E+01 -0.17445476316E+02  0.24221453746E+02  0.94964303356E+02  0.90089265948E+02 0.  0.
         13    1    3    3    0    0  0.36411517164E+02 -0.15170784609E+01  0.35298533364E+02  0.50735566725E+02  0.10566000000E+00 0. -1.
         22    1    1    0    0    0  0.33346075376E+01  0.17445476316E+02 -0.24221453746E+02  0.30035696644E+02  0.00000000000E+00 0.  1.
</event>
<event>
 5    1  0.6835419E-004  0.9118800E+02  0.7818608E-02  0.1130116E+00
         25   -1    0    0    0    0  0.00000000000E+00  0.00000000000E+00  0.99999998245E-14  0.12500000000E+03  0.12500000000E+03 0.  0.
        -13    1    3    3    0    0 -0.21396823533E+02  0.21407498475E+02 -0.33005574009E+02  0.44782631990E+02  0.10566000000E+00 0.  1.
         23    2    1    0    0    0 -0.13660548002E+02  0.20517829640E+02  0.16784865824E+02  0.95178470435E+02  0.90385937008E+02 0.  0.
         13    1    3    3    0    0  0.77362755317E+01 -0.88966883457E+00  0.49790439833E+02  0.50395838445E+02  0.10566000000E+00 0. -1.
         22    1    1    0    0    0  0.13660548002E+02 -0.20517829640E+02 -0.16784865824E+02  0.29821529565E+02  0.00000000000E+00 0. -1.
</event>
<event>
 5    1  0.6835419E-004  0.9118800E+02  0.7818608E-02  0.1130116E+00
         25   -1    0    0    0    0  0.00000000000E+00  0.00000000000E+00  0.99999998245E-14  0.12500000000E+03  0.12500000000E+03 0.  0.
        -13    1    3    3    0    0 -0.21181609352E+02 -0.10036345608E+02  0.32911403611E+02  0.40404955879E+02  0.10566000000E+00 0. -1.
         23    2    1    0    0    0  0.21186612387E+02 -0.20713002950E+02 -0.43237301901E+00  0.95367450631E+02  0.90646912015E+02 0.  0.
         13    1    3    3    0    0  0.42368221739E+02 -0.10676657343E+02 -0.33343776630E+02  0.54962494752E+02  0.10566000000E+00 0.  1.
         22    1    1    0    0    0 -0.21186612387E+02  0.20713002950E+02  0.43237301901E+00  0.29632549369E+02  0.00000000000E+00 0.  1.
</event>
<event>
 5    1  0.6835419E-004  0.9118800E+02  0.7818608E-02  0.1130116E+00
         25   -1    0    0    0    0  0.00000000000E+00  0.00000000000E+00  0.99999998245E-14  0.12500000000E+03  0.12500000000E+03 0.  0.
        -13    1    3    3    0    0  0.74681598927E+01  0.40351847972E+02  0.28485173714E+02  0.49954592707E+02  0.10566000000E+00 0. -1.
         23    2    1    0    0    0 -0.23765768530E+02  0.14070202606E+02  0.53730966603E+01  0.96863679648E+02  0.92687215473E+02 0.  0.
         13    1    3    3    0    0 -0.31233928423E+02 -0.26281645366E+02 -0.23112077054E+02  0.46909086941E+02  0.10566000000E+00 0.  1.
         22    1    1    0    0    0  0.23765768530E+02 -0.14070202606E+02 -0.53730966603E+01  0.28136320352E+02  0.00000000000E+00 0. -1.
</event>
<event>
 5    1  0.6835419E-004  0.9118800E+02  0.7818608E-02  0.1130116E+00
         25   -1    0    0    0    0  0.00000000000E+00  0.00000000000E+00  0.99999998245E-14  0.12500000000E+03  0.12500000000E+03 0.  0.
        -13    1    3    3    0    0 -0.10179382513E+02 -0.76519970666E+00 -0.39061740103E+02  0.40373705092E+02  0.10566000000E+00 0. -1.
         23    2    1    0    0    0 -0.85573781091E+01  0.22283790664E+02  0.13348094481E+02  0.97651002345E+02  0.93743002865E+02 0.  0.
         13    1    3    3    0    0  0.16220044041E+01  0.23048990371E+02  0.52409834584E+02  0.57277297253E+02  0.10566000000E+00 0.  1.
         22    1    1    0    0    0  0.85573781091E+01 -0.22283790664E+02 -0.13348094481E+02  0.27348997655E+02  0.00000000000E+00 0.  1.
</event>
<event>
 5    1  0.6835419E-004  0.9118800E+02  0.7818608E-02  0.1130116E+00
         25   -1    0    0    0    0  0.00000000000E+00  0.00000000000E+00  0.99999998245E-14  0.12500000000E+03  0.12500000000E+03 0.  0.
        -13    1    3    3    0    0  0.20265089668E+02 -0.51900283304E+02 -0.99336657657E+01  0.56595071745E+02  0.10566000000E+00 0.  1.
         23    2    1    0    0    0  0.17564166526E+02 -0.54149415166E+01 -0.11734214573E+02  0.10319373189E+03  0.10086343724E+03 0.  0.
         13    1    3    3    0    0 -0.27009231413E+01  0.46485341787E+02 -0.18005488076E+01  0.46598660141E+02  0.10566000000E+00 0. -1.
         22    1    1    0    0    0 -0.17564166526E+02  0.54149415166E+01  0.11734214573E+02  0.21806268114E+02  0.00000000000E+00 0.  1.
</event>
<event>
 5    1  0.6835419E-004  0.9118800E+02  0.7818608E-02  0.1130116E+00
         25   -1    0    0    0    0  0.00000000000E+00  0.00000000000E+00  0.99999998245E-14  0.12500000000E+03  0.12500000000E+03 0.  0.
        -13    1    3    3    0    0 -0.39422180119E+02  0.69487291078E+01 -0.46037926153E+02  0.61007335051E+02  0.10566000000E+00 0.  1.
         23    2    1    0    0    0 -0.18551730096E+02  0.11952818536E+02 -0.16864066481E+02  0.97225311904E+02  0.93173644214E+02 0.  0.
         13    1    3    3    0    0  0.20870450023E+02  0.50040894285E+01  0.29173859671E+02  0.36217976853E+02  0.10566000000E+00 0. -1.
         22    1    1    0    0    0  0.18551730096E+02 -0.11952818536E+02  0.16864066481E+02  0.27774688096E+02  0.00000000000E+00 0.  1.
</event>
<event>
 5    1  0.6835419E-004  0.9118800E+02  0.7818608E-02  0.1130116E+00
         25   -1    0    0    0    0  0.00000000000E+00  0.00000000000E+00  0.99999998245E-14  0.12500000000E+03  0.12500000000E+03 0.  0.
        -13    1    3    3    0    0  0.89568725338E+01 -0.37234167266E+02 -0.30972661904E+02  0.49253687446E+02  0.10566000000E+00 0.  1.
         23    2    1    0    0    0  0.46187724506E+01 -0.46760128835E+02 -0.44084320342E+01  0.77805964566E+02  0.61858638374E+02 0.  0.
         13    1    3    3    0    0 -0.43381000833E+01 -0.95259615686E+01  0.26564229869E+02  0.28552277120E+02  0.10566000000E+00 0. -1.
         22    1    1    0    0    0 -0.46187724506E+01  0.46760128835E+02  0.44084320342E+01  0.47194035434E+02  0.00000000000E+00 0.  1.
</event>
<event>
 5    1  0.6835419E-004  0.9118800E+02  0.7818608E-02  0.1130116E+00
         25   -1    0    0    0    0  0.00000000000E+00  0.00000000000E+00  0.99999998245E-14  0.12500000000E+03  0.12500000000E+03 0.  0.
        -13    1    3    3    0    0  0.10292523478E+02 -0.38918788464E+02  0.17714268048E+02  0.43981980305E+02  0.10566000000E+00 0. -1.
         23    2    1    0    0    0 -0.27521088750E+02 -0.73802470900E+01 -0.55327411944E+00  0.96501149403E+02  0.92197002938E+02 0.  0.
         13    1    3    3    0    0 -0.37813612229E+02  0.31538541374E+02 -0.18267542167E+02  0.52519169097E+02  0.10566000000E+00 0.  1.
         22    1    1    0    0    0  0.27521088750E+02  0.73802470900E+01  0.55327411944E+00  0.28498850597E+02  0.00000000000E+00 0.  1.
</event>
<event>
 5    1  0.6835419E-004  0.9118800E+02  0.7818608E-02  0.1130116E+00
         25   -1    0    0    0    0  0.00000000000E+00  0.00000000000E+00  0.99999998245E-14  0.12500000000E+03  0.12500000000E+03 0.  0.
        -13    1    3    3    0    0  0.23578930147E+02  0.49473536356E+02 -0.15540853407E+02  0.56966007716E+02  0.10566000000E+00 0.  1.
         23    2    1    0    0    0 -0.61628271721E+01  0.26590026127E+02  0.31137206796E+00  0.97703354038E+02  0.93812784361E+02 0.  0.
         13    1    3    3    0    0 -0.29741757319E+02 -0.22883510229E+02  0.15852225475E+02  0.40737346322E+02  0.10566000000E+00 0. -1.
         22    1    1    0    0    0  0.61628271721E+01 -0.26590026127E+02 -0.31137206796E+00  0.27296645962E+02  0.00000000000E+00 0.  1.
</event>
<event>
 5    1  0.6835419E-004  0.9118800E+02  0.7818608E-02  0.1130116E+00
         25   -1    0    0    0    0  0.00000000000E+00  0.00000000000E+00  0.99999998245E-14  0.12500000000E+03  0.12500000000E+03 0.  0.
        -13    1    3    3    0    0 -0.59152364318E+02  0.70104179374E+01 -0.90587900864E+00  0.59573315712E+02  0.10566000000E+00 0.  1.
         23    2    1    0    0    0 -0.27101176346E+02  0.33701993013E+01 -0.13908016304E+02  0.94352570741E+02  0.89236442586E+02 0.  0.
         13    1    3    3    0    0  0.32051187972E+02 -0.36402186361E+01 -0.13002137295E+02  0.34779255030E+02  0.10566000000E+00 0. -1.
         22    1    1    0    0    0  0.27101176346E+02 -0.33701993013E+01  0.13908016304E+02  0.30647429259E+02  0.00000000000E+00 0.  1.
</event>
<event>
 5    1  0.6835419E-004  0.9118800E+02  0.7818608E-02  0.1130116E+00
         25   -1    0    0    0    0  0.00000000000E+00  0.00000000000E+00  0.99999998245E-14  0.12500000000E+03  0.12500000000E+03 0.  0.
        -13    1    3    3    0    0  0.25906083740E+02  0.12986738509E+02 -0.50333148210E+02  0.58079407061E+02  0.10566000000E+00 0.  1.
         23    2    1    0    0    0  0.94616880781E+01 -0.10156048647E+02 -0.26239013618E+02  0.95315749949E+02  0.90575589909E+02 0.  0.
         13    1    3    3    0    0 -0.16444395662E+02 -0.23142787155E+02  0.24094134591E+02  0.37236342889E+02  0.10566000000E+00 0. -1.
         22    1    1    0    0    0 -0.94616880781E+01  0.10156048647E+02  0.26239013618E+02  0.29684250051E+02  0.00000000000E+00 0.  1.
</event>
<event>
 5    1  0.6835419E-004  0.9118800E+02  0.7818608E-02  0.1130116E+00
         25   -1    0    0    0    0  0.00000000000E+00  0.00000000000E+00  0.99999998245E-14  0.12500000000E+03  0.12500000000E+03 0.  0.
        -13    1    3    3    0    0  0.63238010459E+01 -0.30005104001E+02 -0.20257835278E+02  0.36751704450E+02  0.10566000000E+00 0.  1.
         23    2    1    0    0    0 -0.27630967452E+01  0.28878881500E+00  0.29314539306E+02  0.95554112048E+02  0.90903949375E+02 0.  0.
         13    1    3    3    0    0 -0.90868977911E+01  0.30293892816E+02  0.49572374583E+02  0.58802407598E+02  0.10566000000E+00 0. -1.
         22    1    1    0    0    0  0.27630967452E+01 -0.28878881500E+00 -0.29314539306E+02  0.29445887952E+02  0.00000000000E+00 0. -1.
</event>
<event>
 5    1  0.6835419E-004  0.9118800E+02  0.7818608E-02  0.1130116E+00
         25   -1    0    0    0    0  0.00000000000E+00  0.00000000000E+00  0.99999998245E-14  0.12500000000E+03  0.12500000000E+03 0.  0.
        -13    1    3    3    0    0  0.39529425868E+01 -0.51372769753E+02  0.22798625304E+01  0.51575150648E+02  0.10566000000E+00 0. -1.
         23    2    1    0    0    0 -0.77076709776E+01 -0.21163126374E+02  0.25164974206E+02  0.91227791950E+02  0.84746374480E+02 0.  0.
         13    1    3    3    0    0 -0.11660613564E+02  0.30209643379E+02  0.22885111675E+02  0.39652641302E+02  0.10566000000E+00 0.  1.
         22    1    1    0    0    0  0.77076709776E+01  0.21163126374E+02 -0.25164974206E+02  0.33772208050E+02  0.00000000000E+00 0. -1.
</event>
<event>
 5    1  0.6835419E-004  0.9118800E+02  0.7818608E-02  0.1130116E+00
         25   -1    0    0    0    0  0.00000000000E+00  0.00000000000E+00  0.99999998245E-14  0.12500000000E+03  0.12500000000E+03 0.  0.
        -13    1    3    3    0    0  0.28615352078E+02  0.40827397475E+01 -0.47875781540E+02  0.55925028033E+02  0.10566000000E+00 0.  1.
         23    2    1    0    0    0  0.56578148934E+01  0.20683635791E+02 -0.19718085327E+02  0.95868804558E+02  0.91335650978E+02 0.  0.
         13    1    3    3    0    0 -0.22957537185E+02  0.16600896044E+02  0.28157696213E+02  0.39943776525E+02  0.10566000000E+00 0. -1.
         22    1    1    0    0    0 -0.56578148934E+01 -0.20683635791E+02  0.19718085327E+02  0.29131195442E+02  0.00000000000E+00 0.  1.
</event>
<event>
 5    1  0.6835419E-004  0.9118800E+02  0.7818608E-02  0.1130116E+00
         25   -1    0    0    0    0  0.00000000000E+00  0.00000000000E+00  0.99999998245E-14  0.12500000000E+03  0.12500000000E+03 0.  0.
        -13    1    3    3    0    0 -0.26378251401E+02  0.21974599455E+01  0.24516908678E+02  0.36079508760E+02  0.10566000000E+00 0. -1.
         23    2    1    0    0    0  0.45777650923E+01  0.87939651151E+01 -0.26829443397E+02  0.96397398918E+02  0.92056231345E+02 0.  0.
         13    1    3    3    0    0  0.30956016493E+02  0.65965051696E+01 -0.51346352075E+02  0.60317890158E+02  0.10566000000E+00 0.  1.
         22    1    1    0    0    0 -0.45777650923E+01 -0.87939651151E+01  0.26829443397E+02  0.28602601082E+02  0.00000000000E+00 0.  1.
</event>
<event>
 5    1  0.6835419E-004  0.9118800E+02  0.7818608E-02  0.1130116E+00
         25   -1    0    0    0    0  0.00000000000E+00  0.00000000000E+00  0.99999998245E-14  0.12500000000E+03  0.12500000000E+03 0.  0.
        -13    1    3    3    0    0 -0.16885889020E+02  0.19989983410E+02  0.11703392426E+02  0.28665541039E+02  0.10566000000E+00 0. -1.
         23    2    1    0    0    0 -0.31352802768E+02 -0.29387851747E+02 -0.22212464029E+01  0.81970033613E+02  0.69767531154E+02 0.  0.
         13    1    3    3    0    0 -0.14466913747E+02 -0.49377835156E+02 -0.13924638829E+02  0.53304492575E+02  0.10566000000E+00 0.  1.
         22    1    1    0    0    0  0.31352802768E+02  0.29387851747E+02  0.22212464029E+01  0.43029966387E+02  0.00000000000E+00 0. -1.
</event>
<event>
 5    1  0.6835419E-004  0.9118800E+02  0.7818608E-02  0.1130116E+00
         25   -1    0    0    0    0  0.00000000000E+00  0.00000000000E+00  0.99999998245E-14  0.12500000000E+03  0.12500000000E+03 0.  0.
        -13    1    3    3    0    0 -0.31581522827E+01 -0.24592580628E+02 -0.29695184017E+02  0.38685708804E+02  0.10566000000E+00 0.  1.
         23    2    1    0    0    0  0.13659813331E+02  0.24625016620E+02 -0.44851859863E+01  0.96485112010E+02  0.92175256997E+02 0.  0.
         13    1    3    3    0    0  0.16817965614E+02  0.49217597248E+02  0.25209998031E+02  0.57799403206E+02  0.10566000000E+00 0. -1.
         22    1    1    0    0    0 -0.13659813331E+02 -0.24625016620E+02  0.44851859863E+01  0.28514887990E+02  0.00000000000E+00 0. -1.
</event>
<event>
 5    1  0.6835419E-004  0.9118800E+02  0.7818608E-02  0.1130116E+00
         25   -1    0    0    0    0  0.00000000000E+00  0.00000000000E+00  0.99999998245E-14  0.12500000000E+03  0.12500000000E+03 0.  0.
        -13    1    3    3    0    0  0.34851750198E+01  0.37111784511E+02  0.44819040162E+02  0.58293983563E+02  0.10566000000E+00 0.  1.
         23    2    1    0    0    0  0.14774173434E+02  0.85945671637E+01  0.24657216531E+02  0.94997981527E+02  0.90135982725E+02 0.  0.
         13    1    3    3    0    0  0.11288998414E+02 -0.28517217348E+02 -0.20161823631E+02  0.36703997965E+02  0.10566000000E+00 0. -1.
         22    1    1    0    0    0 -0.14774173434E+02 -0.85945671637E+01 -0.24657216531E+02  0.30002018473E+02  0.00000000000E+00 0.  1.
</event>
<event>
 5    1  0.6835419E-004  0.9118800E+02  0.7818608E-02  0.1130116E+00
         25   -1    0    0    0    0  0.00000000000E+00  0.00000000000E+00  0.99999998245E-14  0.12500000000E+03  0.12500000000E+03 0.  0.
        -13    1    3    3    0    0  0.37779735258E+02  0.35908646374E+02  0.31646424576E+02  0.60977427242E+02  0.10566000000E+00 0.  1.
         23    2    1    0    0    0  0.19098418849E+02  0.89372396053E+01  0.20400016604E+02  0.95660870297E+02  0.91050631926E+02 0.  0.
         13    1    3    3    0    0 -0.18681316409E+02 -0.26971406769E+02 -0.11246407972E+02  0.34683443055E+02  0.10566000000E+00 0. -1.
         22    1    1    0    0    0 -0.19098418849E+02 -0.89372396053E+01 -0.20400016604E+02  0.29339129703E+02  0.00000000000E+00 0.  1.
</event>
<event>
 5    1  0.6835419E-004  0.9118800E+02  0.7818608E-02  0.1130116E+00
         25   -1    0    0    0    0  0.00000000000E+00  0.00000000000E+00  0.99999998245E-14  0.12500000000E+03  0.12500000000E+03 0.  0.
        -13    1    3    3    0    0  0.67335761593E+01  0.22501503300E+02 -0.40790123838E+02  0.47069141329E+02  0.10566000000E+00 0.  1.
         23    2    1    0    0    0  0.29950628958E+02 -0.24225538197E+00 -0.64289629787E+01  0.94366188164E+02  0.89255515465E+02 0.  0.
         13    1    3    3    0    0  0.23217052798E+02 -0.22743758682E+02  0.34361160860E+02  0.47297046835E+02  0.10566000000E+00 0. -1.
         22    1    1    0    0    0 -0.29950628958E+02  0.24225538197E+00  0.64289629787E+01  0.30633811836E+02  0.00000000000E+00 0.  1.
</event>
<event>
 5    1  0.6835419E-004  0.9118800E+02  0.7818608E-02  0.1130116E+00
         25   -1    0    0    0    0  0.00000000000E+00  0.00000000000E+00  0.99999998245E-14  0.12500000000E+03  0.12500000000E+03 0.  0.
        -13    1    3    3    0    0  0.11554782549E+02 -0.31573797396E+02 -0.39275764465E+02  0.51701204242E+02  0.10566000000E+00 0. -1.
         23    2    1    0    0    0 -0.14739190430E+02  0.14366040692E+01 -0.24416618187E+02  0.96443410402E+02  0.92118687575E+02 0.  0.
         13    1    3    3    0    0 -0.26293972979E+02  0.33010401466E+02  0.14859146278E+02  0.44742206160E+02  0.10566000000E+00 0.  1.
         22    1    1    0    0    0  0.14739190430E+02 -0.14366040692E+01  0.24416618187E+02  0.28556589598E+02  0.00000000000E+00 0.  1.
</event>
<event>
 5    1  0.6835419E-004  0.9118800E+02  0.7818608E-02  0.1130116E+00
         25   -1    0    0    0    0  0.00000000000E+00  0.00000000000E+00  0.99999998245E-14  0.12500000000E+03  0.12500000000E+03 0.  0.
        -13    1    3    3    0    0 -0.54804392007E+02 -0.23774338640E+02  0.69902238986E+00  0.59743119749E+02  0.10566000000E+00 0.  1.
         23    2    1    0    0    0 -0.21760896944E+02 -0.13994412471E+02 -0.12014476910E+02  0.96474084210E+02  0.92160300849E+02 0.  0.
         13    1    3    3    0    0  0.33043495062E+02  0.97799261687E+01 -0.12713499300E+02  0.36730964461E+02  0.10566000000E+00 0. -1.
         22    1    1    0    0    0  0.21760896944E+02  0.13994412471E+02  0.12014476910E+02  0.28525915790E+02  0.00000000000E+00 0.  1.
</event>
<event>
 5    1  0.6835419E-004  0.9118800E+02  0.7818608E-02  0.1130116E+00
         25   -1    0    0    0    0  0.00000000000E+00  0.00000000000E+00  0.99999998245E-14  0.12500000000E+03  0.12500000000E+03 0.  0.
        -13    1    3    3    0    0 -0.12350761886E+02  0.39030270724E+02 -0.31632396821E+02  0.51735123897E+02  0.10566000000E+00 0. -1.
         23    2    1    0    0    0  0.20335057512E+02  0.15140587663E+02 -0.15282086569E+02  0.95397734399E+02  0.90688663017E+02 0.  0.
         13    1    3    3    0    0  0.32685819398E+02 -0.23889683061E+02  0.16350310252E+02  0.43662610502E+02  0.10566000000E+00 0.  1.
         22    1    1    0    0    0 -0.20335057512E+02 -0.15140587663E+02  0.15282086569E+02  0.29602265601E+02  0.00000000000E+00 0. -1.
</event>
<event>
 5    1  0.6835419E-004  0.9118800E+02  0.7818608E-02  0.1130116E+00
         25   -1    0    0    0    0  0.00000000000E+00  0.00000000000E+00  0.99999998245E-14  0.12500000000E+03  0.12500000000E+03 0.  0.
        -13    1    3    3    0    0 -0.35460672693E+02  0.13086507836E+02 -0.26880923989E+02  0.46382229719E+02  0.10566000000E+00 0.  1.
         23    2    1    0    0    0 -0.21087515521E+02  0.11516028427E+02  0.18924169813E+02  0.94415258302E+02  0.89324210467E+02 0.  0.
         13    1    3    3    0    0  0.14373157172E+02 -0.15704794086E+01  0.45805093802E+02  0.48033028583E+02  0.10566000000E+00 0. -1.
         22    1    1    0    0    0  0.21087515521E+02 -0.11516028427E+02 -0.18924169813E+02  0.30584741698E+02  0.00000000000E+00 0.  1.
</event>
<event>
 5    1  0.6835419E-004  0.9118800E+02  0.7818608E-02  0.1130116E+00
         25   -1    0    0    0    0  0.00000000000E+00  0.00000000000E+00  0.99999998245E-14  0.12500000000E+03  0.12500000000E+03 0.  0.
        -13    1    3    3    0    0  0.20323247107E+02 -0.19505662638E+02 -0.21100409112E+02  0.35195790610E+02  0.10566000000E+00 0.  1.
         23    2    1    0    0    0  0.71980326659E+00  0.32079801961E+01  0.30197622050E+02  0.94623929959E+02  0.89615749116E+02 0.  0.
         13    1    3    3    0    0 -0.19603443841E+02  0.22713642834E+02  0.51298031162E+02  0.59428139348E+02  0.10566000000E+00 0. -1.
         22    1    1    0    0    0 -0.71980326659E+00 -0.32079801961E+01 -0.30197622050E+02  0.30376070041E+02  0.00000000000E+00 0. -1.
</event>
<event>
 5    1  0.6835419E-004  0.9118800E+02  0.7818608E-02  0.1130116E+00
         25   -1    0    0    0    0  0.00000000000E+00  0.00000000000E+00  0.99999998245E-14  0.12500000000E+03  0.12500000000E+03 0.  0.
        -13    1    3    3    0    0 -0.25988625884E+00 -0.34575524666E+02  0.50602411971E+02  0.61287435157E+02  0.10566000000E+00 0. -1.
         23    2    1    0    0    0  0.17773429688E+01 -0.82781970364E+01  0.27074442598E+02  0.96632537367E+02  0.92374965991E+02 0.  0.
         13    1    3    3    0    0  0.20372292277E+01  0.26297327630E+02 -0.23527969373E+02  0.35345102210E+02  0.10566000000E+00 0.  1.
         22    1    1    0    0    0 -0.17773429688E+01  0.82781970364E+01 -0.27074442598E+02  0.28367462633E+02  0.00000000000E+00 0. -1.
</event>
<event>
 5    1  0.6835419E-004  0.9118800E+02  0.7818608E-02  0.1130116E+00
         25   -1    0    0    0    0  0.00000000000E+00  0.00000000000E+00  0.99999998245E-14  0.12500000000E+03  0.12500000000E+03 0.  0.
        -13    1    3    3    0    0  0.14759876651E+02  0.36955954403E+02  0.19051293259E+02  0.44119830728E+02  0.10566000000E+00 0. -1.
         23    2    1    0    0    0  0.54514605956E+01  0.38448812319E+01 -0.24496011421E+02  0.99611890384E+02  0.96322233134E+02 0.  0.
         13    1    3    3    0    0 -0.93084160557E+01 -0.33111073171E+02 -0.43547304680E+02  0.55492059656E+02  0.10566000000E+00 0.  1.
         22    1    1    0    0    0 -0.54514605956E+01 -0.38448812319E+01  0.24496011421E+02  0.25388109616E+02  0.00000000000E+00 0. -1.
</event>
<event>
 5    1  0.6835419E-004  0.9118800E+02  0.7818608E-02  0.1130116E+00
         25   -1    0    0    0    0  0.00000000000E+00  0.00000000000E+00  0.99999998245E-14  0.12500000000E+03  0.12500000000E+03 0.  0.
        -13    1    3    3    0    0 -0.27635551628E+02  0.26873732533E+02  0.96536617566E+00  0.38559879538E+02  0.10566000000E+00 0. -1.
         23    2    1    0    0    0  0.68780969029E+01 -0.83873342495E+01 -0.27440450907E+02  0.95493493280E+02  0.90820555603E+02 0.  0.
         13    1    3    3    0    0  0.34513648531E+02 -0.35261066783E+02 -0.28405817083E+02  0.56933613742E+02  0.10566000000E+00 0.  1.
         22    1    1    0    0    0 -0.68780969029E+01  0.83873342495E+01  0.27440450907E+02  0.29506506720E+02  0.00000000000E+00 0.  1.
</event>
<event>
 5    1  0.6835419E-004  0.9118800E+02  0.7818608E-02  0.1130116E+00
         25   -1    0    0    0    0  0.00000000000E+00  0.00000000000E+00  0.99999998245E-14  0.12500000000E+03  0.12500000000E+03 0.  0.
        -13    1    3    3    0    0  0.57290574631E+02 -0.12525014359E+02  0.46135841095E+01  0.58825013800E+02  0.10566000000E+00 0.  1.
         23    2    1    0    0    0  0.24693046639E+02 -0.20874608598E+02  0.12671228703E+01  0.92641053219E+02  0.86805894412E+02 0.  0.
         13    1    3    3    0    0 -0.32597527991E+02 -0.83495942390E+01 -0.33464612392E+01  0.33816039419E+02  0.10566000000E+00 0. -1.
         22    1    1    0    0    0 -0.24693046639E+02  0.20874608598E+02 -0.12671228703E+01  0.32358946781E+02  0.00000000000E+00 0.  1.
</event>
<event>
 5    1  0.6835419E-004  0.9118800E+02  0.7818608E-02  0.1130116E+00
         25   -1    0    0    0    0  0.00000000000E+00  0.00000000000E+00  0.99999998245E-14  0.12500000000E+03  0.12500000000E+03 0.  0.
        -13    1    3    3    0    0  0.34604085315E+02  0.97056611710E+01  0.41424781823E+02  0.54842194452E+02  0.10566000000E+00 0.  1.
         23    2    1    0    0    0  0.11349918357E+02  0.18570507873E+02  0.39621674705E+02  0.79794231388E+02  0.65753766789E+02 0.  0.
         13    1    3    3    0    0 -0.23254166957E+02  0.88648467024E+01 -0.18031071176E+01  0.24952036936E+02  0.10566000000E+00 0. -1.
         22    1    1    0    0    0 -0.11349918357E+02 -0.18570507873E+02 -0.39621674705E+02  0.45205768612E+02  0.00000000000E+00 0.  1.
</event>
<event>
 5    1  0.6835419E-004  0.9118800E+02  0.7818608E-02  0.1130116E+00
         25   -1    0    0    0    0  0.00000000000E+00  0.00000000000E+00  0.99999998245E-14  0.12500000000E+03  0.12500000000E+03 0.  0.
        -13    1    3    3    0    0 -0.21042740103E+02 -0.50363605826E+02 -0.27311774600E+02  0.61034694221E+02  0.10566000000E+00 0.  1.
         23    2    1    0    0    0 -0.20101195962E+01 -0.26220980319E+02 -0.73334907940E+01  0.97698709244E+02  0.93806595243E+02 0.  0.
         13    1    3    3    0    0  0.19032620507E+02  0.24142625507E+02  0.19978283806E+02  0.36664015023E+02  0.10566000000E+00 0. -1.
         22    1    1    0    0    0  0.20101195962E+01  0.26220980319E+02  0.73334907940E+01  0.27301290756E+02  0.00000000000E+00 0.  1.
</event>
<event>
 5    1  0.6835419E-004  0.9118800E+02  0.7818608E-02  0.1130116E+00
         25   -1    0    0    0    0  0.00000000000E+00  0.00000000000E+00  0.99999998245E-14  0.12500000000E+03  0.12500000000E+03 0.  0.
        -13    1    3    3    0    0 -0.10310057159E+02  0.26014397291E+01  0.31647917646E+02  0.33386623409E+02  0.10566000000E+00 0.  1.
         23    2    1    0    0    0  0.60333047482E+01 -0.10470711955E+02 -0.26871729333E+02  0.95536014995E+02  0.90879061113E+02 0.  0.
         13    1    3    3    0    0  0.16343361908E+02 -0.13072151684E+02 -0.58519646978E+02  0.62149391587E+02  0.10566000000E+00 0. -1.
         22    1    1    0    0    0 -0.60333047482E+01  0.10470711955E+02  0.26871729333E+02  0.29463985005E+02  0.00000000000E+00 0. -1.
</event>
<event>
 5    1  0.6835419E-004  0.9118800E+02  0.7818608E-02  0.1130116E+00
         25   -1    0    0    0    0  0.00000000000E+00  0.00000000000E+00  0.99999998245E-14  0.12500000000E+03  0.12500000000E+03 0.  0.
        -13    1    3    3    0    0 -0.26741444980E+02  0.21768190081E+02 -0.18546275634E+01  0.34531287066E+02  0.10566000000E+00 0. -1.
         23    2    1    0    0    0  0.28869880358E+02 -0.25457920660E+01  0.49233083749E+01  0.95602891052E+02  0.90970999571E+02 0.  0.
         13    1    3    3    0    0  0.55611325339E+02 -0.24313982147E+02  0.67779359383E+01  0.61071603986E+02  0.10566000000E+00 0.  1.
         22    1    1    0    0    0 -0.28869880358E+02  0.25457920660E+01 -0.49233083749E+01  0.29397108948E+02  0.00000000000E+00 0.  1.
</event>
<event>
 5    1  0.6835419E-004  0.9118800E+02  0.7818608E-02  0.1130116E+00
         25   -1    0    0    0    0  0.00000000000E+00  0.00000000000E+00  0.99999998245E-14  0.12500000000E+03  0.12500000000E+03 0.  0.
        -13    1    3    3    0    0 -0.35689943024E+02  0.24706493305E+02  0.54817354471E+01  0.43752067746E+02  0.10566000000E+00 0.  1.
         23    2    1    0    0    0  0.10901839725E+02  0.20579766402E+02 -0.17501457078E+02  0.95867923273E+02  0.91334444862E+02 0.  0.
         13    1    3    3    0    0  0.46591782749E+02 -0.41267269022E+01 -0.22983192525E+02  0.52115855528E+02  0.10566000000E+00 0. -1.
         22    1    1    0    0    0 -0.10901839725E+02 -0.20579766402E+02  0.17501457078E+02  0.29132076727E+02  0.00000000000E+00 0.  1.
</event>
<event>
 5    1  0.6835419E-004  0.9118800E+02  0.7818608E-02  0.1130116E+00
         25   -1    0    0    0    0  0.00000000000E+00  0.00000000000E+00  0.99999998245E-14  0.12500000000E+03  0.12500000000E+03 0.  0.
        -13    1    3    3    0    0  0.10739213397E+02  0.29892052843E+02  0.35337671975E+02  0.47514500442E+02  0.10566000000E+00 0.  1.
         23    2    1    0    0    0 -0.24796696116E+02  0.15460315044E+02  0.77258713508E+01  0.94774405421E+02  0.89825393710E+02 0.  0.
         13    1    3    3    0    0 -0.35535909514E+02 -0.14431737799E+02 -0.27611800625E+02  0.47259904979E+02  0.10566000000E+00 0. -1.
         22    1    1    0    0    0  0.24796696116E+02 -0.15460315044E+02 -0.77258713508E+01  0.30225594579E+02  0.00000000000E+00 0.  1.
</event>
<event>
 5    1  0.6835419E-004  0.9118800E+02  0.7818608E-02  0.1130116E+00
         25   -1    0    0    0    0  0.00000000000E+00  0.00000000000E+00  0.99999998245E-14  0.12500000000E+03  0.12500000000E+03 0.  0.
        -13    1    3    3    0    0 -0.35529730610E+02 -0.29097566576E+02 -0.27597673953E+02  0.53578660953E+02  0.10566000000E+00 0.  1.
         23    2    1    0    0    0 -0.22293161796E+02 -0.12516423625E+02  0.10639722839E+02  0.97307950143E+02  0.93284444232E+02 0.  0.
         13    1    3    3    0    0  0.13236568814E+02  0.16581142951E+02  0.38237396792E+02  0.43729289189E+02  0.10566000000E+00 0. -1.
         22    1    1    0    0    0  0.22293161796E+02  0.12516423625E+02 -0.10639722839E+02  0.27692049857E+02  0.00000000000E+00 0.  1.
</event>
<event>
 5    1  0.6835419E-004  0.9118800E+02  0.7818608E-02  0.1130116E+00
         25   -1    0    0    0    0  0.00000000000E+00  0.00000000000E+00  0.99999998245E-14  0.12500000000E+03  0.12500000000E+03 0.  0.
        -13    1    3    3    0    0  0.35784677496E+02 -0.36949232788E+02 -0.39698254218E+01  0.51590305533E+02  0.10566000000E+00 0. -1.
         23    2    1    0    0    0  0.50133394533E+01 -0.13717020439E+02 -0.25398747678E+02  0.95701764459E+02  0.91106756691E+02 0.  0.
         13    1    3    3    0    0 -0.30771338042E+02  0.23232212348E+02 -0.21428922256E+02  0.44111458926E+02  0.10566000000E+00 0.  1.
         22    1    1    0    0    0 -0.50133394533E+01  0.13717020439E+02  0.25398747678E+02  0.29298235541E+02  0.00000000000E+00 0. -1.
</event>
<event>
 5    1  0.6835419E-004  0.9118800E+02  0.7818608E-02  0.1130116E+00
         25   -1    0    0    0    0  0.00000000000E+00  0.00000000000E+00  0.99999998245E-14  0.12500000000E+03  0.12500000000E+03 0.  0.
        -13    1    3    3    0    0  0.18988446949E+01  0.17952758871E+02 -0.58059643661E+02  0.60801649224E+02  0.10566000000E+00 0.  1.
         23    2    1    0    0    0 -0.91164623751E+01  0.98008829196E+01 -0.23912142888E+02  0.97596391301E+02  0.93670154400E+02 0.  0.
         13    1    3    3    0    0 -0.11015307070E+02 -0.81518759516E+01  0.34147500774E+02  0.36794742077E+02  0.10566000000E+00 0. -1.
         22    1    1    0    0    0  0.91164623751E+01 -0.98008829196E+01  0.23912142888E+02  0.27403608699E+02  0.00000000000E+00 0.  1.
</event>
<event>
 5    1  0.6835419E-004  0.9118800E+02  0.7818608E-02  0.1130116E+00
         25   -1    0    0    0    0  0.00000000000E+00  0.00000000000E+00  0.99999998245E-14  0.12500000000E+03  0.12500000000E+03 0.  0.
        -13    1    3    3    0    0 -0.38144497393E+02 -0.37201757603E+01 -0.24243658942E+00  0.38326392063E+02  0.10566000000E+00 0.  1.
         23    2    1    0    0    0  0.13501176368E+02  0.23031378283E+02  0.81385655507E+01  0.97090102147E+02  0.92992072441E+02 0.  0.
         13    1    3    3    0    0  0.51645673761E+02  0.26751554043E+02  0.83810021402E+01  0.58763710084E+02  0.10566000000E+00 0. -1.
         22    1    1    0    0    0 -0.13501176368E+02 -0.23031378283E+02 -0.81385655507E+01  0.27909897853E+02  0.00000000000E+00 0. -1.
</event>
<event>
 5    1  0.6835419E-004  0.9118800E+02  0.7818608E-02  0.1130116E+00
         25   -1    0    0    0    0  0.00000000000E+00  0.00000000000E+00  0.99999998245E-14  0.12500000000E+03  0.12500000000E+03 0.  0.
        -13    1    3    3    0    0 -0.37777162313E+02 -0.15547700434E+02  0.19727274293E+02  0.45365421813E+02  0.10566000000E+00 0. -1.
         23    2    1    0    0    0  0.95874571297E+01 -0.24923552688E+02 -0.18097238690E+01  0.98234762970E+02  0.94518203233E+02 0.  0.
         13    1    3    3    0    0  0.47364619443E+02 -0.93758522543E+01 -0.21536998162E+02  0.52869341156E+02  0.10566000000E+00 0.  1.
         22    1    1    0    0    0 -0.95874571297E+01  0.24923552688E+02  0.18097238690E+01  0.26765237030E+02  0.00000000000E+00 0.  1.
</event>
<event>
 5    1  0.6835419E-004  0.9118800E+02  0.7818608E-02  0.1130116E+00
         25   -1    0    0    0    0  0.00000000000E+00  0.00000000000E+00  0.99999998245E-14  0.12500000000E+03  0.12500000000E+03 0.  0.
        -13    1    3    3    0    0  0.24415321428E+02  0.16310616038E+02 -0.93948507194E+01  0.30828858234E+02  0.10566000000E+00 0. -1.
         23    2    1    0    0    0 -0.23334356277E+02 -0.15958351406E+02  0.14513893409E+02  0.93222425135E+02  0.87639068250E+02 0.  0.
         13    1    3    3    0    0 -0.47749677704E+02 -0.32268967444E+02  0.23908744128E+02  0.62393566901E+02  0.10566000000E+00 0.  1.
         22    1    1    0    0    0  0.23334356277E+02  0.15958351406E+02 -0.14513893409E+02  0.31777574865E+02  0.00000000000E+00 0.  1.
</event>
<event>
 5    1  0.6835419E-004  0.9118800E+02  0.7818608E-02  0.1130116E+00
         25   -1    0    0    0    0  0.00000000000E+00  0.00000000000E+00  0.99999998245E-14  0.12500000000E+03  0.12500000000E+03 0.  0.
        -13    1    3    3    0    0  0.14916178117E+02 -0.27688396896E+02  0.32365421497E+02  0.45129495510E+02  0.10566000000E+00 0.  1.
         23    2    1    0    0    0 -0.21110292213E+02  0.63650552585E+01  0.17398265448E+02  0.96913383857E+02  0.92754223430E+02 0.  0.
         13    1    3    3    0    0 -0.36026470330E+02  0.34053452154E+02 -0.14967156049E+02  0.51783888347E+02  0.10566000000E+00 0. -1.
         22    1    1    0    0    0  0.21110292213E+02 -0.63650552585E+01 -0.17398265448E+02  0.28086616143E+02  0.00000000000E+00 0.  1.
</event>
<event>
 5    1  0.6835419E-004  0.9118800E+02  0.7818608E-02  0.1130116E+00
         25   -1    0    0    0    0  0.00000000000E+00  0.00000000000E+00  0.99999998245E-14  0.12500000000E+03  0.12500000000E+03 0.  0.
        -13    1    3    3    0    0  0.18281762158E+02 -0.11431014060E+02  0.43671850379E+02  0.48704543829E+02  0.10566000000E+00 0. -1.
         23    2    1    0    0    0 -0.19884590108E+02  0.44777553798E+01  0.20443492391E+02  0.96131615941E+02  0.91694623535E+02 0.  0.
         13    1    3    3    0    0 -0.38166352266E+02  0.15908769440E+02 -0.23228357987E+02  0.47427072113E+02  0.10566000000E+00 0.  1.
         22    1    1    0    0    0  0.19884590108E+02 -0.44777553798E+01 -0.20443492391E+02  0.28868384059E+02  0.00000000000E+00 0. -1.
</event>
<event>
 5    1  0.6835419E-004  0.9118800E+02  0.7818608E-02  0.1130116E+00
         25   -1    0    0    0    0  0.00000000000E+00  0.00000000000E+00  0.99999998245E-14  0.12500000000E+03  0.12500000000E+03 0.  0.
        -13    1    3    3    0    0  0.38431057991E+02 -0.98078408479E+01 -0.21441069732E+02  0.45087366253E+02  0.10566000000E+00 0.  1.
         23    2    1    0    0    0  0.14110897747E+02  0.25554779361E+02  0.48347790379E+01  0.95410487132E+02  0.90706238942E+02 0.  0.
         13    1    3    3    0    0 -0.24320160244E+02  0.35362620209E+02  0.26275848770E+02  0.50323120879E+02  0.10566000000E+00 0. -1.
         22    1    1    0    0    0 -0.14110897747E+02 -0.25554779361E+02 -0.48347790379E+01  0.29589512868E+02  0.00000000000E+00 0. -1.
</event>
<event>
 5    1  0.6835419E-004  0.9118800E+02  0.7818608E-02  0.1130116E+00
         25   -1    0    0    0    0  0.00000000000E+00  0.00000000000E+00  0.99999998245E-14  0.12500000000E+03  0.12500000000E+03 0.  0.
        -13    1    3    3    0    0 -0.22994509589E+02  0.30217872599E+02 -0.44972991422E+02  0.58859565213E+02  0.10566000000E+00 0.  1.
         23    2    1    0    0    0  0.37981113639E+01  0.17780257328E+02 -0.23036558909E+02  0.95653002761E+02  0.91039830241E+02 0.  0.
         13    1    3    3    0    0  0.26792620953E+02 -0.12437615271E+02  0.21936432513E+02  0.36793437548E+02  0.10566000000E+00 0. -1.
         22    1    1    0    0    0 -0.37981113639E+01 -0.17780257328E+02  0.23036558909E+02  0.29346997239E+02  0.00000000000E+00 0.  1.
</event>
<event>
 5    1  0.6835419E-004  0.9118800E+02  0.7818608E-02  0.1130116E+00
         25   -1    0    0    0    0  0.00000000000E+00  0.00000000000E+00  0.99999998245E-14  0.12500000000E+03  0.12500000000E+03 0.  0.
        -13    1    3    3    0    0  0.12258491577E+02  0.18932490983E+02  0.20254685918E+02  0.30314572341E+02  0.10566000000E+00 0.  1.
         23    2    1    0    0    0 -0.32077395734E+02  0.30697404018E+02 -0.34801244565E+00  0.80599425193E+02  0.67267052100E+02 0.  0.
         13    1    3    3    0    0 -0.44335887312E+02  0.11764913035E+02 -0.20602698364E+02  0.50284852852E+02  0.10566000000E+00 0. -1.
         22    1    1    0    0    0  0.32077395734E+02 -0.30697404018E+02  0.34801244565E+00  0.44400574807E+02  0.00000000000E+00 0.  1.
</event>
<event>
 5    1  0.6835419E-004  0.9118800E+02  0.7818608E-02  0.1130116E+00
         25   -1    0    0    0    0  0.00000000000E+00  0.00000000000E+00  0.99999998245E-14  0.12500000000E+03  0.12500000000E+03 0.  0.
        -13    1    3    3    0    0 -0.14802461413E+02  0.36251790927E+02 -0.14839819469E+01  0.39185693509E+02  0.10566000000E+00 0. -1.
         23    2    1    0    0    0  0.10418402542E+02 -0.35315829228E+01 -0.29170489249E+02  0.93824165889E+02  0.88493171897E+02 0.  0.
         13    1    3    3    0    0  0.25220863955E+02 -0.39783373850E+02 -0.27686507302E+02  0.54638472381E+02  0.10566000000E+00 0.  1.
         22    1    1    0    0    0 -0.10418402542E+02  0.35315829228E+01  0.29170489249E+02  0.31175834111E+02  0.00000000000E+00 0.  1.
</event>
<event>
 5    1  0.6835419E-004  0.9118800E+02  0.7818608E-02  0.1130116E+00
         25   -1    0    0    0    0  0.00000000000E+00  0.00000000000E+00  0.99999998245E-14  0.12500000000E+03  0.12500000000E+03 0.  0.
        -13    1    3    3    0    0 -0.11116262236E+02  0.30316657986E+02  0.70929159775E+01  0.33060424356E+02  0.10566000000E+00 0. -1.
         23    2    1    0    0    0  0.12958798434E+02 -0.26704012675E+02  0.41916156787E+01  0.95023269161E+02  0.90171044633E+02 0.  0.
         13    1    3    3    0    0  0.24075060670E+02 -0.57020670660E+02 -0.29013002988E+01  0.61962844805E+02  0.10566000000E+00 0.  1.
         22    1    1    0    0    0 -0.12958798434E+02  0.26704012675E+02 -0.41916156787E+01  0.29976730839E+02  0.00000000000E+00 0.  1.
</event>
<event>
 5    1  0.6835419E-004  0.9118800E+02  0.7818608E-02  0.1130116E+00
         25   -1    0    0    0    0  0.00000000000E+00  0.00000000000E+00  0.99999998245E-14  0.12500000000E+03  0.12500000000E+03 0.  0.
        -13    1    3    3    0    0  0.34452763129E+02  0.43485643397E+02 -0.16632299891E+02  0.57919242335E+02  0.10566000000E+00 0. -1.
         23    2    1    0    0    0  0.19911621393E+02  0.12297724871E+02  0.80321238247E+01  0.10025688547E+03  0.97155655355E+02 0.  0.
         13    1    3    3    0    0 -0.14541141736E+02 -0.31187918526E+02  0.24664423716E+02  0.42337643135E+02  0.10566000000E+00 0.  1.
         22    1    1    0    0    0 -0.19911621393E+02 -0.12297724871E+02 -0.80321238247E+01  0.24743114530E+02  0.00000000000E+00 0. -1.
</event>
<event>
 5    1  0.6835419E-004  0.9118800E+02  0.7818608E-02  0.1130116E+00
         25   -1    0    0    0    0  0.00000000000E+00  0.00000000000E+00  0.99999998245E-14  0.12500000000E+03  0.12500000000E+03 0.  0.
        -13    1    3    3    0    0 -0.23044988660E+02  0.60715890520E+01 -0.45339883396E+02  0.51221595898E+02  0.10566000000E+00 0.  1.
         23    2    1    0    0    0  0.63068180762E+00  0.26042044240E+02 -0.13429093373E+02  0.95692554247E+02  0.91094119249E+02 0.  0.
         13    1    3    3    0    0  0.23675670468E+02  0.19970455188E+02  0.31910790022E+02  0.44470958348E+02  0.10566000000E+00 0. -1.
         22    1    1    0    0    0 -0.63068180762E+00 -0.26042044240E+02  0.13429093373E+02  0.29307445753E+02  0.00000000000E+00 0.  1.
</event>
<event>
 5    1  0.6835419E-004  0.9118800E+02  0.7818608E-02  0.1130116E+00
         25   -1    0    0    0    0  0.00000000000E+00  0.00000000000E+00  0.99999998245E-14  0.12500000000E+03  0.12500000000E+03 0.  0.
        -13    1    3    3    0    0  0.26766448929E+02  0.78044991926E+01  0.14959187031E+02  0.31640819152E+02  0.10566000000E+00 0. -1.
         23    2    1    0    0    0 -0.13109023345E+02 -0.12332439988E+02 -0.26750999083E+02  0.92757923127E+02  0.86974023604E+02 0.  0.
         13    1    3    3    0    0 -0.39875472275E+02 -0.20136939181E+02 -0.41710186114E+02  0.61117103976E+02  0.10566000000E+00 0.  1.
         22    1    1    0    0    0  0.13109023345E+02  0.12332439988E+02  0.26750999083E+02  0.32242076873E+02  0.00000000000E+00 0.  1.
</event>
<event>
 5    1  0.6835419E-004  0.9118800E+02  0.7818608E-02  0.1130116E+00
         25   -1    0    0    0    0  0.00000000000E+00  0.00000000000E+00  0.99999998245E-14  0.12500000000E+03  0.12500000000E+03 0.  0.
        -13    1    3    3    0    0  0.37682100720E+02  0.16788597083E+02  0.11938492259E+01  0.41270257410E+02  0.10566000000E+00 0.  1.
         23    2    1    0    0    0  0.38505454821E+01 -0.27615033044E+02 -0.36153415589E+00  0.97115462036E+02  0.93026154973E+02 0.  0.
         13    1    3    3    0    0 -0.33831555238E+02 -0.44403630127E+02 -0.15553833818E+01  0.55845204626E+02  0.10566000000E+00 0. -1.
         22    1    1    0    0    0 -0.38505454821E+01  0.27615033044E+02  0.36153415589E+00  0.27884537964E+02  0.00000000000E+00 0. -1.
</event>
<event>
 5    1  0.6835419E-004  0.9118800E+02  0.7818608E-02  0.1130116E+00
         25   -1    0    0    0    0  0.00000000000E+00  0.00000000000E+00  0.99999998245E-14  0.12500000000E+03  0.12500000000E+03 0.  0.
        -13    1    3    3    0    0  0.26204757245E+02 -0.16041469275E+02 -0.12655732310E+02  0.33229456257E+02  0.10566000000E+00 0. -1.
         23    2    1    0    0    0 -0.28012816669E+02 -0.57641689631E+01  0.12391811347E+02  0.93831096747E+02  0.88502961457E+02 0.  0.
         13    1    3    3    0    0 -0.54217573914E+02  0.10277300312E+02  0.25047543657E+02  0.60601640490E+02  0.10566000000E+00 0.  1.
         22    1    1    0    0    0  0.28012816669E+02  0.57641689631E+01 -0.12391811347E+02  0.31168903253E+02  0.00000000000E+00 0.  1.
</event>
<event>
 5    1  0.6835419E-004  0.9118800E+02  0.7818608E-02  0.1130116E+00
         25   -1    0    0    0    0  0.00000000000E+00  0.00000000000E+00  0.99999998245E-14  0.12500000000E+03  0.12500000000E+03 0.  0.
        -13    1    3    3    0    0  0.25051678480E+02 -0.43282298722E+01 -0.23803172049E+02  0.34827034501E+02  0.10566000000E+00 0.  1.
         23    2    1    0    0    0 -0.30396110142E+02 -0.75587477736E-01 -0.14908252660E+02  0.91144642631E+02  0.84623641245E+02 0.  0.
         13    1    3    3    0    0 -0.55447788622E+02  0.42526423945E+01  0.88949193889E+01  0.56317608129E+02  0.10566000000E+00 0. -1.
         22    1    1    0    0    0  0.30396110142E+02  0.75587477736E-01  0.14908252660E+02  0.33855357369E+02  0.00000000000E+00 0. -1.
</event>
<event>
 5    1  0.6835419E-004  0.9118800E+02  0.7818608E-02  0.1130116E+00
         25   -1    0    0    0    0  0.00000000000E+00  0.00000000000E+00  0.99999998245E-14  0.12500000000E+03  0.12500000000E+03 0.  0.
        -13    1    3    3    0    0 -0.50954970617E+02 -0.98433586141E+01  0.33911276863E+02  0.61994246522E+02  0.10566000000E+00 0. -1.
         23    2    1    0    0    0 -0.23184905282E+02 -0.89610033949E+01  0.11894568090E+02  0.97444235361E+02  0.93466886331E+02 0.  0.
         13    1    3    3    0    0  0.27770065335E+02  0.88235521917E+00 -0.22016708773E+02  0.35449988839E+02  0.10566000000E+00 0.  1.
         22    1    1    0    0    0  0.23184905282E+02  0.89610033949E+01 -0.11894568090E+02  0.27555764639E+02  0.00000000000E+00 0. -1.
</event>
<event>
 5    1  0.6835419E-004  0.9118800E+02  0.7818608E-02  0.1130116E+00
         25   -1    0    0    0    0  0.00000000000E+00  0.00000000000E+00  0.99999998245E-14  0.12500000000E+03  0.12500000000E+03 0.  0.
        -13    1    3    3    0    0 -0.25007758397E+02 -0.37141807831E+02 -0.17482980050E+02  0.48068364071E+02  0.10566000000E+00 0.  1.
         23    2    1    0    0    0 -0.18729025967E+02  0.10506638000E+02 -0.19248579827E+02  0.96161246887E+02  0.91735008158E+02 0.  0.
         13    1    3    3    0    0  0.62787324297E+01  0.47648445831E+02 -0.17655997765E+01  0.48092882817E+02  0.10566000000E+00 0. -1.
         22    1    1    0    0    0  0.18729025967E+02 -0.10506638000E+02  0.19248579827E+02  0.28838753113E+02  0.00000000000E+00 0.  1.
</event>
<event>
 5    1  0.6835419E-004  0.9118800E+02  0.7818608E-02  0.1130116E+00
         25   -1    0    0    0    0  0.00000000000E+00  0.00000000000E+00  0.99999998245E-14  0.12500000000E+03  0.12500000000E+03 0.  0.
        -13    1    3    3    0    0  0.26736091014E+02  0.74712712385E+01 -0.38465979092E+02  0.47437128582E+02  0.10566000000E+00 0.  1.
         23    2    1    0    0    0 -0.50018976030E+01 -0.22759494475E+02 -0.16361196865E+02  0.96527165030E+02  0.92232267984E+02 0.  0.
         13    1    3    3    0    0 -0.31737988616E+02 -0.30230765714E+02  0.22104782227E+02  0.49090036447E+02  0.10566000000E+00 0. -1.
         22    1    1    0    0    0  0.50018976030E+01  0.22759494475E+02  0.16361196865E+02  0.28472834970E+02  0.00000000000E+00 0.  1.
</event>
<event>
 5    1  0.6835419E-004  0.9118800E+02  0.7818608E-02  0.1130116E+00
         25   -1    0    0    0    0  0.00000000000E+00  0.00000000000E+00  0.99999998245E-14  0.12500000000E+03  0.12500000000E+03 0.  0.
        -13    1    3    3    0    0  0.36870754657E+02 -0.98828941234E+01 -0.19340650693E+02  0.42792476891E+02  0.10566000000E+00 0.  1.
         23    2    1    0    0    0 -0.13020677028E+02 -0.24625012500E+02 -0.76341462638E+01  0.96117315567E+02  0.91675126897E+02 0.  0.
         13    1    3    3    0    0 -0.49891431685E+02 -0.14742118377E+02  0.11706504429E+02  0.53324838676E+02  0.10566000000E+00 0. -1.
         22    1    1    0    0    0  0.13020677028E+02  0.24625012500E+02  0.76341462638E+01  0.28882684433E+02  0.00000000000E+00 0. -1.
</event>
<event>
 5    1  0.6835419E-004  0.9118800E+02  0.7818608E-02  0.1130116E+00
         25   -1    0    0    0    0  0.00000000000E+00  0.00000000000E+00  0.99999998245E-14  0.12500000000E+03  0.12500000000E+03 0.  0.
        -13    1    3    3    0    0  0.35569701078E+02  0.56933572668E+01  0.44230714466E+01  0.36293149172E+02  0.10566000000E+00 0. -1.
         23    2    1    0    0    0 -0.11209532638E+02 -0.17432288664E+02  0.25122456991E+02  0.92431976490E+02  0.86504301180E+02 0.  0.
         13    1    3    3    0    0 -0.46779233716E+02 -0.23125645931E+02  0.20699385545E+02  0.56138827319E+02  0.10566000000E+00 0.  1.
         22    1    1    0    0    0  0.11209532638E+02  0.17432288664E+02 -0.25122456991E+02  0.32568023510E+02  0.00000000000E+00 0.  1.
</event>
<event>
 5    1  0.6835419E-004  0.9118800E+02  0.7818608E-02  0.1130116E+00
         25   -1    0    0    0    0  0.00000000000E+00  0.00000000000E+00  0.99999998245E-14  0.12500000000E+03  0.12500000000E+03 0.  0.
        -13    1    3    3    0    0  0.26953901951E+02 -0.17563742206E+02  0.71665631837E+01  0.32960107139E+02  0.10566000000E+00 0. -1.
         23    2    1    0    0    0 -0.27727615347E+02 -0.73035805713E+01 -0.14747666757E+02  0.92756293378E+02  0.86971681278E+02 0.  0.
         13    1    3    3    0    0 -0.54681517298E+02  0.10260161635E+02 -0.21914229941E+02  0.59796186239E+02  0.10566000000E+00 0.  1.
         22    1    1    0    0    0  0.27727615347E+02  0.73035805713E+01  0.14747666757E+02  0.32243706622E+02  0.00000000000E+00 0.  1.
</event>
<event>
 5    1  0.6835419E-004  0.9118800E+02  0.7818608E-02  0.1130116E+00
         25   -1    0    0    0    0  0.00000000000E+00  0.00000000000E+00  0.99999998245E-14  0.12500000000E+03  0.12500000000E+03 0.  0.
        -13    1    3    3    0    0  0.33440535575E+02  0.26989408570E+02 -0.75066002826E+01  0.43624050779E+02  0.10566000000E+00 0.  1.
         23    2    1    0    0    0  0.60739674758E+01 -0.35860609091E+01  0.26910212820E+02  0.97180717699E+02  0.93113798250E+02 0.  0.
         13    1    3    3    0    0 -0.27366568099E+02 -0.30575469479E+02  0.34416813103E+02  0.53556666920E+02  0.10566000000E+00 0. -1.
         22    1    1    0    0    0 -0.60739674758E+01  0.35860609091E+01 -0.26910212820E+02  0.27819282301E+02  0.00000000000E+00 0. -1.
</event>
<event>
 5    1  0.6835419E-004  0.9118800E+02  0.7818608E-02  0.1130116E+00
         25   -1    0    0    0    0  0.00000000000E+00  0.00000000000E+00  0.99999998245E-14  0.12500000000E+03  0.12500000000E+03 0.  0.
        -13    1    3    3    0    0  0.23116541212E+02 -0.31736449635E+02 -0.34487757295E+02  0.52258906230E+02  0.10566000000E+00 0. -1.
         23    2    1    0    0    0  0.18238423226E+02  0.90428003704E+01 -0.21635401294E+02  0.95293049476E+02  0.90544256410E+02 0.  0.
         13    1    3    3    0    0 -0.48781179860E+01  0.40779250005E+02  0.12852356001E+02  0.43034143246E+02  0.10566000000E+00 0.  1.
         22    1    1    0    0    0 -0.18238423226E+02 -0.90428003704E+01  0.21635401294E+02  0.29706950524E+02  0.00000000000E+00 0.  1.
</event>
<event>
 5    1  0.6835419E-004  0.9118800E+02  0.7818608E-02  0.1130116E+00
         25   -1    0    0    0    0  0.00000000000E+00  0.00000000000E+00  0.99999998245E-14  0.12500000000E+03  0.12500000000E+03 0.  0.
        -13    1    3    3    0    0 -0.33034184070E+02  0.23642999294E+02  0.24427636877E+02  0.47402208179E+02  0.10566000000E+00 0.  1.
         23    2    1    0    0    0 -0.17714187039E+02  0.13274418501E+01 -0.19261865377E+02  0.98797443214E+02  0.95259439445E+02 0.  0.
         13    1    3    3    0    0  0.15319997031E+02 -0.22315557444E+02 -0.43689502254E+02  0.51395235035E+02  0.10566000000E+00 0. -1.
         22    1    1    0    0    0  0.17714187039E+02 -0.13274418501E+01  0.19261865377E+02  0.26202556786E+02  0.00000000000E+00 0. -1.
</event>
<event>
 5    1  0.6835419E-004  0.9118800E+02  0.7818608E-02  0.1130116E+00
         25   -1    0    0    0    0  0.00000000000E+00  0.00000000000E+00  0.99999998245E-14  0.12500000000E+03  0.12500000000E+03 0.  0.
        -13    1    3    3    0    0  0.32687253915E+02  0.20825208390E+02 -0.18165532373E+02  0.42803546622E+02  0.10566000000E+00 0. -1.
         23    2    1    0    0    0  0.12486083447E+01 -0.22696878325E+02 -0.17187987915E+02  0.96502031001E+02  0.92198198194E+02 0.  0.
         13    1    3    3    0    0 -0.31438645570E+02 -0.43522086715E+02  0.97754445807E+00  0.53698484379E+02  0.10566000000E+00 0.  1.
         22    1    1    0    0    0 -0.12486083447E+01  0.22696878325E+02  0.17187987915E+02  0.28497968999E+02  0.00000000000E+00 0.  1.
</event>
<event>
 5    1  0.6835419E-004  0.9118800E+02  0.7818608E-02  0.1130116E+00
         25   -1    0    0    0    0  0.00000000000E+00  0.00000000000E+00  0.99999998245E-14  0.12500000000E+03  0.12500000000E+03 0.  0.
        -13    1    3    3    0    0 -0.37607012461E+02  0.37682635654E+02  0.28492352338E+02  0.60382892626E+02  0.10566000000E+00 0. -1.
         23    2    1    0    0    0 -0.96885285302E+01  0.25891877887E+02  0.14858886520E+02  0.93614598390E+02  0.88196652983E+02 0.  0.
         13    1    3    3    0    0  0.27918483931E+02 -0.11790757766E+02 -0.13633465818E+02  0.33231705764E+02  0.10566000000E+00 0.  1.
         22    1    1    0    0    0  0.96885285302E+01 -0.25891877887E+02 -0.14858886520E+02  0.31385401610E+02  0.00000000000E+00 0. -1.
</event>
<event>
 5    1  0.6835419E-004  0.9118800E+02  0.7818608E-02  0.1130116E+00
         25   -1    0    0    0    0  0.00000000000E+00  0.00000000000E+00  0.99999998245E-14  0.12500000000E+03  0.12500000000E+03 0.  0.
        -13    1    3    3    0    0 -0.29550629461E+02 -0.50897064496E+01  0.49551220187E+02  0.57917867704E+02  0.10566000000E+00 0. -1.
         23    2    1    0    0    0 -0.24825484514E+02 -0.87167783257E+01  0.11752537546E+02  0.96183181222E+02  0.91764891464E+02 0.  0.
         13    1    3    3    0    0  0.47251449474E+01 -0.36270718761E+01 -0.37798682641E+02  0.38265313518E+02  0.10566000000E+00 0.  1.
         22    1    1    0    0    0  0.24825484514E+02  0.87167783257E+01 -0.11752537546E+02  0.28816818778E+02  0.00000000000E+00 0. -1.
</event>
<event>
 5    1  0.6835419E-004  0.9118800E+02  0.7818608E-02  0.1130116E+00
         25   -1    0    0    0    0  0.00000000000E+00  0.00000000000E+00  0.99999998245E-14  0.12500000000E+03  0.12500000000E+03 0.  0.
        -13    1    3    3    0    0 -0.12947911203E+02  0.46728913054E+02 -0.29442240238E+02  0.56728268033E+02  0.10566000000E+00 0.  1.
         23    2    1    0    0    0  0.82206891084E+01  0.35437571422E+02 -0.10983148780E+02  0.86999595333E+02  0.78261732880E+02 0.  0.
         13    1    3    3    0    0  0.21168600311E+02 -0.11291341632E+02  0.18459091458E+02  0.30271327300E+02  0.10566000000E+00 0. -1.
         22    1    1    0    0    0 -0.82206891084E+01 -0.35437571422E+02  0.10983148780E+02  0.38000404667E+02  0.00000000000E+00 0.  1.
</event>
<event>
 5    1  0.6835419E-004  0.9118800E+02  0.7818608E-02  0.1130116E+00
         25   -1    0    0    0    0  0.00000000000E+00  0.00000000000E+00  0.99999998245E-14  0.12500000000E+03  0.12500000000E+03 0.  0.
        -13    1    3    3    0    0  0.57333690363E+02 -0.16740025336E+02 -0.11036632335E+02  0.60738776051E+02  0.10566000000E+00 0.  1.
         23    2    1    0    0    0  0.25268224666E+02 -0.11265895587E+02  0.48037652297E+01  0.96920118562E+02  0.92763298996E+02 0.  0.
         13    1    3    3    0    0 -0.32065465697E+02  0.54741297489E+01  0.15840397564E+02  0.36181342511E+02  0.10566000000E+00 0. -1.
         22    1    1    0    0    0 -0.25268224666E+02  0.11265895587E+02 -0.48037652297E+01  0.28079881438E+02  0.00000000000E+00 0.  1.
</event>
<event>
 5    1  0.6835419E-004  0.9118800E+02  0.7818608E-02  0.1130116E+00
         25   -1    0    0    0    0  0.00000000000E+00  0.00000000000E+00  0.99999998245E-14  0.12500000000E+03  0.12500000000E+03 0.  0.
        -13    1    3    3    0    0  0.15624153123E+02 -0.20807255339E+02 -0.47129481226E+02  0.53835445575E+02  0.10566000000E+00 0.  1.
         23    2    1    0    0    0 -0.12999656547E+02 -0.20457310238E+02 -0.17007711594E+02  0.95389953290E+02  0.90677937352E+02 0.  0.
         13    1    3    3    0    0 -0.28623809670E+02  0.34994510042E+00  0.30121769633E+02  0.41554507715E+02  0.10566000000E+00 0. -1.
         22    1    1    0    0    0  0.12999656547E+02  0.20457310238E+02  0.17007711594E+02  0.29610046710E+02  0.00000000000E+00 0.  1.
</event>
<event>
 5    1  0.6835419E-004  0.9118800E+02  0.7818608E-02  0.1130116E+00
         25   -1    0    0    0    0  0.00000000000E+00  0.00000000000E+00  0.99999998245E-14  0.12500000000E+03  0.12500000000E+03 0.  0.
        -13    1    3    3    0    0 -0.23688767386E+02 -0.46009073969E+02  0.15939625146E+02  0.54148641734E+02  0.10566000000E+00 0.  1.
         23    2    1    0    0    0 -0.25971242237E+02 -0.41677417589E+01  0.11518830071E+02  0.96284865647E+02  0.91903299243E+02 0.  0.
         13    1    3    3    0    0 -0.22824748504E+01  0.41841332210E+02 -0.44207950746E+01  0.42136223913E+02  0.10566000000E+00 0. -1.
         22    1    1    0    0    0  0.25971242237E+02  0.41677417589E+01 -0.11518830071E+02  0.28715134353E+02  0.00000000000E+00 0.  1.
</event>
<event>
 5    1  0.6835419E-004  0.9118800E+02  0.7818608E-02  0.1130116E+00
         25   -1    0    0    0    0  0.00000000000E+00  0.00000000000E+00  0.99999998245E-14  0.12500000000E+03  0.12500000000E+03 0.  0.
        -13    1    3    3    0    0 -0.25821741085E+02 -0.33114235173E+02 -0.38546901894E+02  0.57001663953E+02  0.10566000000E+00 0. -1.
         23    2    1    0    0    0 -0.25803640537E+02 -0.40826117035E+01 -0.12359749458E+02  0.96099152436E+02  0.91650357931E+02 0.  0.
         13    1    3    3    0    0  0.18100547689E-01  0.29031623469E+02  0.26187152437E+02  0.39097488483E+02  0.10566000000E+00 0.  1.
         22    1    1    0    0    0  0.25803640537E+02  0.40826117035E+01  0.12359749458E+02  0.28900847564E+02  0.00000000000E+00 0. -1.
</event>
<event>
 5    1  0.6835419E-004  0.9118800E+02  0.7818608E-02  0.1130116E+00
         25   -1    0    0    0    0  0.00000000000E+00  0.00000000000E+00  0.99999998245E-14  0.12500000000E+03  0.12500000000E+03 0.  0.
        -13    1    3    3    0    0  0.17220847116E+02 -0.11875487592E+02 -0.52871055627E+02  0.56858987575E+02  0.10566000000E+00 0. -1.
         23    2    1    0    0    0 -0.46753463218E+01  0.78715683872E+01 -0.28349584889E+02  0.95208735920E+02  0.90427783231E+02 0.  0.
         13    1    3    3    0    0 -0.21896193437E+02  0.19747055979E+02  0.24521470738E+02  0.38349748345E+02  0.10566000000E+00 0.  1.
         22    1    1    0    0    0  0.46753463218E+01 -0.78715683872E+01  0.28349584889E+02  0.29791264080E+02  0.00000000000E+00 0. -1.
</event>
<event>
 5    1  0.6835419E-004  0.9118800E+02  0.7818608E-02  0.1130116E+00
         25   -1    0    0    0    0  0.00000000000E+00  0.00000000000E+00  0.99999998245E-14  0.12500000000E+03  0.12500000000E+03 0.  0.
        -13    1    3    3    0    0 -0.38949203557E+02  0.24976049789E+02  0.10963277723E+02  0.47550479948E+02  0.10566000000E+00 0. -1.
         23    2    1    0    0    0 -0.19733742434E+02 -0.75747106766E+01 -0.19610249206E+02  0.96166708370E+02  0.91742449785E+02 0.  0.
         13    1    3    3    0    0  0.19215461124E+02 -0.32550760466E+02 -0.30573526929E+02  0.48616228422E+02  0.10566000000E+00 0.  1.
         22    1    1    0    0    0  0.19733742434E+02  0.75747106766E+01  0.19610249206E+02  0.28833291630E+02  0.00000000000E+00 0. -1.
</event>
<event>
 5    1  0.6835419E-004  0.9118800E+02  0.7818608E-02  0.1130116E+00
         25   -1    0    0    0    0  0.00000000000E+00  0.00000000000E+00  0.99999998245E-14  0.12500000000E+03  0.12500000000E+03 0.  0.
        -13    1    3    3    0    0 -0.49141489450E+02 -0.15196786616E+02 -0.28618002189E+02  0.58862802534E+02  0.10566000000E+00 0. -1.
         23    2    1    0    0    0 -0.17993609635E+02  0.44869383470E+01 -0.21876949897E+02  0.96320677480E+02  0.91951994921E+02 0.  0.
         13    1    3    3    0    0  0.31147879815E+02  0.19683724963E+02  0.67410522920E+01  0.37457874946E+02  0.10566000000E+00 0.  1.
         22    1    1    0    0    0  0.17993609635E+02 -0.44869383470E+01  0.21876949897E+02  0.28679322520E+02  0.00000000000E+00 0. -1.
</event>
<event>
 5    1  0.6835419E-004  0.9118800E+02  0.7818608E-02  0.1130116E+00
         25   -1    0    0    0    0  0.00000000000E+00  0.00000000000E+00  0.99999998245E-14  0.12500000000E+03  0.12500000000E+03 0.  0.
        -13    1    3    3    0    0  0.11856360468E+02  0.42814155326E+02 -0.74863676534E+01  0.45051992680E+02  0.10566000000E+00 0.  1.
         23    2    1    0    0    0 -0.10208302756E+02  0.49755341634E+01 -0.29002590329E+02  0.93853320704E+02  0.88534344613E+02 0.  0.
         13    1    3    3    0    0 -0.22064663224E+02 -0.37838621162E+02 -0.21516222676E+02  0.48801328024E+02  0.10566000000E+00 0. -1.
         22    1    1    0    0    0  0.10208302756E+02 -0.49755341634E+01  0.29002590329E+02  0.31146679296E+02  0.00000000000E+00 0.  1.
</event>
<event>
 5    1  0.6835419E-004  0.9118800E+02  0.7818608E-02  0.1130116E+00
         25   -1    0    0    0    0  0.00000000000E+00  0.00000000000E+00  0.99999998245E-14  0.12500000000E+03  0.12500000000E+03 0.  0.
        -13    1    3    3    0    0 -0.45856250180E+02  0.17515731354E+02 -0.16549836523E+02  0.51802555713E+02  0.10566000000E+00 0. -1.
         23    2    1    0    0    0 -0.66476781255E+01  0.27574444371E+02  0.24728265744E+01  0.96527970250E+02  0.92233359271E+02 0.  0.
         13    1    3    3    0    0  0.39208572054E+02  0.10058713017E+02  0.19022663097E+02  0.44725414536E+02  0.10566000000E+00 0.  1.
         22    1    1    0    0    0  0.66476781255E+01 -0.27574444371E+02 -0.24728265744E+01  0.28472029750E+02  0.00000000000E+00 0. -1.
</event>
<event>
 5    1  0.6835419E-004  0.9118800E+02  0.7818608E-02  0.1130116E+00
         25   -1    0    0    0    0  0.00000000000E+00  0.00000000000E+00  0.99999998245E-14  0.12500000000E+03  0.12500000000E+03 0.  0.
        -13    1    3    3    0    0  0.37461552242E+02  0.36980896592E+01  0.11952629430E+02  0.39495826081E+02  0.10566000000E+00 0.  1.
         23    2    1    0    0    0 -0.13911548749E+02  0.24521371510E+02  0.10398985212E+02  0.94950578329E+02  0.90070220285E+02 0.  0.
         13    1    3    3    0    0 -0.51373100991E+02  0.20823281851E+02 -0.15536442181E+01  0.55454752248E+02  0.10566000000E+00 0. -1.
         22    1    1    0    0    0  0.13911548749E+02 -0.24521371510E+02 -0.10398985212E+02  0.30049421671E+02  0.00000000000E+00 0. -1.
</event>
<event>
 5    1  0.6835419E-004  0.9118800E+02  0.7818608E-02  0.1130116E+00
         25   -1    0    0    0    0  0.00000000000E+00  0.00000000000E+00  0.99999998245E-14  0.12500000000E+03  0.12500000000E+03 0.  0.
        -13    1    3    3    0    0  0.50149238394E+02  0.30275505417E+02 -0.16767504210E+02  0.60932033457E+02  0.10566000000E+00 0. -1.
         23    2    1    0    0    0  0.26324670958E+02  0.95244781264E+01  0.62639656957E+00  0.96998279387E+02  0.92868562209E+02 0.  0.
         13    1    3    3    0    0 -0.23824567436E+02 -0.20751027291E+02  0.17393900779E+02  0.36066245930E+02  0.10566000000E+00 0.  1.
         22    1    1    0    0    0 -0.26324670958E+02 -0.95244781264E+01 -0.62639656957E+00  0.28001720613E+02  0.00000000000E+00 0. -1.
</event>
<event>
 5    1  0.6835419E-004  0.9118800E+02  0.7818608E-02  0.1130116E+00
         25   -1    0    0    0    0  0.00000000000E+00  0.00000000000E+00  0.99999998245E-14  0.12500000000E+03  0.12500000000E+03 0.  0.
        -13    1    3    3    0    0  0.88240686088E+01 -0.34375379480E+02 -0.12308729303E+02  0.37563903981E+02  0.10566000000E+00 0. -1.
         23    2    1    0    0    0 -0.10169054796E+02  0.10523135861E+02  0.22986898789E+02  0.97750347163E+02  0.93875379045E+02 0.  0.
         13    1    3    3    0    0 -0.18993123405E+02  0.44898515341E+02  0.35295628092E+02  0.60186443182E+02  0.10566000000E+00 0.  1.
         22    1    1    0    0    0  0.10169054796E+02 -0.10523135861E+02 -0.22986898789E+02  0.27249652837E+02  0.00000000000E+00 0.  1.
</event>
<event>
 5    1  0.6835419E-004  0.9118800E+02  0.7818608E-02  0.1130116E+00
         25   -1    0    0    0    0  0.00000000000E+00  0.00000000000E+00  0.99999998245E-14  0.12500000000E+03  0.12500000000E+03 0.  0.
        -13    1    3    3    0    0  0.20877727179E+02 -0.34022799872E+02 -0.38842325426E+02  0.55697107751E+02  0.10566000000E+00 0.  1.
         23    2    1    0    0    0 -0.89641696957E+01 -0.10229104434E+02 -0.25447131884E+02  0.96146101875E+02  0.91714368933E+02 0.  0.
         13    1    3    3    0    0 -0.29841896874E+02  0.23793695437E+02  0.13395193542E+02  0.40448994124E+02  0.10566000000E+00 0. -1.
         22    1    1    0    0    0  0.89641696957E+01  0.10229104434E+02  0.25447131884E+02  0.28853898125E+02  0.00000000000E+00 0.  1.
</event>
<event>
 5    1  0.6835419E-004  0.9118800E+02  0.7818608E-02  0.1130116E+00
         25   -1    0    0    0    0  0.00000000000E+00  0.00000000000E+00  0.99999998245E-14  0.12500000000E+03  0.12500000000E+03 0.  0.
        -13    1    3    3    0    0  0.29187659109E+02  0.12685639314E+02 -0.10707716808E+02  0.33578434335E+02  0.10566000000E+00 0.  1.
         23    2    1    0    0    0 -0.18291753354E+02  0.22000741323E+01  0.25028452588E+02  0.93921840372E+02  0.88631033464E+02 0.  0.
         13    1    3    3    0    0 -0.47479412463E+02 -0.10485565182E+02  0.35736169396E+02  0.60343406037E+02  0.10566000000E+00 0. -1.
         22    1    1    0    0    0  0.18291753354E+02 -0.22000741323E+01 -0.25028452588E+02  0.31078159628E+02  0.00000000000E+00 0. -1.
</event>
<event>
 5    1  0.6835419E-004  0.9118800E+02  0.7818608E-02  0.1130116E+00
         25   -1    0    0    0    0  0.00000000000E+00  0.00000000000E+00  0.99999998245E-14  0.12500000000E+03  0.12500000000E+03 0.  0.
        -13    1    3    3    0    0  0.34722650713E+02 -0.18611570652E+02  0.29211560382E+01  0.39504396608E+02  0.10566000000E+00 0.  1.
         23    2    1    0    0    0 -0.84637610884E+00  0.27102897218E+02 -0.29524706489E+01  0.97723627934E+02  0.93839794243E+02 0.  0.
         13    1    3    3    0    0 -0.35569026822E+02  0.45714467871E+02 -0.58736266870E+01  0.58219231327E+02  0.10566000000E+00 0. -1.
         22    1    1    0    0    0  0.84637610884E+00 -0.27102897218E+02  0.29524706489E+01  0.27276372066E+02  0.00000000000E+00 0. -1.
</event>
<event>
 5    1  0.6835419E-004  0.9118800E+02  0.7818608E-02  0.1130116E+00
         25   -1    0    0    0    0  0.00000000000E+00  0.00000000000E+00  0.99999998245E-14  0.12500000000E+03  0.12500000000E+03 0.  0.
        -13    1    3    3    0    0  0.45252016209E+01 -0.19005418796E+02 -0.35884516709E+02  0.40858207214E+02  0.10566000000E+00 0. -1.
         23    2    1    0    0    0  0.69521272308E+00 -0.24068288041E+02  0.17887973047E+02  0.95004243805E+02  0.90144666794E+02 0.  0.
         13    1    3    3    0    0 -0.38299888979E+01 -0.50628692448E+01  0.53772489756E+02  0.54146036591E+02  0.10566000000E+00 0.  1.
         22    1    1    0    0    0 -0.69521272308E+00  0.24068288041E+02 -0.17887973047E+02  0.29995756195E+02  0.00000000000E+00 0.  1.
</event>
<event>
 5    1  0.6835419E-004  0.9118800E+02  0.7818608E-02  0.1130116E+00
         25   -1    0    0    0    0  0.00000000000E+00  0.00000000000E+00  0.99999998245E-14  0.12500000000E+03  0.12500000000E+03 0.  0.
        -13    1    3    3    0    0 -0.23216243230E+01 -0.37053089117E+02 -0.18165351410E+02  0.41331737303E+02  0.10566000000E+00 0.  1.
         23    2    1    0    0    0  0.21705086136E+02  0.47739563205E+01 -0.26639779183E+02  0.90307360175E+02  0.83377695121E+02 0.  0.
         13    1    3    3    0    0  0.24026710459E+02  0.41827045438E+02 -0.84744277732E+01  0.48975622871E+02  0.10566000000E+00 0. -1.
         22    1    1    0    0    0 -0.21705086136E+02 -0.47739563205E+01  0.26639779183E+02  0.34692639825E+02  0.00000000000E+00 0. -1.
</event>
<event>
 5    1  0.6835419E-004  0.9118800E+02  0.7818608E-02  0.1130116E+00
         25   -1    0    0    0    0  0.00000000000E+00  0.00000000000E+00  0.99999998245E-14  0.12500000000E+03  0.12500000000E+03 0.  0.
        -13    1    3    3    0    0  0.15148147497E+02  0.35607480099E+02  0.11965223934E+01  0.38714362212E+02  0.10566000000E+00 0. -1.
         23    2    1    0    0    0 -0.22897759442E+01 -0.11192168117E+02 -0.26727303792E+02  0.95933585205E+02  0.91424265385E+02 0.  0.
         13    1    3    3    0    0 -0.17437923442E+02 -0.46799648216E+02 -0.27923826185E+02  0.57219222993E+02  0.10566000000E+00 0.  1.
         22    1    1    0    0    0  0.22897759442E+01  0.11192168117E+02  0.26727303792E+02  0.29066414795E+02  0.00000000000E+00 0.  1.
</event>
<event>
 5    1  0.6835419E-004  0.9118800E+02  0.7818608E-02  0.1130116E+00
         25   -1    0    0    0    0  0.00000000000E+00  0.00000000000E+00  0.99999998245E-14  0.12500000000E+03  0.12500000000E+03 0.  0.
        -13    1    3    3    0    0 -0.14614750495E+02  0.17688994707E+02 -0.36306106387E+02  0.42949225730E+02  0.10566000000E+00 0.  1.
         23    2    1    0    0    0 -0.27983776833E+01 -0.26971244321E+02 -0.10083722108E+02  0.96069732296E+02  0.91610223632E+02 0.  0.
         13    1    3    3    0    0  0.11816372812E+02 -0.44660239028E+02  0.26222384279E+02  0.53120506566E+02  0.10566000000E+00 0. -1.
         22    1    1    0    0    0  0.27983776833E+01  0.26971244321E+02  0.10083722108E+02  0.28930267704E+02  0.00000000000E+00 0.  1.
</event>
<event>
 5    1  0.6835419E-004  0.9118800E+02  0.7818608E-02  0.1130116E+00
         25   -1    0    0    0    0  0.00000000000E+00  0.00000000000E+00  0.99999998245E-14  0.12500000000E+03  0.12500000000E+03 0.  0.
        -13    1    3    3    0    0 -0.32146070213E+01  0.28806909130E+02 -0.18848359628E+02  0.34575186719E+02  0.10566000000E+00 0. -1.
         23    2    1    0    0    0  0.11409378818E+02 -0.36536628128E+01  0.28656103478E+02  0.93940453263E+02  0.88657280105E+02 0.  0.
         13    1    3    3    0    0  0.14623985839E+02 -0.32460571943E+02  0.47504463107E+02  0.59365266544E+02  0.10566000000E+00 0.  1.
         22    1    1    0    0    0 -0.11409378818E+02  0.36536628128E+01 -0.28656103478E+02  0.31059546737E+02  0.00000000000E+00 0.  1.
</event>
<event>
 5    1  0.6835419E-004  0.9118800E+02  0.7818608E-02  0.1130116E+00
         25   -1    0    0    0    0  0.00000000000E+00  0.00000000000E+00  0.99999998245E-14  0.12500000000E+03  0.12500000000E+03 0.  0.
        -13    1    3    3    0    0 -0.43176591276E+02  0.28282026755E+01  0.16898070915E+02  0.46451832357E+02  0.10566000000E+00 0.  1.
         23    2    1    0    0    0 -0.17633110241E+02 -0.11897514580E+02 -0.21427836024E+02  0.94806795688E+02  0.89870456336E+02 0.  0.
         13    1    3    3    0    0  0.25543481036E+02 -0.14725717256E+02 -0.38325906938E+02  0.48354963332E+02  0.10566000000E+00 0. -1.
         22    1    1    0    0    0  0.17633110241E+02  0.11897514580E+02  0.21427836024E+02  0.30193204312E+02  0.00000000000E+00 0. -1.
</event>
<event>
 5    1  0.6835419E-004  0.9118800E+02  0.7818608E-02  0.1130116E+00
         25   -1    0    0    0    0  0.00000000000E+00  0.00000000000E+00  0.99999998245E-14  0.12500000000E+03  0.12500000000E+03 0.  0.
        -13    1    3    3    0    0 -0.18046511922E+02 -0.61493036911E+00  0.24735887873E+02  0.30625643582E+02  0.10566000000E+00 0. -1.
         23    2    1    0    0    0 -0.27962004957E+02 -0.43756045830E+01 -0.28456730347E+02  0.84865163029E+02  0.74774934016E+02 0.  0.
         13    1    3    3    0    0 -0.99154930342E+01 -0.37606742139E+01 -0.53192618220E+02  0.54239519447E+02  0.10566000000E+00 0.  1.
         22    1    1    0    0    0  0.27962004957E+02  0.43756045830E+01  0.28456730347E+02  0.40134836971E+02  0.00000000000E+00 0.  1.
</event>
<event>
 5    1  0.6835419E-004  0.9118800E+02  0.7818608E-02  0.1130116E+00
         25   -1    0    0    0    0  0.00000000000E+00  0.00000000000E+00  0.99999998245E-14  0.12500000000E+03  0.12500000000E+03 0.  0.
        -13    1    3    3    0    0  0.20084392507E+02 -0.34443112086E+02  0.23523302583E+02  0.46293279437E+02  0.10566000000E+00 0. -1.
         23    2    1    0    0    0  0.18602454357E+02 -0.13312209763E+02 -0.19946605214E+02  0.94649822134E+02  0.89651857390E+02 0.  0.
         13    1    3    3    0    0 -0.14819381499E+01  0.21130902323E+02 -0.43469907798E+02  0.48356542697E+02  0.10566000000E+00 0.  1.
         22    1    1    0    0    0 -0.18602454357E+02  0.13312209763E+02  0.19946605214E+02  0.30350177866E+02  0.00000000000E+00 0.  1.
</event>
<event>
 5    1  0.6835419E-004  0.9118800E+02  0.7818608E-02  0.1130116E+00
         25   -1    0    0    0    0  0.00000000000E+00  0.00000000000E+00  0.99999998245E-14  0.12500000000E+03  0.12500000000E+03 0.  0.
        -13    1    3    3    0    0 -0.53650801608E+02 -0.25921304248E+01  0.14544969031E+02  0.55647955412E+02  0.10566000000E+00 0.  1.
         23    2    1    0    0    0 -0.17335946144E+02 -0.18544542638E+02  0.15375592256E+02  0.95320985064E+02  0.90582814407E+02 0.  0.
         13    1    3    3    0    0  0.36314855464E+02 -0.15952412213E+02  0.83062322470E+00  0.39673029652E+02  0.10566000000E+00 0. -1.
         22    1    1    0    0    0  0.17335946144E+02  0.18544542638E+02 -0.15375592256E+02  0.29679014936E+02  0.00000000000E+00 0.  1.
</event>
<event>
 5    1  0.6835419E-004  0.9118800E+02  0.7818608E-02  0.1130116E+00
         25   -1    0    0    0    0  0.00000000000E+00  0.00000000000E+00  0.99999998245E-14  0.12500000000E+03  0.12500000000E+03 0.  0.
        -13    1    3    3    0    0  0.54772998775E+02  0.54541805009E+01  0.14835555402E+02  0.57008195445E+02  0.10566000000E+00 0.  1.
         23    2    1    0    0    0  0.27196691626E+02  0.19745920067E+02  0.89200740922E-01  0.91390933493E+02  0.84986665855E+02 0.  0.
         13    1    3    3    0    0 -0.27576307149E+02  0.14291739566E+02 -0.14746354661E+02  0.34382738048E+02  0.10566000000E+00 0. -1.
         22    1    1    0    0    0 -0.27196691626E+02 -0.19745920067E+02 -0.89200740922E-01  0.33609066507E+02  0.00000000000E+00 0.  1.
</event>
<event>
 5    1  0.6835419E-004  0.9118800E+02  0.7818608E-02  0.1130116E+00
         25   -1    0    0    0    0  0.00000000000E+00  0.00000000000E+00  0.99999998245E-14  0.12500000000E+03  0.12500000000E+03 0.  0.
        -13    1    3    3    0    0 -0.43777196432E+02  0.16220715121E+02 -0.16924303886E+02  0.49658813443E+02  0.10566000000E+00 0. -1.
         23    2    1    0    0    0 -0.92846192435E+01 -0.15241751504E+02 -0.22057376355E+02  0.96626720403E+02  0.92367094254E+02 0.  0.
         13    1    3    3    0    0  0.34492577189E+02 -0.31462466625E+02 -0.51330724692E+01  0.46967906960E+02  0.10566000000E+00 0.  1.
         22    1    1    0    0    0  0.92846192435E+01  0.15241751504E+02  0.22057376355E+02  0.28373279597E+02  0.00000000000E+00 0. -1.
</event>
<event>
 5    1  0.6835419E-004  0.9118800E+02  0.7818608E-02  0.1130116E+00
         25   -1    0    0    0    0  0.00000000000E+00  0.00000000000E+00  0.99999998245E-14  0.12500000000E+03  0.12500000000E+03 0.  0.
        -13    1    3    3    0    0 -0.10425133762E+02 -0.28765088484E+02 -0.18751115272E+02  0.35884944161E+02  0.10566000000E+00 0.  1.
         23    2    1    0    0    0 -0.30344998615E+02  0.17812709006E+02 -0.15207760105E+02  0.86667409291E+02  0.77729353031E+02 0.  0.
         13    1    3    3    0    0 -0.19919864853E+02  0.46577797490E+02  0.35433551670E+01  0.50782465130E+02  0.10566000000E+00 0. -1.
         22    1    1    0    0    0  0.30344998615E+02 -0.17812709006E+02  0.15207760105E+02  0.38332590709E+02  0.00000000000E+00 0. -1.
</event>
<event>
 5    1  0.6835419E-004  0.9118800E+02  0.7818608E-02  0.1130116E+00
         25   -1    0    0    0    0  0.00000000000E+00  0.00000000000E+00  0.99999998245E-14  0.12500000000E+03  0.12500000000E+03 0.  0.
        -13    1    3    3    0    0 -0.29037418320E+02 -0.12588413273E+02 -0.26786845432E+02  0.41463068671E+02  0.10566000000E+00 0.  1.
         23    2    1    0    0    0  0.20657777389E+02  0.84698450537E+01 -0.18368087538E+02  0.96088606369E+02  0.91635973243E+02 0.  0.
         13    1    3    3    0    0  0.49695195708E+02  0.21058258326E+02  0.84187578942E+01  0.54625537698E+02  0.10566000000E+00 0. -1.
         22    1    1    0    0    0 -0.20657777389E+02 -0.84698450537E+01  0.18368087538E+02  0.28911393631E+02  0.00000000000E+00 0. -1.
</event>
<event>
 5    1  0.6835419E-004  0.9118800E+02  0.7818608E-02  0.1130116E+00
         25   -1    0    0    0    0  0.00000000000E+00  0.00000000000E+00  0.99999998245E-14  0.12500000000E+03  0.12500000000E+03 0.  0.
        -13    1    3    3    0    0  0.46241881012E+02 -0.83782242753E+01 -0.36058363505E+01  0.47132997160E+02  0.10566000000E+00 0. -1.
         23    2    1    0    0    0  0.12367500085E+02  0.25053755747E+02  0.76333799515E+01  0.96035983966E+02  0.91564163249E+02 0.  0.
         13    1    3    3    0    0 -0.33874380927E+02  0.33431980022E+02  0.11239216302E+02  0.48902986805E+02  0.10566000000E+00 0.  1.
         22    1    1    0    0    0 -0.12367500085E+02 -0.25053755747E+02 -0.76333799515E+01  0.28964016034E+02  0.00000000000E+00 0.  1.
</event>
<event>
 5    1  0.6835419E-004  0.9118800E+02  0.7818608E-02  0.1130116E+00
         25   -1    0    0    0    0  0.00000000000E+00  0.00000000000E+00  0.99999998245E-14  0.12500000000E+03  0.12500000000E+03 0.  0.
        -13    1    3    3    0    0 -0.18602338594E+02 -0.77647711092E+01  0.32286059077E+02  0.38062310049E+02  0.10566000000E+00 0.  1.
         23    2    1    0    0    0  0.22977370341E+00 -0.18835571217E+02 -0.21678519887E+02  0.96280846748E+02  0.91897832875E+02 0.  0.
         13    1    3    3    0    0  0.18832112297E+02 -0.11070800107E+02 -0.53964578964E+02  0.58218536699E+02  0.10566000000E+00 0. -1.
         22    1    1    0    0    0 -0.22977370341E+00  0.18835571217E+02  0.21678519887E+02  0.28719153252E+02  0.00000000000E+00 0. -1.
</event>
<event>
 5    1  0.6835419E-004  0.9118800E+02  0.7818608E-02  0.1130116E+00
         25   -1    0    0    0    0  0.00000000000E+00  0.00000000000E+00  0.99999998245E-14  0.12500000000E+03  0.12500000000E+03 0.  0.
        -13    1    3    3    0    0  0.29070032767E+02 -0.49708593266E+02 -0.89230960042E+01  0.58272153349E+02  0.10566000000E+00 0. -1.
         23    2    1    0    0    0  0.17772976037E+02 -0.10412961051E+02 -0.14876838639E+02  0.99590774059E+02  0.96294826002E+02 0.  0.
         13    1    3    3    0    0 -0.11297056730E+02  0.39295632215E+02 -0.59537426345E+01  0.41318620710E+02  0.10566000000E+00 0.  1.
         22    1    1    0    0    0 -0.17772976037E+02  0.10412961051E+02  0.14876838639E+02  0.25409225941E+02  0.00000000000E+00 0. -1.
</event>
<event>
 5    1  0.6835419E-004  0.9118800E+02  0.7818608E-02  0.1130116E+00
         25   -1    0    0    0    0  0.00000000000E+00  0.00000000000E+00  0.99999998245E-14  0.12500000000E+03  0.12500000000E+03 0.  0.
        -13    1    3    3    0    0  0.15483427032E+02  0.82541055825E+01 -0.28283585857E+02  0.33284217950E+02  0.10566000000E+00 0. -1.
         23    2    1    0    0    0  0.32958080267E+01  0.37732825239E+02  0.12548182478E+02  0.85099055969E+02  0.75164911976E+02 0.  0.
         13    1    3    3    0    0 -0.12187619005E+02  0.29478719656E+02  0.40831768335E+02  0.51814838019E+02  0.10566000000E+00 0.  1.
         22    1    1    0    0    0 -0.32958080267E+01 -0.37732825239E+02 -0.12548182478E+02  0.39900944031E+02  0.00000000000E+00 0.  1.
</event>
<event>
 5    1  0.6835419E-004  0.9118800E+02  0.7818608E-02  0.1130116E+00
         25   -1    0    0    0    0  0.00000000000E+00  0.00000000000E+00  0.99999998245E-14  0.12500000000E+03  0.12500000000E+03 0.  0.
        -13    1    3    3    0    0  0.11952053001E+02 -0.34343023702E+02  0.40320274268E+01  0.36586380761E+02  0.10566000000E+00 0.  1.
         23    2    1    0    0    0 -0.19248313755E+02  0.84409475127E+01 -0.21115941693E+02  0.95206877121E+02  0.90425213742E+02 0.  0.
         13    1    3    3    0    0 -0.31200366756E+02  0.42783971215E+02 -0.25147969120E+02  0.58620496360E+02  0.10566000000E+00 0. -1.
         22    1    1    0    0    0  0.19248313755E+02 -0.84409475127E+01  0.21115941693E+02  0.29793122879E+02  0.00000000000E+00 0. -1.
</event>
<event>
 5    1  0.6835419E-004  0.9118800E+02  0.7818608E-02  0.1130116E+00
         25   -1    0    0    0    0  0.00000000000E+00  0.00000000000E+00  0.99999998245E-14  0.12500000000E+03  0.12500000000E+03 0.  0.
        -13    1    3    3    0    0 -0.45699157635E+02 -0.29465069254E+02 -0.13465523798E+02  0.56017272425E+02  0.10566000000E+00 0.  1.
         23    2    1    0    0    0 -0.22032996292E+02 -0.11467824662E+02  0.13994542237E+02  0.96490157129E+02  0.92182098491E+02 0.  0.
         13    1    3    3    0    0  0.23666161342E+02  0.17997244592E+02  0.27460066036E+02  0.40472884704E+02  0.10566000000E+00 0. -1.
         22    1    1    0    0    0  0.22032996292E+02  0.11467824662E+02 -0.13994542237E+02  0.28509842871E+02  0.00000000000E+00 0.  1.
</event>
<event>
 5    1  0.6835419E-004  0.9118800E+02  0.7818608E-02  0.1130116E+00
         25   -1    0    0    0    0  0.00000000000E+00  0.00000000000E+00  0.99999998245E-14  0.12500000000E+03  0.12500000000E+03 0.  0.
        -13    1    3    3    0    0 -0.17433570343E+02 -0.18857733649E+02  0.41009771605E+02  0.48387560637E+02  0.10566000000E+00 0.  1.
         23    2    1    0    0    0  0.21312095379E+02 -0.14233556092E+02  0.14608271867E+02  0.95500828225E+02  0.90830650423E+02 0.  0.
         13    1    3    3    0    0  0.38745665722E+02  0.46241775568E+01 -0.26401499738E+02  0.47113267588E+02  0.10566000000E+00 0. -1.
         22    1    1    0    0    0 -0.21312095379E+02  0.14233556092E+02 -0.14608271867E+02  0.29499171775E+02  0.00000000000E+00 0.  1.
</event>
<event>
 5    1  0.6835419E-004  0.9118800E+02  0.7818608E-02  0.1130116E+00
         25   -1    0    0    0    0  0.00000000000E+00  0.00000000000E+00  0.99999998245E-14  0.12500000000E+03  0.12500000000E+03 0.  0.
        -13    1    3    3    0    0 -0.26788841420E+02  0.44682227912E+01 -0.25499086521E+02  0.37253477918E+02  0.10566000000E+00 0. -1.
         23    2    1    0    0    0  0.12981092458E+02  0.17111452950E+02  0.17589907271E+02  0.97238238146E+02  0.93190984201E+02 0.  0.
         13    1    3    3    0    0  0.39769933878E+02  0.12643230158E+02  0.43088993792E+02  0.59984760228E+02  0.10566000000E+00 0.  1.
         22    1    1    0    0    0 -0.12981092458E+02 -0.17111452950E+02 -0.17589907271E+02  0.27761761854E+02  0.00000000000E+00 0.  1.
</event>
<event>
 5    1  0.6835419E-004  0.9118800E+02  0.7818608E-02  0.1130116E+00
         25   -1    0    0    0    0  0.00000000000E+00  0.00000000000E+00  0.99999998245E-14  0.12500000000E+03  0.12500000000E+03 0.  0.
        -13    1    3    3    0    0 -0.44531193630E+02 -0.31063153463E+02 -0.40584841915E+01  0.54446571675E+02  0.10566000000E+00 0.  1.
         23    2    1    0    0    0 -0.26132226293E+02  0.65158264308E+01 -0.90569758815E+01  0.96585601234E+02  0.92311431083E+02 0.  0.
         13    1    3    3    0    0  0.18398967337E+02  0.37578979894E+02 -0.49984916900E+01  0.42139029559E+02  0.10566000000E+00 0. -1.
         22    1    1    0    0    0  0.26132226293E+02 -0.65158264308E+01  0.90569758815E+01  0.28414398766E+02  0.00000000000E+00 0.  1.
</event>
<event>
 5    1  0.6835419E-004  0.9118800E+02  0.7818608E-02  0.1130116E+00
         25   -1    0    0    0    0  0.00000000000E+00  0.00000000000E+00  0.99999998245E-14  0.12500000000E+03  0.12500000000E+03 0.  0.
        -13    1    3    3    0    0 -0.32894320639E+02 -0.11184165662E+02  0.23901194201E+02  0.42171081799E+02  0.10566000000E+00 0.  1.
         23    2    1    0    0    0  0.19583854005E+02 -0.30906377812E+01  0.22113733175E+02  0.95299889318E+02  0.90553698597E+02 0.  0.
         13    1    3    3    0    0  0.52478174643E+02  0.80935278810E+01 -0.17874610267E+01  0.53128807519E+02  0.10566000000E+00 0. -1.
         22    1    1    0    0    0 -0.19583854005E+02  0.30906377812E+01 -0.22113733175E+02  0.29700110682E+02  0.00000000000E+00 0. -1.
</event>
<event>
 5    1  0.6835419E-004  0.9118800E+02  0.7818608E-02  0.1130116E+00
         25   -1    0    0    0    0  0.00000000000E+00  0.00000000000E+00  0.99999998245E-14  0.12500000000E+03  0.12500000000E+03 0.  0.
        -13    1    3    3    0    0 -0.19647753525E+02  0.31635152356E+02  0.42345786846E+02  0.56391434730E+02  0.10566000000E+00 0. -1.
         23    2    1    0    0    0 -0.25176796113E+02  0.12078153871E+02  0.86055977061E+01  0.95779986733E+02  0.91214015827E+02 0.  0.
         13    1    3    3    0    0 -0.55290425877E+01 -0.19556998485E+02 -0.33740189140E+02  0.39388552003E+02  0.10566000000E+00 0.  1.
         22    1    1    0    0    0  0.25176796113E+02 -0.12078153871E+02 -0.86055977061E+01  0.29220013267E+02  0.00000000000E+00 0. -1.
</event>
<event>
 5    1  0.6835419E-004  0.9118800E+02  0.7818608E-02  0.1130116E+00
         25   -1    0    0    0    0  0.00000000000E+00  0.00000000000E+00  0.99999998245E-14  0.12500000000E+03  0.12500000000E+03 0.  0.
        -13    1    3    3    0    0  0.45627287900E+02  0.16723590833E+02  0.15937031784E+02  0.51142233404E+02  0.10566000000E+00 0. -1.
         23    2    1    0    0    0  0.10425339592E+02 -0.12859026345E+02  0.21941289499E+02  0.97514322838E+02  0.93560572410E+02 0.  0.
         13    1    3    3    0    0 -0.35201948308E+02 -0.29582617179E+02  0.60042577144E+01  0.46372089434E+02  0.10566000000E+00 0.  1.
         22    1    1    0    0    0 -0.10425339592E+02  0.12859026345E+02 -0.21941289499E+02  0.27485677162E+02  0.00000000000E+00 0. -1.
</event>
<event>
 5    1  0.6835419E-004  0.9118800E+02  0.7818608E-02  0.1130116E+00
         25   -1    0    0    0    0  0.00000000000E+00  0.00000000000E+00  0.99999998245E-14  0.12500000000E+03  0.12500000000E+03 0.  0.
        -13    1    3    3    0    0 -0.26297187403E+02 -0.68493268024E+01  0.49573572350E+02  0.56533225474E+02  0.10566000000E+00 0. -1.
         23    2    1    0    0    0 -0.27616393220E+02 -0.29906204813E+01  0.11319269424E+02  0.95004419565E+02  0.90144910512E+02 0.  0.
         13    1    3    3    0    0 -0.13192058176E+01  0.38587063211E+01 -0.38254302925E+02  0.38471194091E+02  0.10566000000E+00 0.  1.
         22    1    1    0    0    0  0.27616393220E+02  0.29906204813E+01 -0.11319269424E+02  0.29995580435E+02  0.00000000000E+00 0. -1.
</event>
<event>
 5    1  0.6835419E-004  0.9118800E+02  0.7818608E-02  0.1130116E+00
         25   -1    0    0    0    0  0.00000000000E+00  0.00000000000E+00  0.99999998245E-14  0.12500000000E+03  0.12500000000E+03 0.  0.
        -13    1    3    3    0    0 -0.15044866795E+01  0.35222135319E+02  0.18867233582E+02  0.39985571944E+02  0.10566000000E+00 0.  1.
         23    2    1    0    0    0 -0.24785762910E+02 -0.13870207429E+02  0.39926154581E+01  0.96317990388E+02  0.91948342003E+02 0.  0.
         13    1    3    3    0    0 -0.23281276231E+02 -0.49092342748E+02 -0.14874618124E+02  0.56332418444E+02  0.10566000000E+00 0. -1.
         22    1    1    0    0    0  0.24785762910E+02  0.13870207429E+02 -0.39926154581E+01  0.28682009612E+02  0.00000000000E+00 0. -1.
</event>
<event>
 5    1  0.6835419E-004  0.9118800E+02  0.7818608E-02  0.1130116E+00
         25   -1    0    0    0    0  0.00000000000E+00  0.00000000000E+00  0.99999998245E-14  0.12500000000E+03  0.12500000000E+03 0.  0.
        -13    1    3    3    0    0  0.32386049729E+02  0.38330453764E+02 -0.31369268456E+02  0.59178729881E+02  0.10566000000E+00 0. -1.
         23    2    1    0    0    0  0.20405192143E+01  0.21830949543E+02 -0.19365646374E+02  0.95746242359E+02  0.91167760693E+02 0.  0.
         13    1    3    3    0    0 -0.30345530514E+02 -0.16499504221E+02  0.12003622082E+02  0.36567512478E+02  0.10566000000E+00 0.  1.
         22    1    1    0    0    0 -0.20405192143E+01 -0.21830949543E+02  0.19365646374E+02  0.29253757641E+02  0.00000000000E+00 0. -1.
</event>
<event>
 5    1  0.6835419E-004  0.9118800E+02  0.7818608E-02  0.1130116E+00
         25   -1    0    0    0    0  0.00000000000E+00  0.00000000000E+00  0.99999998245E-14  0.12500000000E+03  0.12500000000E+03 0.  0.
        -13    1    3    3    0    0 -0.42855852370E+02  0.39117905277E+02  0.13716238885E+02  0.59623661149E+02  0.10566000000E+00 0. -1.
         23    2    1    0    0    0 -0.10493800167E+02  0.22579504720E+02  0.14894862437E+02  0.95986024016E+02  0.91495934358E+02 0.  0.
         13    1    3    3    0    0  0.32362052203E+02 -0.16538400556E+02  0.11786235524E+01  0.36362362867E+02  0.10566000000E+00 0.  1.
         22    1    1    0    0    0  0.10493800167E+02 -0.22579504720E+02 -0.14894862437E+02  0.29013975984E+02  0.00000000000E+00 0. -1.
</event>
<event>
 5    1  0.6835419E-004  0.9118800E+02  0.7818608E-02  0.1130116E+00
         25   -1    0    0    0    0  0.00000000000E+00  0.00000000000E+00  0.99999998245E-14  0.12500000000E+03  0.12500000000E+03 0.  0.
        -13    1    3    3    0    0  0.31455796821E+02 -0.52949396917E+02 -0.63658244437E+01  0.61916400674E+02  0.10566000000E+00 0. -1.
         23    2    1    0    0    0  0.20001219802E+02 -0.22640537114E+02 -0.89185030065E+00  0.94776861326E+02  0.89828811255E+02 0.  0.
         13    1    3    3    0    0 -0.11454577020E+02  0.30308859803E+02  0.54739741431E+01  0.32860460651E+02  0.10566000000E+00 0.  1.
         22    1    1    0    0    0 -0.20001219802E+02  0.22640537114E+02  0.89185030065E+00  0.30223138674E+02  0.00000000000E+00 0. -1.
</event>
<event>
 5    1  0.6835419E-004  0.9118800E+02  0.7818608E-02  0.1130116E+00
         25   -1    0    0    0    0  0.00000000000E+00  0.00000000000E+00  0.99999998245E-14  0.12500000000E+03  0.12500000000E+03 0.  0.
        -13    1    3    3    0    0 -0.40185621869E+02  0.30501061862E+02  0.12870512257E+02  0.52065921959E+02  0.10566000000E+00 0.  1.
         23    2    1    0    0    0 -0.19156297321E+02  0.11346335360E+02 -0.19673218913E+02  0.95289082890E+02  0.90538780213E+02 0.  0.
         13    1    3    3    0    0  0.21029324548E+02 -0.19154726502E+02 -0.32543731170E+02  0.43223160930E+02  0.10566000000E+00 0. -1.
         22    1    1    0    0    0  0.19156297321E+02 -0.11346335360E+02  0.19673218913E+02  0.29710917110E+02  0.00000000000E+00 0.  1.
</event>
<event>
 5    1  0.6835419E-004  0.9118800E+02  0.7818608E-02  0.1130116E+00
         25   -1    0    0    0    0  0.00000000000E+00  0.00000000000E+00  0.99999998245E-14  0.12500000000E+03  0.12500000000E+03 0.  0.
        -13    1    3    3    0    0  0.23125875545E+02  0.10998824532E+02  0.51101804192E+02  0.57159302100E+02  0.10566000000E+00 0.  1.
         23    2    1    0    0    0  0.25272405406E+02  0.58092361886E+00  0.13287097092E+02  0.96441658025E+02  0.92116309665E+02 0.  0.
         13    1    3    3    0    0  0.21465298606E+01 -0.10417900913E+02 -0.37814707101E+02  0.39282355925E+02  0.10566000000E+00 0. -1.
         22    1    1    0    0    0 -0.25272405406E+02 -0.58092361886E+00 -0.13287097092E+02  0.28558341975E+02  0.00000000000E+00 0.  1.
</event>
<event>
 5    1  0.6835419E-004  0.9118800E+02  0.7818608E-02  0.1130116E+00
         25   -1    0    0    0    0  0.00000000000E+00  0.00000000000E+00  0.99999998245E-14  0.12500000000E+03  0.12500000000E+03 0.  0.
        -13    1    3    3    0    0  0.30863414726E+02 -0.27458503906E+02  0.33183231259E+02  0.52987336281E+02  0.10566000000E+00 0.  1.
         23    2    1    0    0    0  0.34397818900E+01  0.38872661146E+01  0.29775630212E+02  0.94775323131E+02  0.89826670777E+02 0.  0.
         13    1    3    3    0    0 -0.27423632836E+02  0.31345770021E+02 -0.34076010471E+01  0.41787986851E+02  0.10566000000E+00 0. -1.
         22    1    1    0    0    0 -0.34397818900E+01 -0.38872661146E+01 -0.29775630212E+02  0.30224676869E+02  0.00000000000E+00 0.  1.
</event>
<event>
 5    1  0.6835419E-004  0.9118800E+02  0.7818608E-02  0.1130116E+00
         25   -1    0    0    0    0  0.00000000000E+00  0.00000000000E+00  0.99999998245E-14  0.12500000000E+03  0.12500000000E+03 0.  0.
        -13    1    3    3    0    0  0.19671885775E+02 -0.47431779638E+02 -0.28090611735E+02  0.58530764913E+02  0.10566000000E+00 0. -1.
         23    2    1    0    0    0  0.21191932884E+02 -0.17357499413E+02 -0.35482054363E+01  0.97378078143E+02  0.93378367601E+02 0.  0.
         13    1    3    3    0    0  0.15200471092E+01  0.30074280225E+02  0.24542406299E+02  0.38847313231E+02  0.10566000000E+00 0.  1.
         22    1    1    0    0    0 -0.21191932884E+02  0.17357499413E+02  0.35482054363E+01  0.27621921857E+02  0.00000000000E+00 0. -1.
</event>
<event>
 5    1  0.6835419E-004  0.9118800E+02  0.7818608E-02  0.1130116E+00
         25   -1    0    0    0    0  0.00000000000E+00  0.00000000000E+00  0.99999998245E-14  0.12500000000E+03  0.12500000000E+03 0.  0.
        -13    1    3    3    0    0 -0.49833062979E+02 -0.23009382278E+02 -0.27896207152E+02  0.61570897153E+02  0.10566000000E+00 0.  1.
         23    2    1    0    0    0 -0.26025808832E+02 -0.43187439994E+01 -0.96742288544E+01  0.96900445217E+02  0.92736785065E+02 0.  0.
         13    1    3    3    0    0  0.23807254148E+02  0.18690638279E+02  0.18221978297E+02  0.35329548064E+02  0.10566000000E+00 0. -1.
         22    1    1    0    0    0  0.26025808832E+02  0.43187439994E+01  0.96742288544E+01  0.28099554783E+02  0.00000000000E+00 0.  1.
</event>
<event>
 5    1  0.6835419E-004  0.9118800E+02  0.7818608E-02  0.1130116E+00
         25   -1    0    0    0    0  0.00000000000E+00  0.00000000000E+00  0.99999998245E-14  0.12500000000E+03  0.12500000000E+03 0.  0.
        -13    1    3    3    0    0  0.15179387045E+02  0.17773477492E+01  0.55155146841E+02  0.57233505424E+02  0.10566000000E+00 0. -1.
         23    2    1    0    0    0 -0.10790023795E+02  0.45813338182E+01  0.26589825314E+02  0.95940887087E+02  0.91434248352E+02 0.  0.
         13    1    3    3    0    0 -0.25969410840E+02  0.28039860690E+01 -0.28565321526E+02  0.38707381663E+02  0.10566000000E+00 0.  1.
         22    1    1    0    0    0  0.10790023795E+02 -0.45813338182E+01 -0.26589825314E+02  0.29059112913E+02  0.00000000000E+00 0. -1.
</event>
<event>
 5    1  0.6835419E-004  0.9118800E+02  0.7818608E-02  0.1130116E+00
         25   -1    0    0    0    0  0.00000000000E+00  0.00000000000E+00  0.99999998245E-14  0.12500000000E+03  0.12500000000E+03 0.  0.
        -13    1    3    3    0    0 -0.61546433542E+01 -0.51038241972E+01 -0.53747162504E+02  0.54338727419E+02  0.10566000000E+00 0. -1.
         23    2    1    0    0    0 -0.18008440547E+01 -0.23670268415E+02 -0.16797650381E+02  0.95919324209E+02  0.91404764931E+02 0.  0.
         13    1    3    3    0    0  0.43537992995E+01 -0.18566444218E+02  0.36949512123E+02  0.41580596790E+02  0.10566000000E+00 0.  1.
         22    1    1    0    0    0  0.18008440547E+01  0.23670268415E+02  0.16797650381E+02  0.29080675791E+02  0.00000000000E+00 0. -1.
</event>
<event>
 5    1  0.6835419E-004  0.9118800E+02  0.7818608E-02  0.1130116E+00
         25   -1    0    0    0    0  0.00000000000E+00  0.00000000000E+00  0.99999998245E-14  0.12500000000E+03  0.12500000000E+03 0.  0.
        -13    1    3    3    0    0  0.12890699870E+02  0.18124055659E+02 -0.33844769108E+02  0.40498532032E+02  0.10566000000E+00 0.  1.
         23    2    1    0    0    0  0.27787667523E+02  0.22286125795E+02  0.10825291813E+02  0.87770806991E+02  0.79483971640E+02 0.  0.
         13    1    3    3    0    0  0.14896967653E+02  0.41620701353E+01  0.44670060921E+02  0.47272274959E+02  0.10566000000E+00 0. -1.
         22    1    1    0    0    0 -0.27787667523E+02 -0.22286125795E+02 -0.10825291813E+02  0.37229193009E+02  0.00000000000E+00 0. -1.
</event>
<event>
 5    1  0.6835419E-004  0.9118800E+02  0.7818608E-02  0.1130116E+00
         25   -1    0    0    0    0  0.00000000000E+00  0.00000000000E+00  0.99999998245E-14  0.12500000000E+03  0.12500000000E+03 0.  0.
        -13    1    3    3    0    0  0.26117530274E+01 -0.37337991796E+02  0.39739070805E+02  0.54590766598E+02  0.10566000000E+00 0. -1.
         23    2    1    0    0    0 -0.19824631865E+02 -0.95342684323E+01  0.11215394862E+02  0.10030782745E+03  0.97221174975E+02 0.  0.
         13    1    3    3    0    0 -0.22436384893E+02  0.27803723364E+02 -0.28523675944E+02  0.45717060856E+02  0.10566000000E+00 0.  1.
         22    1    1    0    0    0  0.19824631865E+02  0.95342684323E+01 -0.11215394862E+02  0.24692172546E+02  0.00000000000E+00 0. -1.
</event>
<event>
 5    1  0.6835419E-004  0.9118800E+02  0.7818608E-02  0.1130116E+00
         25   -1    0    0    0    0  0.00000000000E+00  0.00000000000E+00  0.99999998245E-14  0.12500000000E+03  0.12500000000E+03 0.  0.
        -13    1    3    3    0    0  0.45410357840E+02 -0.18247763236E+02 -0.16839053741E+02  0.51755640825E+02  0.10566000000E+00 0.  1.
         23    2    1    0    0    0  0.82547773983E+01 -0.30328474193E+02 -0.21544862940E+01  0.93494452743E+02  0.88026207380E+02 0.  0.
         13    1    3    3    0    0 -0.37155580441E+02 -0.12080710958E+02  0.14684567447E+02  0.41738811918E+02  0.10566000000E+00 0. -1.
         22    1    1    0    0    0 -0.82547773983E+01  0.30328474193E+02  0.21544862940E+01  0.31505547257E+02  0.00000000000E+00 0.  1.
</event>
<event>
 5    1  0.6835419E-004  0.9118800E+02  0.7818608E-02  0.1130116E+00
         25   -1    0    0    0    0  0.00000000000E+00  0.00000000000E+00  0.99999998245E-14  0.12500000000E+03  0.12500000000E+03 0.  0.
        -13    1    3    3    0    0 -0.17171474860E+02 -0.59393959069E+02 -0.81494350285E+00  0.61831846323E+02  0.10566000000E+00 0.  1.
         23    2    1    0    0    0 -0.26613580139E+01 -0.28395260207E+02  0.32349265091E+01  0.96297415130E+02  0.91920366527E+02 0.  0.
         13    1    3    3    0    0  0.14510116846E+02  0.30998698862E+02  0.40498700120E+01  0.34465568806E+02  0.10566000000E+00 0. -1.
         22    1    1    0    0    0  0.26613580139E+01  0.28395260207E+02 -0.32349265091E+01  0.28702584870E+02  0.00000000000E+00 0.  1.
</event>
<event>
 5    1  0.6835419E-004  0.9118800E+02  0.7818608E-02  0.1130116E+00
         25   -1    0    0    0    0  0.00000000000E+00  0.00000000000E+00  0.99999998245E-14  0.12500000000E+03  0.12500000000E+03 0.  0.
        -13    1    3    3    0    0 -0.71459676755E+01 -0.52793735565E+02  0.18054179461E+02  0.56251292688E+02  0.10566000000E+00 0. -1.
         23    2    1    0    0    0  0.98625716099E+01 -0.16358583516E+02  0.21053210817E+02  0.96572702219E+02  0.92293962721E+02 0.  0.
         13    1    3    3    0    0  0.17008539285E+02  0.36435152050E+02  0.29990313559E+01  0.40321409532E+02  0.10566000000E+00 0.  1.
         22    1    1    0    0    0 -0.98625716099E+01  0.16358583516E+02 -0.21053210817E+02  0.28427297781E+02  0.00000000000E+00 0. -1.
</event>
<event>
 5    1  0.6835419E-004  0.9118800E+02  0.7818608E-02  0.1130116E+00
         25   -1    0    0    0    0  0.00000000000E+00  0.00000000000E+00  0.99999998245E-14  0.12500000000E+03  0.12500000000E+03 0.  0.
        -13    1    3    3    0    0 -0.52433614530E+02  0.76735589748E+01 -0.53212976738E+01  0.53258753393E+02  0.10566000000E+00 0. -1.
         23    2    1    0    0    0 -0.12717111082E+02  0.21261181554E+02 -0.14593231751E+02  0.96247171126E+02  0.91852015663E+02 0.  0.
         13    1    3    3    0    0  0.39716503449E+02  0.13587622579E+02 -0.92719340777E+01  0.42988417732E+02  0.10566000000E+00 0.  1.
         22    1    1    0    0    0  0.12717111082E+02 -0.21261181554E+02  0.14593231751E+02  0.28752828874E+02  0.00000000000E+00 0. -1.
</event>
<event>
 5    1  0.6835419E-004  0.9118800E+02  0.7818608E-02  0.1130116E+00
         25   -1    0    0    0    0  0.00000000000E+00  0.00000000000E+00  0.99999998245E-14  0.12500000000E+03  0.12500000000E+03 0.  0.
        -13    1    3    3    0    0  0.44664703589E+01 -0.12442204276E+02  0.38411249290E+02  0.40622568121E+02  0.10566000000E+00 0. -1.
         23    2    1    0    0    0  0.71623074356E+01  0.29819112892E+02  0.64894244912E+01  0.93653696045E+02  0.88252048198E+02 0.  0.
         13    1    3    3    0    0  0.26958370767E+01  0.42261317167E+02 -0.31921824799E+02  0.53031127923E+02  0.10566000000E+00 0.  1.
         22    1    1    0    0    0 -0.71623074356E+01 -0.29819112892E+02 -0.64894244912E+01  0.31346303955E+02  0.00000000000E+00 0.  1.
</event>
<event>
 5    1  0.6835419E-004  0.9118800E+02  0.7818608E-02  0.1130116E+00
         25   -1    0    0    0    0  0.00000000000E+00  0.00000000000E+00  0.99999998245E-14  0.12500000000E+03  0.12500000000E+03 0.  0.
        -13    1    3    3    0    0  0.46207398543E+02 -0.38318217773E+02  0.28080721789E+01  0.60094142200E+02  0.10566000000E+00 0.  1.
         23    2    1    0    0    0  0.12746891785E+02 -0.26144424727E+02 -0.94869642453E+00  0.95898209344E+02  0.91375884871E+02 0.  0.
         13    1    3    3    0    0 -0.33460506758E+02  0.12173793046E+02 -0.37567686035E+01  0.35804067143E+02  0.10566000000E+00 0. -1.
         22    1    1    0    0    0 -0.12746891785E+02  0.26144424727E+02  0.94869642453E+00  0.29101790656E+02  0.00000000000E+00 0.  1.
</event>
<event>
 5    1  0.6835419E-004  0.9118800E+02  0.7818608E-02  0.1130116E+00
         25   -1    0    0    0    0  0.00000000000E+00  0.00000000000E+00  0.99999998245E-14  0.12500000000E+03  0.12500000000E+03 0.  0.
        -13    1    3    3    0    0  0.28518182956E+02 -0.20970118910E+02 -0.23751262948E+01  0.35477951395E+02  0.10566000000E+00 0.  1.
         23    2    1    0    0    0 -0.11411891794E+02  0.24060047141E+02 -0.10829200275E+02  0.96253022396E+02  0.91859978222E+02 0.  0.
         13    1    3    3    0    0 -0.39930074751E+02  0.45030166052E+02 -0.84540739805E+01  0.60775071001E+02  0.10566000000E+00 0. -1.
         22    1    1    0    0    0  0.11411891794E+02 -0.24060047141E+02  0.10829200275E+02  0.28746977604E+02  0.00000000000E+00 0. -1.
</event>
<event>
 5    1  0.6835419E-004  0.9118800E+02  0.7818608E-02  0.1130116E+00
         25   -1    0    0    0    0  0.00000000000E+00  0.00000000000E+00  0.99999998245E-14  0.12500000000E+03  0.12500000000E+03 0.  0.
        -13    1    3    3    0    0 -0.31497800075E+02 -0.28863919266E+02 -0.24340457339E+02  0.49170176658E+02  0.10566000000E+00 0. -1.
         23    2    1    0    0    0  0.70149727072E+01 -0.42050491043E+01 -0.28746429652E+02  0.95112720134E+02  0.90294961286E+02 0.  0.
         13    1    3    3    0    0  0.38512772783E+02  0.24658870162E+02 -0.44059723122E+01  0.45942543477E+02  0.10566000000E+00 0.  1.
         22    1    1    0    0    0 -0.70149727072E+01  0.42050491043E+01  0.28746429652E+02  0.29887279866E+02  0.00000000000E+00 0. -1.
</event>
<event>
 5    1  0.6835419E-004  0.9118800E+02  0.7818608E-02  0.1130116E+00
         25   -1    0    0    0    0  0.00000000000E+00  0.00000000000E+00  0.99999998245E-14  0.12500000000E+03  0.12500000000E+03 0.  0.
        -13    1    3    3    0    0  0.17163891184E+02  0.21703521747E+02 -0.46601962680E+02  0.54197750013E+02  0.10566000000E+00 0.  1.
         23    2    1    0    0    0  0.13001687550E+02  0.26509831334E+02 -0.65443712581E+01  0.94756920930E+02  0.89801059194E+02 0.  0.
         13    1    3    3    0    0 -0.41622036346E+01  0.48063095870E+01  0.40057591422E+02  0.40559170917E+02  0.10566000000E+00 0. -1.
         22    1    1    0    0    0 -0.13001687550E+02 -0.26509831334E+02  0.65443712581E+01  0.30243079070E+02  0.00000000000E+00 0.  1.
</event>
<event>
 5    1  0.6835419E-004  0.9118800E+02  0.7818608E-02  0.1130116E+00
         25   -1    0    0    0    0  0.00000000000E+00  0.00000000000E+00  0.99999998245E-14  0.12500000000E+03  0.12500000000E+03 0.  0.
        -13    1    3    3    0    0 -0.21961505965E+02 -0.19202930246E+02 -0.53544127909E+02  0.60975774467E+02  0.10566000000E+00 0. -1.
         23    2    1    0    0    0 -0.79368661340E+01 -0.13223529994E+01 -0.30949800346E+02  0.93021372717E+02  0.87351835580E+02 0.  0.
         13    1    3    3    0    0  0.14024639831E+02  0.17880577247E+02  0.22594327564E+02  0.32045598249E+02  0.10566000000E+00 0.  1.
         22    1    1    0    0    0  0.79368661340E+01  0.13223529994E+01  0.30949800346E+02  0.31978627283E+02  0.00000000000E+00 0. -1.
</event>
<event>
 5    1  0.6835419E-004  0.9118800E+02  0.7818608E-02  0.1130116E+00
         25   -1    0    0    0    0  0.00000000000E+00  0.00000000000E+00  0.99999998245E-14  0.12500000000E+03  0.12500000000E+03 0.  0.
        -13    1    3    3    0    0  0.10015485561E+02 -0.28689596883E+02 -0.29759474582E+02  0.42532815705E+02  0.10566000000E+00 0.  1.
         23    2    1    0    0    0 -0.30431442758E+01 -0.80544070487E+01 -0.50008190749E+02  0.74256001912E+02  0.54212549082E+02 0.  0.
         13    1    3    3    0    0 -0.13058629837E+02  0.20635189834E+02 -0.20248716167E+02  0.31723186207E+02  0.10566000000E+00 0. -1.
         22    1    1    0    0    0  0.30431442758E+01  0.80544070487E+01  0.50008190749E+02  0.50743998088E+02  0.00000000000E+00 0. -1.
</event>
<event>
 5    1  0.6835419E-004  0.9118800E+02  0.7818608E-02  0.1130116E+00
         25   -1    0    0    0    0  0.00000000000E+00  0.00000000000E+00  0.99999998245E-14  0.12500000000E+03  0.12500000000E+03 0.  0.
        -13    1    3    3    0    0 -0.96913705938E+01  0.24145361660E+02 -0.11619280340E+02  0.28494560767E+02  0.10566000000E+00 0.  1.
         23    2    1    0    0    0  0.20012214787E+02 -0.28572887652E+02  0.28175932741E-01  0.90115914182E+02  0.83090183208E+02 0.  0.
         13    1    3    3    0    0  0.29703585381E+02 -0.52718249312E+02  0.11647456272E+02  0.61621353415E+02  0.10566000000E+00 0. -1.
         22    1    1    0    0    0 -0.20012214787E+02  0.28572887652E+02 -0.28175932741E-01  0.34884085818E+02  0.00000000000E+00 0. -1.
</event>
<event>
 5    1  0.6835419E-004  0.9118800E+02  0.7818608E-02  0.1130116E+00
         25   -1    0    0    0    0  0.00000000000E+00  0.00000000000E+00  0.99999998245E-14  0.12500000000E+03  0.12500000000E+03 0.  0.
        -13    1    3    3    0    0  0.88943645756E+01 -0.32856473096E+02  0.37515656007E+02  0.50656620053E+02  0.10566000000E+00 0. -1.
         23    2    1    0    0    0 -0.17459743297E+02 -0.28964998687E+02  0.83369127254E+01  0.90167286946E+02  0.83167431946E+02 0.  0.
         13    1    3    3    0    0 -0.26354107872E+02  0.38914744091E+01 -0.29178743282E+02  0.39510666893E+02  0.10566000000E+00 0.  1.
         22    1    1    0    0    0  0.17459743297E+02  0.28964998687E+02 -0.83369127254E+01  0.34832713054E+02  0.00000000000E+00 0. -1.
</event>
<event>
 5    1  0.6835419E-004  0.9118800E+02  0.7818608E-02  0.1130116E+00
         25   -1    0    0    0    0  0.00000000000E+00  0.00000000000E+00  0.99999998245E-14  0.12500000000E+03  0.12500000000E+03 0.  0.
        -13    1    3    3    0    0  0.19811685023E+02  0.23101921369E+02  0.53015224733E+02  0.61129590641E+02  0.10566000000E+00 0. -1.
         23    2    1    0    0    0 -0.94238622291E+00  0.80977716658E+01  0.23067223936E+02  0.10053453827E+03  0.97512227779E+02 0.  0.
         13    1    3    3    0    0 -0.20754071246E+02 -0.15004149704E+02 -0.29948000797E+02  0.39404947625E+02  0.10566000000E+00 0.  1.
         22    1    1    0    0    0  0.94238622291E+00 -0.80977716658E+01 -0.23067223936E+02  0.24465461734E+02  0.00000000000E+00 0. -1.
</event>
<event>
 5    1  0.6835419E-004  0.9118800E+02  0.7818608E-02  0.1130116E+00
         25   -1    0    0    0    0  0.00000000000E+00  0.00000000000E+00  0.99999998245E-14  0.12500000000E+03  0.12500000000E+03 0.  0.
        -13    1    3    3    0    0 -0.29365623677E+02 -0.24460070717E+02  0.43428822163E+01  0.38464356271E+02  0.10566000000E+00 0.  1.
         23    2    1    0    0    0  0.20329269134E+02 -0.30079774139E+02 -0.32318805929E+00  0.88693300256E+02  0.80921721831E+02 0.  0.
         13    1    3    3    0    0  0.49694892811E+02 -0.56197034222E+01 -0.46660702756E+01  0.50228943985E+02  0.10566000000E+00 0. -1.
         22    1    1    0    0    0 -0.20329269134E+02  0.30079774139E+02  0.32318805929E+00  0.36306699744E+02  0.00000000000E+00 0. -1.
</event>
<event>
 5    1  0.6835419E-004  0.9118800E+02  0.7818608E-02  0.1130116E+00
         25   -1    0    0    0    0  0.00000000000E+00  0.00000000000E+00  0.99999998245E-14  0.12500000000E+03  0.12500000000E+03 0.  0.
        -13    1    3    3    0    0 -0.16829066234E+02  0.16689887411E+00  0.30343928035E+02  0.34698853845E+02  0.10566000000E+00 0. -1.
         23    2    1    0    0    0  0.64586255790E+01 -0.19177615797E+02 -0.21963394574E+02  0.95135548000E+02  0.90326557557E+02 0.  0.
         13    1    3    3    0    0  0.23287691813E+02 -0.19344514671E+02 -0.52307322609E+02  0.60436694155E+02  0.10566000000E+00 0.  1.
         22    1    1    0    0    0 -0.64586255790E+01  0.19177615797E+02  0.21963394574E+02  0.29864452000E+02  0.00000000000E+00 0.  1.
</event>
<event>
 5    1  0.6835419E-004  0.9118800E+02  0.7818608E-02  0.1130116E+00
         25   -1    0    0    0    0  0.00000000000E+00  0.00000000000E+00  0.99999998245E-14  0.12500000000E+03  0.12500000000E+03 0.  0.
        -13    1    3    3    0    0 -0.10772008251E+01 -0.10839071958E+02 -0.59953027821E+02  0.60934575993E+02  0.10566000000E+00 0.  1.
         23    2    1    0    0    0  0.70634768678E+01 -0.11228903682E+02 -0.26515430264E+02  0.95351239058E+02  0.90624553871E+02 0.  0.
         13    1    3    3    0    0  0.81406776929E+01 -0.38983172365E+00  0.33437597557E+02  0.34416663065E+02  0.10566000000E+00 0. -1.
         22    1    1    0    0    0 -0.70634768678E+01  0.11228903682E+02  0.26515430264E+02  0.29648760942E+02  0.00000000000E+00 0.  1.
</event>
<event>
 5    1  0.6835419E-004  0.9118800E+02  0.7818608E-02  0.1130116E+00
         25   -1    0    0    0    0  0.00000000000E+00  0.00000000000E+00  0.99999998245E-14  0.12500000000E+03  0.12500000000E+03 0.  0.
        -13    1    3    3    0    0  0.17691599349E+02 -0.15096059275E+02 -0.45107087940E+02  0.50749820095E+02  0.10566000000E+00 0.  1.
         23    2    1    0    0    0 -0.18095498958E+02 -0.84942730605E+01 -0.27023846917E+02  0.91386192427E+02  0.84979692320E+02 0.  0.
         13    1    3    3    0    0 -0.35787098306E+02  0.66017862149E+01  0.18083241024E+02  0.40636372333E+02  0.10566000000E+00 0. -1.
         22    1    1    0    0    0  0.18095498958E+02  0.84942730605E+01  0.27023846917E+02  0.33613807573E+02  0.00000000000E+00 0.  1.
</event>
<event>
 5    1  0.6835419E-004  0.9118800E+02  0.7818608E-02  0.1130116E+00
         25   -1    0    0    0    0  0.00000000000E+00  0.00000000000E+00  0.99999998245E-14  0.12500000000E+03  0.12500000000E+03 0.  0.
        -13    1    3    3    0    0 -0.78315267356E+01  0.18526581715E+02 -0.55642124014E+02  0.59166072794E+02  0.10566000000E+00 0.  1.
         23    2    1    0    0    0  0.30297046267E+01 -0.58192539944E+01 -0.21723864544E+02  0.10230706899E+03  0.99758544733E+02 0.  0.
         13    1    3    3    0    0  0.10861231362E+02 -0.24345835710E+02  0.33918259470E+02  0.43140996195E+02  0.10566000000E+00 0. -1.
         22    1    1    0    0    0 -0.30297046267E+01  0.58192539944E+01  0.21723864544E+02  0.22692931011E+02  0.00000000000E+00 0.  1.
</event>
<event>
 5    1  0.6835419E-004  0.9118800E+02  0.7818608E-02  0.1130116E+00
         25   -1    0    0    0    0  0.00000000000E+00  0.00000000000E+00  0.99999998245E-14  0.12500000000E+03  0.12500000000E+03 0.  0.
        -13    1    3    3    0    0 -0.11225610442E+01  0.57801861380E+02 -0.23517689678E+02  0.62413205447E+02  0.10566000000E+00 0. -1.
         23    2    1    0    0    0 -0.11480263627E+01  0.28709111945E+02 -0.92554147296E+01  0.94814013598E+02  0.89880495101E+02 0.  0.
         13    1    3    3    0    0 -0.25465318514E-01 -0.29092749435E+02  0.14262274949E+02  0.32400808152E+02  0.10566000000E+00 0.  1.
         22    1    1    0    0    0  0.11480263627E+01 -0.28709111945E+02  0.92554147296E+01  0.30185986402E+02  0.00000000000E+00 0. -1.
</event>
<event>
 5    1  0.6835419E-004  0.9118800E+02  0.7818608E-02  0.1130116E+00
         25   -1    0    0    0    0  0.00000000000E+00  0.00000000000E+00  0.99999998245E-14  0.12500000000E+03  0.12500000000E+03 0.  0.
        -13    1    3    3    0    0 -0.45857485067E+02 -0.23676251596E+02 -0.78316088127E+01  0.52199799683E+02  0.10566000000E+00 0.  1.
         23    2    1    0    0    0 -0.25911612756E+02  0.14127113653E+02 -0.11201927258E+01  0.95466259168E+02  0.90783064456E+02 0.  0.
         13    1    3    3    0    0  0.19945872312E+02  0.37803365249E+02  0.67114160869E+01  0.43266459485E+02  0.10566000000E+00 0. -1.
         22    1    1    0    0    0  0.25911612756E+02 -0.14127113653E+02  0.11201927258E+01  0.29533740832E+02  0.00000000000E+00 0.  1.
</event>
<event>
 5    1  0.6835419E-004  0.9118800E+02  0.7818608E-02  0.1130116E+00
         25   -1    0    0    0    0  0.00000000000E+00  0.00000000000E+00  0.99999998245E-14  0.12500000000E+03  0.12500000000E+03 0.  0.
        -13    1    3    3    0    0  0.16110053165E+02 -0.35064418512E+02  0.54367513888E+01  0.38969432742E+02  0.10566000000E+00 0.  1.
         23    2    1    0    0    0  0.17079120985E+02  0.19995809407E+02 -0.11083341594E+02  0.96462844774E+02  0.92145055177E+02 0.  0.
         13    1    3    3    0    0  0.96906782044E+00  0.55060227919E+02 -0.16520092982E+02  0.57493412032E+02  0.10566000000E+00 0. -1.
         22    1    1    0    0    0 -0.17079120985E+02 -0.19995809407E+02  0.11083341594E+02  0.28537155226E+02  0.00000000000E+00 0. -1.
</event>
<event>
 5    1  0.6835419E-004  0.9118800E+02  0.7818608E-02  0.1130116E+00
         25   -1    0    0    0    0  0.00000000000E+00  0.00000000000E+00  0.99999998245E-14  0.12500000000E+03  0.12500000000E+03 0.  0.
        -13    1    3    3    0    0  0.17453446838E+02  0.53118088234E+02 -0.22855181387E+02  0.60403018007E+02  0.10566000000E+00 0. -1.
         23    2    1    0    0    0 -0.35142065243E+01  0.23056727896E+02 -0.12737467238E+02  0.98425474220E+02  0.94770082595E+02 0.  0.
         13    1    3    3    0    0 -0.20967653362E+02 -0.30061360338E+02  0.10117714149E+02  0.38022456213E+02  0.10566000000E+00 0.  1.
         22    1    1    0    0    0  0.35142065243E+01 -0.23056727896E+02  0.12737467238E+02  0.26574525780E+02  0.00000000000E+00 0. -1.
</event>
<event>
 4    1  0.6835419E-004  0.9118800E+02  0.7818608E-02  0.1130116E+00
         25   -1    0    0    0    0  0.00000000000E+00  0.00000000000E+00  0.99999998245E-14  0.12500000000E+03  0.12500000000E+03 0.  0.
        -13    1    1    0    0    0  0.49790787806E+01  0.13868913718E+02 -0.45033113611E+02  0.47382807839E+02  0.10566000000E+00 0. -1.
         13    1    1    0    0    0 -0.24940151757E+02 -0.23722195026E+01 -0.21157454602E+01  0.25142118803E+02  0.10566000000E+00 0.  1.
         22    1    1    0    0    0  0.19961072976E+02 -0.11496694216E+02  0.47148859071E+02  0.52475073358E+02  0.00000000000E+00 0. -1.
</event>
<event>
 5    1  0.6835419E-004  0.9118800E+02  0.7818608E-02  0.1130116E+00
         25   -1    0    0    0    0  0.00000000000E+00  0.00000000000E+00  0.99999998245E-14  0.12500000000E+03  0.12500000000E+03 0.  0.
        -13    1    3    3    0    0  0.59569263541E+01 -0.21398966582E+02  0.42706815491E+02  0.48138176074E+02  0.10566000000E+00 0.  1.
         23    2    1    0    0    0 -0.24602796834E+02  0.30128796863E+01  0.16083843726E+02  0.95452325217E+02  0.90763876649E+02 0.  0.
         13    1    3    3    0    0 -0.30559723188E+02  0.24411846268E+02 -0.26622971764E+02  0.47314149143E+02  0.10566000000E+00 0. -1.
         22    1    1    0    0    0  0.24602796834E+02 -0.30128796863E+01 -0.16083843726E+02  0.29547674783E+02  0.00000000000E+00 0. -1.
</event>
<event>
 5    1  0.6835419E-004  0.9118800E+02  0.7818608E-02  0.1130116E+00
         25   -1    0    0    0    0  0.00000000000E+00  0.00000000000E+00  0.99999998245E-14  0.12500000000E+03  0.12500000000E+03 0.  0.
        -13    1    3    3    0    0  0.29661435920E+02  0.23139933130E+02  0.45981005807E+02  0.59409774828E+02  0.10566000000E+00 0.  1.
         23    2    1    0    0    0  0.76093172437E+01  0.93209549177E+00  0.28973799527E+02  0.95029154667E+02  0.90179203073E+02 0.  0.
         13    1    3    3    0    0 -0.22052118676E+02 -0.22207837638E+02 -0.17007206279E+02  0.35619379839E+02  0.10566000000E+00 0. -1.
         22    1    1    0    0    0 -0.76093172437E+01 -0.93209549177E+00 -0.28973799527E+02  0.29970845333E+02  0.00000000000E+00 0.  1.
</event>
