<event>
 5    1  0.1766634E-003  0.9118800E+02  0.7818608E-02  0.1130116E+00
         25   -1    0    0    0    0  0.00000000000E+00  0.00000000000E+00  0.99999998245E-14  0.12500000000E+03  0.12500000000E+03 0.  0.
        -13    1    3    3    0    0  0.21862083503E+02  0.13095286160E+02 -0.56398652003E+02  0.61889064676E+02  0.10566000000E+00 0. -1.
         23    2    1    0    0    0  0.14734433709E+02  0.96889994531E+01 -0.24116992646E+02  0.95123427549E+02  0.90309782899E+02 0.  0.
         13    1    3    3    0    0 -0.71276497945E+01 -0.34062867065E+01  0.32281659357E+02  0.33234362873E+02  0.10566000000E+00 0.  1.
         22    1    1    0    0    0 -0.14734433709E+02 -0.96889994531E+01  0.24116992646E+02  0.29876572451E+02  0.00000000000E+00 0. -1.
</event>
<event>
 5    1  0.1766634E-003  0.9118800E+02  0.7818608E-02  0.1130116E+00
         25   -1    0    0    0    0  0.00000000000E+00  0.00000000000E+00  0.99999998245E-14  0.12500000000E+03  0.12500000000E+03 0.  0.
        -13    1    3    3    0    0 -0.75913401883E+01  0.32624747503E+01  0.28593937250E+02  0.29764015167E+02  0.10566000000E+00 0.  1.
         23    2    1    0    0    0  0.20360350701E+02 -0.18122103739E+02 -0.21010370816E+02  0.90585029327E+02  0.83792943210E+02 0.  0.
         13    1    3    3    0    0  0.27951690889E+02 -0.21384578489E+02 -0.49604308067E+02  0.60821014160E+02  0.10566000000E+00 0. -1.
         22    1    1    0    0    0 -0.20360350701E+02  0.18122103739E+02  0.21010370816E+02  0.34414970673E+02  0.00000000000E+00 0. -1.
</event>
<event>
 5    1  0.1766634E-003  0.9118800E+02  0.7818608E-02  0.1130116E+00
         25   -1    0    0    0    0  0.00000000000E+00  0.00000000000E+00  0.99999998245E-14  0.12500000000E+03  0.12500000000E+03 0.  0.
        -13    1    3    3    0    0 -0.30722229522E+02  0.28435099229E+02  0.80323883143E+01  0.42625587163E+02  0.10566000000E+00 0.  1.
         23    2    1    0    0    0  0.61096452950E+01  0.11460094250E+02 -0.26239312286E+02  0.95722653209E+02  0.91135411901E+02 0.  0.
         13    1    3    3    0    0  0.36831874817E+02 -0.16975004979E+02 -0.34271700601E+02  0.53097066046E+02  0.10566000000E+00 0. -1.
         22    1    1    0    0    0 -0.61096452950E+01 -0.11460094250E+02  0.26239312286E+02  0.29277346791E+02  0.00000000000E+00 0. -1.
</event>
<event>
 5    1  0.1766634E-003  0.9118800E+02  0.7818608E-02  0.1130116E+00
         25   -1    0    0    0    0  0.00000000000E+00  0.00000000000E+00  0.99999998245E-14  0.12500000000E+03  0.12500000000E+03 0.  0.
        -13    1    3    3    0    0  0.44212927367E+02 -0.89540703370E+01  0.38139710978E+02  0.59072895980E+02  0.10566000000E+00 0.  1.
         23    2    1    0    0    0  0.20098154407E+02  0.10533165915E+02  0.17894023727E+02  0.96102258221E+02  0.91654593749E+02 0.  0.
         13    1    3    3    0    0 -0.24114772960E+02  0.19487236252E+02 -0.20245687251E+02  0.37029362241E+02  0.10566000000E+00 0. -1.
         22    1    1    0    0    0 -0.20098154407E+02 -0.10533165915E+02 -0.17894023727E+02  0.28897741779E+02  0.00000000000E+00 0.  1.
</event>
<event>
 5    1  0.1766634E-003  0.9118800E+02  0.7818608E-02  0.1130116E+00
         25   -1    0    0    0    0  0.00000000000E+00  0.00000000000E+00  0.99999998245E-14  0.12500000000E+03  0.12500000000E+03 0.  0.
        -13    1    3    3    0    0 -0.27370906024E+02 -0.29553913491E+02  0.27258325057E+01  0.40373773989E+02  0.10566000000E+00 0. -1.
         23    2    1    0    0    0  0.13692106308E+02  0.67173214279E+00  0.25369499904E+02  0.96163624975E+02  0.91738248532E+02 0.  0.
         13    1    3    3    0    0  0.41063012332E+02  0.30225645634E+02  0.22643667398E+02  0.55789850986E+02  0.10566000000E+00 0.  1.
         22    1    1    0    0    0 -0.13692106308E+02 -0.67173214279E+00 -0.25369499904E+02  0.28836375025E+02  0.00000000000E+00 0.  1.
</event>
<event>
 5    1  0.1766634E-003  0.9118800E+02  0.7818608E-02  0.1130116E+00
         25   -1    0    0    0    0  0.00000000000E+00  0.00000000000E+00  0.99999998245E-14  0.12500000000E+03  0.12500000000E+03 0.  0.
        -13    1    3    3    0    0 -0.17458437128E+02 -0.48487207506E+02 -0.25562479421E+02  0.57526149157E+02  0.10566000000E+00 0. -1.
         23    2    1    0    0    0 -0.25212939765E+02 -0.18390612888E+02 -0.10416319297E+02  0.92100050430E+02  0.86023325950E+02 0.  0.
         13    1    3    3    0    0 -0.77545026373E+01  0.30096594617E+02  0.15146160123E+02  0.34573901273E+02  0.10566000000E+00 0.  1.
         22    1    1    0    0    0  0.25212939765E+02  0.18390612888E+02  0.10416319297E+02  0.32899949570E+02  0.00000000000E+00 0. -1.
</event>
<event>
 5    1  0.1766634E-003  0.9118800E+02  0.7818608E-02  0.1130116E+00
         25   -1    0    0    0    0  0.00000000000E+00  0.00000000000E+00  0.99999998245E-14  0.12500000000E+03  0.12500000000E+03 0.  0.
        -13    1    3    3    0    0 -0.18163763935E+02  0.30533631985E+02 -0.41706000066E+02  0.54787102570E+02  0.10566000000E+00 0.  1.
         23    2    1    0    0    0  0.37970498875E+01 -0.16051804192E+01 -0.28962661775E+02  0.95745428236E+02  0.91166644443E+02 0.  0.
         13    1    3    3    0    0  0.21960813822E+02 -0.32138812404E+02  0.12743338292E+02  0.40958325666E+02  0.10566000000E+00 0. -1.
         22    1    1    0    0    0 -0.37970498875E+01  0.16051804192E+01  0.28962661775E+02  0.29254571764E+02  0.00000000000E+00 0.  1.
</event>
<event>
 5    1  0.1766634E-003  0.9118800E+02  0.7818608E-02  0.1130116E+00
         25   -1    0    0    0    0  0.00000000000E+00  0.00000000000E+00  0.99999998245E-14  0.12500000000E+03  0.12500000000E+03 0.  0.
        -13    1    3    3    0    0  0.28635251504E+02 -0.76857912615E+01  0.54796065351E+02  0.62303041323E+02  0.10566000000E+00 0.  1.
         23    2    1    0    0    0  0.14180430702E+02 -0.35361486091E+00  0.23393425266E+02  0.97641966371E+02  0.93730953227E+02 0.  0.
         13    1    3    3    0    0 -0.14454820802E+02  0.73321764006E+01 -0.31402640086E+02  0.35338925048E+02  0.10566000000E+00 0. -1.
         22    1    1    0    0    0 -0.14180430702E+02  0.35361486091E+00 -0.23393425266E+02  0.27358033629E+02  0.00000000000E+00 0.  1.
</event>
<event>
 5    1  0.1766634E-003  0.9118800E+02  0.7818608E-02  0.1130116E+00
         25   -1    0    0    0    0  0.00000000000E+00  0.00000000000E+00  0.99999998245E-14  0.12500000000E+03  0.12500000000E+03 0.  0.
        -13    1    3    3    0    0 -0.86861940927E+01  0.34498998183E+02  0.15184051708E+02  0.38680711391E+02  0.10566000000E+00 0.  1.
         23    2    1    0    0    0  0.23063245827E+02 -0.13814374587E+02  0.80831085618E+01  0.96927114553E+02  0.92772725723E+02 0.  0.
         13    1    3    3    0    0  0.31749439920E+02 -0.48313372770E+02 -0.71009431463E+01  0.58246403161E+02  0.10566000000E+00 0. -1.
         22    1    1    0    0    0 -0.23063245827E+02  0.13814374587E+02 -0.80831085618E+01  0.28072885447E+02  0.00000000000E+00 0. -1.
</event>
<event>
 5    1  0.1766634E-003  0.9118800E+02  0.7818608E-02  0.1130116E+00
         25   -1    0    0    0    0  0.00000000000E+00  0.00000000000E+00  0.99999998245E-14  0.12500000000E+03  0.12500000000E+03 0.  0.
        -13    1    3    3    0    0 -0.24491276274E+01 -0.34401520813E+02 -0.71639616682E+00  0.34496191788E+02  0.10566000000E+00 0. -1.
         23    2    1    0    0    0 -0.56746360413E+01  0.23448038300E+02  0.17459832328E+02  0.95219843196E+02  0.90443135721E+02 0.  0.
         13    1    3    3    0    0 -0.32255084139E+01  0.57849559113E+02  0.18176228495E+02  0.60723651409E+02  0.10566000000E+00 0.  1.
         22    1    1    0    0    0  0.56746360413E+01 -0.23448038300E+02 -0.17459832328E+02  0.29780156804E+02  0.00000000000E+00 0. -1.
</event>
<event>
 5    1  0.1766634E-003  0.9118800E+02  0.7818608E-02  0.1130116E+00
         25   -1    0    0    0    0  0.00000000000E+00  0.00000000000E+00  0.99999998245E-14  0.12500000000E+03  0.12500000000E+03 0.  0.
        -13    1    3    3    0    0 -0.11531213949E+02 -0.33688565189E+02  0.25294792241E+02  0.43677522802E+02  0.10566000000E+00 0.  1.
         23    2    1    0    0    0 -0.40075689827E+01 -0.15631667344E+02 -0.23639914321E+02  0.96377365911E+02  0.92029025192E+02 0.  0.
         13    1    3    3    0    0  0.75236449664E+01  0.18056897845E+02 -0.48934706562E+02  0.52699843109E+02  0.10566000000E+00 0. -1.
         22    1    1    0    0    0  0.40075689827E+01  0.15631667344E+02  0.23639914321E+02  0.28622634089E+02  0.00000000000E+00 0. -1.
</event>
<event>
 5    1  0.1766634E-003  0.9118800E+02  0.7818608E-02  0.1130116E+00
         25   -1    0    0    0    0  0.00000000000E+00  0.00000000000E+00  0.99999998245E-14  0.12500000000E+03  0.12500000000E+03 0.  0.
        -13    1    3    3    0    0  0.13227759784E+02  0.38825620100E+01  0.47593965600E+02  0.49550425248E+02  0.10566000000E+00 0. -1.
         23    2    1    0    0    0  0.24350500270E+02  0.15514842541E+02  0.42125465200E+01  0.95821193468E+02  0.91270468208E+02 0.  0.
         13    1    3    3    0    0  0.11122740486E+02  0.11632280531E+02 -0.43381419080E+02  0.46270768220E+02  0.10566000000E+00 0.  1.
         22    1    1    0    0    0 -0.24350500270E+02 -0.15514842541E+02 -0.42125465200E+01  0.29178806532E+02  0.00000000000E+00 0. -1.
</event>
<event>
 5    1  0.1766634E-003  0.9118800E+02  0.7818608E-02  0.1130116E+00
         25   -1    0    0    0    0  0.00000000000E+00  0.00000000000E+00  0.99999998245E-14  0.12500000000E+03  0.12500000000E+03 0.  0.
        -13    1    3    3    0    0 -0.44509021065E+01 -0.33965752122E+02  0.32692809509E+02  0.47353075976E+02  0.10566000000E+00 0. -1.
         23    2    1    0    0    0  0.61648003525E+01 -0.18036633297E+02 -0.16279114053E+02  0.99933399544E+02  0.96738564626E+02 0.  0.
         13    1    3    3    0    0  0.10615702459E+02  0.15929118824E+02 -0.48971923561E+02  0.52580323568E+02  0.10566000000E+00 0.  1.
         22    1    1    0    0    0 -0.61648003525E+01  0.18036633297E+02  0.16279114053E+02  0.25066600456E+02  0.00000000000E+00 0.  1.
</event>
<event>
 5    1  0.1766634E-003  0.9118800E+02  0.7818608E-02  0.1130116E+00
         25   -1    0    0    0    0  0.00000000000E+00  0.00000000000E+00  0.99999998245E-14  0.12500000000E+03  0.12500000000E+03 0.  0.
        -13    1    3    3    0    0 -0.37596804236E+02 -0.29417396632E+02 -0.35461157019E+01  0.47869499830E+02  0.10566000000E+00 0.  1.
         23    2    1    0    0    0 -0.11608183303E+02  0.11645243834E+02  0.17641968839E+02  0.10088360126E+03  0.97958666363E+02 0.  0.
         13    1    3    3    0    0  0.25988620933E+02  0.41062640466E+02  0.21188084541E+02  0.53014101432E+02  0.10566000000E+00 0. -1.
         22    1    1    0    0    0  0.11608183303E+02 -0.11645243834E+02 -0.17641968839E+02  0.24116398738E+02  0.00000000000E+00 0. -1.
</event>
<event>
 5    1  0.1766634E-003  0.9118800E+02  0.7818608E-02  0.1130116E+00
         25   -1    0    0    0    0  0.00000000000E+00  0.00000000000E+00  0.99999998245E-14  0.12500000000E+03  0.12500000000E+03 0.  0.
        -13    1    3    3    0    0  0.64968046261E+01 -0.93526607489E+01 -0.43889882183E+02  0.45343286774E+02  0.10566000000E+00 0.  1.
         23    2    1    0    0    0  0.59319951551E+00 -0.24709112146E+02  0.73938852914E+01  0.99201518486E+02  0.95788201891E+02 0.  0.
         13    1    3    3    0    0 -0.59036051106E+01 -0.15356451397E+02  0.51283767474E+02  0.53858231712E+02  0.10566000000E+00 0. -1.
         22    1    1    0    0    0 -0.59319951551E+00  0.24709112146E+02 -0.73938852914E+01  0.25798481514E+02  0.00000000000E+00 0. -1.
</event>
<event>
 5    1  0.1766634E-003  0.9118800E+02  0.7818608E-02  0.1130116E+00
         25   -1    0    0    0    0  0.00000000000E+00  0.00000000000E+00  0.99999998245E-14  0.12500000000E+03  0.12500000000E+03 0.  0.
        -13    1    3    3    0    0  0.16599559896E+02  0.27242587921E+02  0.21517271414E+02  0.38479970355E+02  0.10566000000E+00 0. -1.
         23    2    1    0    0    0 -0.21470473209E+02 -0.14676057047E+02  0.13583889293E+02  0.95659074340E+02  0.91048166291E+02 0.  0.
         13    1    3    3    0    0 -0.38070033105E+02 -0.41918644968E+02 -0.79333821204E+01  0.57179103985E+02  0.10566000000E+00 0.  1.
         22    1    1    0    0    0  0.21470473209E+02  0.14676057047E+02 -0.13583889293E+02  0.29340925660E+02  0.00000000000E+00 0.  1.
</event>
<event>
 5    1  0.1766634E-003  0.9118800E+02  0.7818608E-02  0.1130116E+00
         25   -1    0    0    0    0  0.00000000000E+00  0.00000000000E+00  0.99999998245E-14  0.12500000000E+03  0.12500000000E+03 0.  0.
        -13    1    3    3    0    0  0.33570657930E+02 -0.19010596172E+02  0.45129318686E+02  0.59372202332E+02  0.10566000000E+00 0.  1.
         23    2    1    0    0    0  0.25894364134E+02 -0.77137388488E+01  0.11563379498E+02  0.95610688910E+02  0.90981713698E+02 0.  0.
         13    1    3    3    0    0 -0.76762937952E+01  0.11296857324E+02 -0.33565939188E+02  0.36238486578E+02  0.10566000000E+00 0. -1.
         22    1    1    0    0    0 -0.25894364134E+02  0.77137388488E+01 -0.11563379498E+02  0.29389311090E+02  0.00000000000E+00 0.  1.
</event>
<event>
 5    1  0.1766634E-003  0.9118800E+02  0.7818608E-02  0.1130116E+00
         25   -1    0    0    0    0  0.00000000000E+00  0.00000000000E+00  0.99999998245E-14  0.12500000000E+03  0.12500000000E+03 0.  0.
        -13    1    3    3    0    0  0.12180156576E+02 -0.45054808873E+02 -0.31284963779E+02  0.56187651130E+02  0.10566000000E+00 0. -1.
         23    2    1    0    0    0 -0.11809790911E+02 -0.20954286448E+02 -0.23591085763E+01  0.10083145277E+03  0.97892099746E+02 0.  0.
         13    1    3    3    0    0 -0.23989947488E+02  0.24100522426E+02  0.28925855203E+02  0.44643801640E+02  0.10566000000E+00 0.  1.
         22    1    1    0    0    0  0.11809790911E+02  0.20954286448E+02  0.23591085763E+01  0.24168547229E+02  0.00000000000E+00 0. -1.
</event>
<event>
 5    1  0.1766634E-003  0.9118800E+02  0.7818608E-02  0.1130116E+00
         25   -1    0    0    0    0  0.00000000000E+00  0.00000000000E+00  0.99999998245E-14  0.12500000000E+03  0.12500000000E+03 0.  0.
        -13    1    3    3    0    0 -0.28471756703E+02  0.47724967424E+02  0.72573371234E+01  0.56044567547E+02  0.10566000000E+00 0. -1.
         23    2    1    0    0    0 -0.28890588325E+02  0.19644620000E+02 -0.95603683529E+01  0.88778765458E+02  0.81053632642E+02 0.  0.
         13    1    3    3    0    0 -0.41883162258E+00 -0.28080347424E+02 -0.16817705476E+02  0.32734197911E+02  0.10566000000E+00 0.  1.
         22    1    1    0    0    0  0.28890588325E+02 -0.19644620000E+02  0.95603683529E+01  0.36221234542E+02  0.00000000000E+00 0. -1.
</event>
<event>
 5    1  0.1766634E-003  0.9118800E+02  0.7818608E-02  0.1130116E+00
         25   -1    0    0    0    0  0.00000000000E+00  0.00000000000E+00  0.99999998245E-14  0.12500000000E+03  0.12500000000E+03 0.  0.
        -13    1    3    3    0    0 -0.45894281774E+02 -0.20128158785E+02 -0.57608044734E+01  0.50444285185E+02  0.10566000000E+00 0.  1.
         23    2    1    0    0    0 -0.21262143258E+02  0.17326519192E+02  0.62811753693E+01  0.96862122197E+02  0.92685115036E+02 0.  0.
         13    1    3    3    0    0  0.24632138516E+02  0.37454677978E+02  0.12041979843E+02  0.46417837012E+02  0.10566000000E+00 0. -1.
         22    1    1    0    0    0  0.21262143258E+02 -0.17326519192E+02 -0.62811753693E+01  0.28137877803E+02  0.00000000000E+00 0.  1.
</event>
<event>
 5    1  0.1766634E-003  0.9118800E+02  0.7818608E-02  0.1130116E+00
         25   -1    0    0    0    0  0.00000000000E+00  0.00000000000E+00  0.99999998245E-14  0.12500000000E+03  0.12500000000E+03 0.  0.
        -13    1    3    3    0    0 -0.18508462683E+02 -0.28548566224E+02  0.79473743083E+00  0.34032728306E+02  0.10566000000E+00 0. -1.
         23    2    1    0    0    0  0.69975811061E+01  0.27388670392E+02  0.71586015823E+01  0.95839221824E+02  0.91295155710E+02 0.  0.
         13    1    3    3    0    0  0.25506043789E+02  0.55937236617E+02  0.63638641514E+01  0.61806493518E+02  0.10566000000E+00 0.  1.
         22    1    1    0    0    0 -0.69975811061E+01 -0.27388670392E+02 -0.71586015823E+01  0.29160778176E+02  0.00000000000E+00 0.  1.
</event>
<event>
 5    1  0.1766634E-003  0.9118800E+02  0.7818608E-02  0.1130116E+00
         25   -1    0    0    0    0  0.00000000000E+00  0.00000000000E+00  0.99999998245E-14  0.12500000000E+03  0.12500000000E+03 0.  0.
        -13    1    3    3    0    0 -0.30396331354E+02 -0.13342529525E+02  0.28254019435E+02  0.43591981284E+02  0.10566000000E+00 0. -1.
         23    2    1    0    0    0  0.10961897818E+02 -0.26814998797E+02 -0.10034443663E+01  0.96013550324E+02  0.91533532549E+02 0.  0.
         13    1    3    3    0    0  0.41358229172E+02 -0.13472469271E+02 -0.29257463802E+02  0.52421569040E+02  0.10566000000E+00 0.  1.
         22    1    1    0    0    0 -0.10961897818E+02  0.26814998797E+02  0.10034443663E+01  0.28986449676E+02  0.00000000000E+00 0. -1.
</event>
<event>
 5    1  0.1766634E-003  0.9118800E+02  0.7818608E-02  0.1130116E+00
         25   -1    0    0    0    0  0.00000000000E+00  0.00000000000E+00  0.99999998245E-14  0.12500000000E+03  0.12500000000E+03 0.  0.
        -13    1    3    3    0    0 -0.24209972538E+02 -0.98440832742E+01  0.24033057089E+02  0.35505319924E+02  0.10566000000E+00 0.  1.
         23    2    1    0    0    0  0.23762281909E+02  0.15681038920E+02 -0.33117430166E+01  0.96338027546E+02  0.91975577663E+02 0.  0.
         13    1    3    3    0    0  0.47972254447E+02  0.25525122194E+02 -0.27344800106E+02  0.60832707622E+02  0.10566000000E+00 0. -1.
         22    1    1    0    0    0 -0.23762281909E+02 -0.15681038920E+02  0.33117430166E+01  0.28661972454E+02  0.00000000000E+00 0. -1.
</event>
<event>
 5    1  0.1766634E-003  0.9118800E+02  0.7818608E-02  0.1130116E+00
         25   -1    0    0    0    0  0.00000000000E+00  0.00000000000E+00  0.99999998245E-14  0.12500000000E+03  0.12500000000E+03 0.  0.
        -13    1    3    3    0    0  0.26445731780E+02 -0.34564530032E+02  0.13024873818E+02  0.45428426869E+02  0.10566000000E+00 0. -1.
         23    2    1    0    0    0 -0.16146576723E+02 -0.19679419964E+02 -0.11818575010E+02  0.96934536788E+02  0.92782725747E+02 0.  0.
         13    1    3    3    0    0 -0.42592308503E+02  0.14885110068E+02 -0.24843448828E+02  0.51506109920E+02  0.10566000000E+00 0.  1.
         22    1    1    0    0    0  0.16146576723E+02  0.19679419964E+02  0.11818575010E+02  0.28065463212E+02  0.00000000000E+00 0.  1.
</event>
<event>
 5    1  0.1766634E-003  0.9118800E+02  0.7818608E-02  0.1130116E+00
         25   -1    0    0    0    0  0.00000000000E+00  0.00000000000E+00  0.99999998245E-14  0.12500000000E+03  0.12500000000E+03 0.  0.
        -13    1    3    3    0    0 -0.24685738181E+02 -0.24774270799E+02 -0.13800458141E+02  0.37598058089E+02  0.10566000000E+00 0. -1.
         23    2    1    0    0    0 -0.98435951500E+01  0.23964599718E+02  0.13909400177E+02  0.95594731451E+02  0.90959787065E+02 0.  0.
         13    1    3    3    0    0  0.14842143031E+02  0.48738870517E+02  0.27709858318E+02  0.57996673362E+02  0.10566000000E+00 0.  1.
         22    1    1    0    0    0  0.98435951500E+01 -0.23964599718E+02 -0.13909400177E+02  0.29405268549E+02  0.00000000000E+00 0.  1.
</event>
<event>
 5    1  0.1766634E-003  0.9118800E+02  0.7818608E-02  0.1130116E+00
         25   -1    0    0    0    0  0.00000000000E+00  0.00000000000E+00  0.99999998245E-14  0.12500000000E+03  0.12500000000E+03 0.  0.
        -13    1    3    3    0    0 -0.39953341682E+02  0.21536578437E+02 -0.30333539736E+02  0.54591469290E+02  0.10566000000E+00 0. -1.
         23    2    1    0    0    0 -0.12298523896E+02  0.24888497945E+02  0.18745478620E+01  0.97175461375E+02  0.93106741667E+02 0.  0.
         13    1    3    3    0    0  0.27654817785E+02  0.33519195077E+01  0.32208087598E+02  0.42583992085E+02  0.10566000000E+00 0.  1.
         22    1    1    0    0    0  0.12298523896E+02 -0.24888497945E+02 -0.18745478620E+01  0.27824538625E+02  0.00000000000E+00 0. -1.
</event>
<event>
 5    1  0.1766634E-003  0.9118800E+02  0.7818608E-02  0.1130116E+00
         25   -1    0    0    0    0  0.00000000000E+00  0.00000000000E+00  0.99999998245E-14  0.12500000000E+03  0.12500000000E+03 0.  0.
        -13    1    3    3    0    0 -0.25485826019E+02 -0.31422786218E+01  0.24101637950E+02  0.35217912470E+02  0.10566000000E+00 0.  1.
         23    2    1    0    0    0  0.21034803590E+02  0.89717083514E+01 -0.15393359206E+02  0.97433534495E+02  0.93452574195E+02 0.  0.
         13    1    3    3    0    0  0.46520629609E+02  0.12113986973E+02 -0.39494997156E+02  0.62215622025E+02  0.10566000000E+00 0. -1.
         22    1    1    0    0    0 -0.21034803590E+02 -0.89717083514E+01  0.15393359206E+02  0.27566465505E+02  0.00000000000E+00 0. -1.
</event>
<event>
 5    1  0.1766634E-003  0.9118800E+02  0.7818608E-02  0.1130116E+00
         25   -1    0    0    0    0  0.00000000000E+00  0.00000000000E+00  0.99999998245E-14  0.12500000000E+03  0.12500000000E+03 0.  0.
        -13    1    3    3    0    0  0.21635311177E+02 -0.26914254374E+02 -0.45320180338E+01  0.34828352383E+02  0.10566000000E+00 0.  1.
         23    2    1    0    0    0 -0.28005427699E+02  0.82556225835E+01 -0.24411400668E+01  0.95701221020E+02  0.91106011081E+02 0.  0.
         13    1    3    3    0    0 -0.49640738876E+02  0.35169876958E+02  0.20908779669E+01  0.60872868637E+02  0.10566000000E+00 0. -1.
         22    1    1    0    0    0  0.28005427699E+02 -0.82556225835E+01  0.24411400668E+01  0.29298778980E+02  0.00000000000E+00 0. -1.
</event>
<event>
 5    1  0.1766634E-003  0.9118800E+02  0.7818608E-02  0.1130116E+00
         25   -1    0    0    0    0  0.00000000000E+00  0.00000000000E+00  0.99999998245E-14  0.12500000000E+03  0.12500000000E+03 0.  0.
        -13    1    3    3    0    0 -0.70151911615E+01 -0.31682087666E+02 -0.68831113413E+01  0.33171613944E+02  0.10566000000E+00 0. -1.
         23    2    1    0    0    0  0.15928234047E+02  0.20807298180E+02  0.15363131085E+02  0.94624383230E+02  0.89616381357E+02 0.  0.
         13    1    3    3    0    0  0.22943425209E+02  0.52489385846E+02  0.22246242427E+02  0.61452769286E+02  0.10566000000E+00 0.  1.
         22    1    1    0    0    0 -0.15928234047E+02 -0.20807298180E+02 -0.15363131085E+02  0.30375616770E+02  0.00000000000E+00 0.  1.
</event>
<event>
 5    1  0.1766634E-003  0.9118800E+02  0.7818608E-02  0.1130116E+00
         25   -1    0    0    0    0  0.00000000000E+00  0.00000000000E+00  0.99999998245E-14  0.12500000000E+03  0.12500000000E+03 0.  0.
        -13    1    3    3    0    0 -0.11571718854E+01  0.27516302050E+02 -0.54704399120E+02  0.61245966172E+02  0.10566000000E+00 0.  1.
         23    2    1    0    0    0  0.33852697367E+01  0.53198967886E+01 -0.28149858320E+02  0.96152541248E+02  0.91723144909E+02 0.  0.
         13    1    3    3    0    0  0.45424416221E+01 -0.22196405261E+02  0.26554540800E+02  0.34906575076E+02  0.10566000000E+00 0. -1.
         22    1    1    0    0    0 -0.33852697367E+01 -0.53198967886E+01  0.28149858320E+02  0.28847458752E+02  0.00000000000E+00 0.  1.
</event>
<event>
 5    1  0.1766634E-003  0.9118800E+02  0.7818608E-02  0.1130116E+00
         25   -1    0    0    0    0  0.00000000000E+00  0.00000000000E+00  0.99999998245E-14  0.12500000000E+03  0.12500000000E+03 0.  0.
        -13    1    3    3    0    0 -0.14794624743E+02 -0.47594874949E+01  0.54734646199E+02  0.56898385751E+02  0.10566000000E+00 0.  1.
         23    2    1    0    0    0 -0.18848127619E+02  0.50502707387E+00  0.73237788337E+01  0.10477267434E+03  0.10280159816E+03 0.  0.
         13    1    3    3    0    0 -0.40535028753E+01  0.52645145687E+01 -0.47410867365E+02  0.47874288586E+02  0.10566000000E+00 0. -1.
         22    1    1    0    0    0  0.18848127619E+02 -0.50502707387E+00 -0.73237788337E+01  0.20227325663E+02  0.00000000000E+00 0.  1.
</event>
<event>
 5    1  0.1766634E-003  0.9118800E+02  0.7818608E-02  0.1130116E+00
         25   -1    0    0    0    0  0.00000000000E+00  0.00000000000E+00  0.99999998245E-14  0.12500000000E+03  0.12500000000E+03 0.  0.
        -13    1    3    3    0    0 -0.11324896545E+02  0.32091319338E+02 -0.28930657636E+02  0.44666544235E+02  0.10566000000E+00 0. -1.
         23    2    1    0    0    0  0.26400511738E+02  0.13244167039E+02 -0.62439455704E+00  0.95457067695E+02  0.90770407754E+02 0.  0.
         13    1    3    3    0    0  0.37725408283E+02 -0.18847152299E+02  0.28306263079E+02  0.50790523461E+02  0.10566000000E+00 0.  1.
         22    1    1    0    0    0 -0.26400511738E+02 -0.13244167039E+02  0.62439455704E+00  0.29542932305E+02  0.00000000000E+00 0. -1.
</event>
<event>
 5    1  0.1766634E-003  0.9118800E+02  0.7818608E-02  0.1130116E+00
         25   -1    0    0    0    0  0.00000000000E+00  0.00000000000E+00  0.99999998245E-14  0.12500000000E+03  0.12500000000E+03 0.  0.
        -13    1    3    3    0    0  0.28190055056E+02 -0.21276417533E+02  0.33837317502E+02  0.48911556578E+02  0.10566000000E+00 0. -1.
         23    2    1    0    0    0  0.10042889087E+01 -0.29440527143E+02 -0.29702016338E+01  0.95392985081E+02  0.90682116596E+02 0.  0.
         13    1    3    3    0    0 -0.27185766147E+02 -0.81641096095E+01 -0.36807519136E+02  0.46481428503E+02  0.10566000000E+00 0.  1.
         22    1    1    0    0    0 -0.10042889087E+01  0.29440527143E+02  0.29702016338E+01  0.29607014919E+02  0.00000000000E+00 0.  1.
</event>
<event>
 5    1  0.1766634E-003  0.9118800E+02  0.7818608E-02  0.1130116E+00
         25   -1    0    0    0    0  0.00000000000E+00  0.00000000000E+00  0.99999998245E-14  0.12500000000E+03  0.12500000000E+03 0.  0.
        -13    1    3    3    0    0 -0.12500404468E+02  0.53071049000E+02 -0.15241567349E+02  0.56613716475E+02  0.10566000000E+00 0.  1.
         23    2    1    0    0    0 -0.14619270542E+02  0.14024078299E+02 -0.20628404500E+02  0.96087564690E+02  0.91634552285E+02 0.  0.
         13    1    3    3    0    0 -0.21188660739E+01 -0.39046970701E+02 -0.53868371513E+01  0.39473848215E+02  0.10566000000E+00 0. -1.
         22    1    1    0    0    0  0.14619270542E+02 -0.14024078299E+02  0.20628404500E+02  0.28912435310E+02  0.00000000000E+00 0.  1.
</event>
<event>
 5    1  0.1766634E-003  0.9118800E+02  0.7818608E-02  0.1130116E+00
         25   -1    0    0    0    0  0.00000000000E+00  0.00000000000E+00  0.99999998245E-14  0.12500000000E+03  0.12500000000E+03 0.  0.
        -13    1    3    3    0    0  0.89739376292E+01 -0.98233195275E+01 -0.31808111204E+02  0.34478924948E+02  0.10566000000E+00 0.  1.
         23    2    1    0    0    0 -0.21219631168E+02  0.44853341432E+01  0.19584161224E+02  0.95777913487E+02  0.91211174600E+02 0.  0.
         13    1    3    3    0    0 -0.30193568798E+02  0.14308653671E+02  0.51392272429E+02  0.61298988540E+02  0.10566000000E+00 0. -1.
         22    1    1    0    0    0  0.21219631168E+02 -0.44853341432E+01 -0.19584161224E+02  0.29222086513E+02  0.00000000000E+00 0. -1.
</event>
<event>
 5    1  0.1766634E-003  0.9118800E+02  0.7818608E-02  0.1130116E+00
         25   -1    0    0    0    0  0.00000000000E+00  0.00000000000E+00  0.99999998245E-14  0.12500000000E+03  0.12500000000E+03 0.  0.
        -13    1    3    3    0    0 -0.92547784060E+01  0.47352839351E+02  0.35184601941E+02  0.59715238388E+02  0.10566000000E+00 0.  1.
         23    2    1    0    0    0 -0.24975711082E+00  0.27772909320E+02  0.50387342555E+01  0.96772607035E+02  0.92564311475E+02 0.  0.
         13    1    3    3    0    0  0.90050212951E+01 -0.19579930031E+02 -0.30145867685E+02  0.37057368648E+02  0.10566000000E+00 0. -1.
         22    1    1    0    0    0  0.24975711082E+00 -0.27772909320E+02 -0.50387342555E+01  0.28227392965E+02  0.00000000000E+00 0.  1.
</event>
<event>
 5    1  0.1766634E-003  0.9118800E+02  0.7818608E-02  0.1130116E+00
         25   -1    0    0    0    0  0.00000000000E+00  0.00000000000E+00  0.99999998245E-14  0.12500000000E+03  0.12500000000E+03 0.  0.
        -13    1    3    3    0    0  0.26126141643E+02 -0.87311484095E+01  0.42231033524E+02  0.50421023256E+02  0.10566000000E+00 0.  1.
         23    2    1    0    0    0  0.27949172076E+02 -0.94108150284E+01 -0.26920792092E+01  0.95386372230E+02  0.90673000709E+02 0.  0.
         13    1    3    3    0    0  0.18230304330E+01 -0.67966661889E+00 -0.44923112733E+02  0.44965348974E+02  0.10566000000E+00 0. -1.
         22    1    1    0    0    0 -0.27949172076E+02  0.94108150284E+01  0.26920792092E+01  0.29613627770E+02  0.00000000000E+00 0.  1.
</event>
<event>
 4    1  0.1766634E-003  0.9118800E+02  0.7818608E-02  0.1130116E+00
         25   -1    0    0    0    0  0.00000000000E+00  0.00000000000E+00  0.99999998245E-14  0.12500000000E+03  0.12500000000E+03 0.  0.
        -13    1    1    0    0    0 -0.14716173449E+02  0.36983701697E+01 -0.60114267518E+01  0.16321523168E+02  0.10566000000E+00 0. -1.
         13    1    1    0    0    0  0.13497082324E+02 -0.27328894322E+02 -0.43898999498E+02  0.53443175590E+02  0.10566000000E+00 0.  1.
         22    1    1    0    0    0  0.12190911251E+01  0.23630524153E+02  0.49910426250E+02  0.55235301243E+02  0.00000000000E+00 0.  1.
</event>
<event>
 5    1  0.1766634E-003  0.9118800E+02  0.7818608E-02  0.1130116E+00
         25   -1    0    0    0    0  0.00000000000E+00  0.00000000000E+00  0.99999998245E-14  0.12500000000E+03  0.12500000000E+03 0.  0.
        -13    1    3    3    0    0  0.19693945271E+02  0.58193898914E+02 -0.62990118466E+01  0.61758157885E+02  0.10566000000E+00 0.  1.
         23    2    1    0    0    0  0.14070277130E+02  0.26019675966E+02  0.16499604149E+01  0.95373683907E+02  0.90655507151E+02 0.  0.
         13    1    3    3    0    0 -0.56236681411E+01 -0.32174222948E+02  0.79489722614E+01  0.33615526022E+02  0.10566000000E+00 0. -1.
         22    1    1    0    0    0 -0.14070277130E+02 -0.26019675966E+02 -0.16499604149E+01  0.29626316093E+02  0.00000000000E+00 0.  1.
</event>
<event>
 5    1  0.1766634E-003  0.9118800E+02  0.7818608E-02  0.1130116E+00
         25   -1    0    0    0    0  0.00000000000E+00  0.00000000000E+00  0.99999998245E-14  0.12500000000E+03  0.12500000000E+03 0.  0.
        -13    1    3    3    0    0  0.38066952074E+02 -0.19197479165E+02  0.26150670469E+02  0.50015045501E+02  0.10566000000E+00 0. -1.
         23    2    1    0    0    0  0.13249197267E+02 -0.23183662301E+02 -0.12018520873E+02  0.95717440859E+02  0.91128262436E+02 0.  0.
         13    1    3    3    0    0 -0.24817754807E+02 -0.39861831361E+01 -0.38169191342E+02  0.45702395357E+02  0.10566000000E+00 0.  1.
         22    1    1    0    0    0 -0.13249197267E+02  0.23183662301E+02  0.12018520873E+02  0.29282559141E+02  0.00000000000E+00 0. -1.
</event>
<event>
 5    1  0.1766634E-003  0.9118800E+02  0.7818608E-02  0.1130116E+00
         25   -1    0    0    0    0  0.00000000000E+00  0.00000000000E+00  0.99999998245E-14  0.12500000000E+03  0.12500000000E+03 0.  0.
        -13    1    3    3    0    0  0.49911733128E+02 -0.51453130834E+01  0.12689850113E+02  0.51756147562E+02  0.10566000000E+00 0. -1.
         23    2    1    0    0    0  0.26515200127E+02  0.73702578449E+01 -0.17838372429E+02  0.92203901613E+02  0.86174099376E+02 0.  0.
         13    1    3    3    0    0 -0.23396533001E+02  0.12515570928E+02 -0.30528222542E+02  0.40447754051E+02  0.10566000000E+00 0.  1.
         22    1    1    0    0    0 -0.26515200127E+02 -0.73702578449E+01  0.17838372429E+02  0.32796098387E+02  0.00000000000E+00 0. -1.
</event>
<event>
 5    1  0.1766634E-003  0.9118800E+02  0.7818608E-02  0.1130116E+00
         25   -1    0    0    0    0  0.00000000000E+00  0.00000000000E+00  0.99999998245E-14  0.12500000000E+03  0.12500000000E+03 0.  0.
        -13    1    3    3    0    0 -0.16066026323E+02 -0.26490901129E+02  0.32780887928E+02  0.45105241622E+02  0.10566000000E+00 0.  1.
         23    2    1    0    0    0 -0.19666831279E+02  0.17870191945E+02  0.39488799898E+01  0.98135122076E+02  0.94386336505E+02 0.  0.
         13    1    3    3    0    0 -0.36008049556E+01  0.44361093075E+02 -0.28832007938E+02  0.53029880453E+02  0.10566000000E+00 0. -1.
         22    1    1    0    0    0  0.19666831279E+02 -0.17870191945E+02 -0.39488799898E+01  0.26864877924E+02  0.00000000000E+00 0. -1.
</event>
<event>
 5    1  0.1766634E-003  0.9118800E+02  0.7818608E-02  0.1130116E+00
         25   -1    0    0    0    0  0.00000000000E+00  0.00000000000E+00  0.99999998245E-14  0.12500000000E+03  0.12500000000E+03 0.  0.
        -13    1    3    3    0    0  0.20951812815E+02  0.25972230362E+02  0.23641587154E+02  0.40895855749E+02  0.10566000000E+00 0.  1.
         23    2    1    0    0    0 -0.27284944948E+02  0.93002227480E+01  0.14453338479E+02  0.92753118645E+02  0.86967118275E+02 0.  0.
         13    1    3    3    0    0 -0.48236757762E+02 -0.16672007614E+02 -0.91882486755E+01  0.51857262896E+02  0.10566000000E+00 0. -1.
         22    1    1    0    0    0  0.27284944948E+02 -0.93002227480E+01 -0.14453338479E+02  0.32246881355E+02  0.00000000000E+00 0. -1.
</event>
<event>
 5    1  0.1766634E-003  0.9118800E+02  0.7818608E-02  0.1130116E+00
         25   -1    0    0    0    0  0.00000000000E+00  0.00000000000E+00  0.99999998245E-14  0.12500000000E+03  0.12500000000E+03 0.  0.
        -13    1    3    3    0    0 -0.14005761397E+02  0.37377883193E+02 -0.20005855942E+02  0.44648773111E+02  0.10566000000E+00 0.  1.
         23    2    1    0    0    0 -0.27768887132E+02 -0.13005350783E+01  0.99538289284E+01  0.95472365581E+02  0.90791472041E+02 0.  0.
         13    1    3    3    0    0 -0.13763125735E+02 -0.38678418272E+02  0.29959684871E+02  0.50823592470E+02  0.10566000000E+00 0. -1.
         22    1    1    0    0    0  0.27768887132E+02  0.13005350783E+01 -0.99538289284E+01  0.29527634419E+02  0.00000000000E+00 0. -1.
</event>
<event>
 5    1  0.1766634E-003  0.9118800E+02  0.7818608E-02  0.1130116E+00
         25   -1    0    0    0    0  0.00000000000E+00  0.00000000000E+00  0.99999998245E-14  0.12500000000E+03  0.12500000000E+03 0.  0.
        -13    1    3    3    0    0 -0.34789534452E+02 -0.42205808145E+02 -0.93833330517E+01  0.55495045290E+02  0.10566000000E+00 0. -1.
         23    2    1    0    0    0 -0.18045673169E+02 -0.70015917121E+01 -0.21260873300E+02  0.96247724610E+02  0.91852768888E+02 0.  0.
         13    1    3    3    0    0  0.16743861283E+02  0.35204216433E+02 -0.11877540249E+02  0.40752679320E+02  0.10566000000E+00 0.  1.
         22    1    1    0    0    0  0.18045673169E+02  0.70015917121E+01  0.21260873300E+02  0.28752275390E+02  0.00000000000E+00 0. -1.
</event>
<event>
 5    1  0.1766634E-003  0.9118800E+02  0.7818608E-02  0.1130116E+00
         25   -1    0    0    0    0  0.00000000000E+00  0.00000000000E+00  0.99999998245E-14  0.12500000000E+03  0.12500000000E+03 0.  0.
        -13    1    3    3    0    0  0.44879043360E+02 -0.33482864684E+02  0.13329041801E+02  0.57557842904E+02  0.10566000000E+00 0.  1.
         23    2    1    0    0    0  0.24654651270E+02 -0.14387607852E+02 -0.10898408097E+02  0.94444634055E+02  0.89365309342E+02 0.  0.
         13    1    3    3    0    0 -0.20224392090E+02  0.19095256832E+02 -0.24227449897E+02  0.36886791151E+02  0.10566000000E+00 0. -1.
         22    1    1    0    0    0 -0.24654651270E+02  0.14387607852E+02  0.10898408097E+02  0.30555365945E+02  0.00000000000E+00 0.  1.
</event>
<event>
 5    1  0.1766634E-003  0.9118800E+02  0.7818608E-02  0.1130116E+00
         25   -1    0    0    0    0  0.00000000000E+00  0.00000000000E+00  0.99999998245E-14  0.12500000000E+03  0.12500000000E+03 0.  0.
        -13    1    3    3    0    0 -0.27673724090E+02 -0.36089292653E+02 -0.37198210130E+02  0.58753638611E+02  0.10566000000E+00 0.  1.
         23    2    1    0    0    0 -0.10182060288E+02 -0.26794793156E+02 -0.59909805331E+01  0.95716435673E+02  0.91126883619E+02 0.  0.
         13    1    3    3    0    0  0.17491663801E+02  0.92944994975E+01  0.31207229597E+02  0.36962797061E+02  0.10566000000E+00 0. -1.
         22    1    1    0    0    0  0.10182060288E+02  0.26794793156E+02  0.59909805331E+01  0.29283564327E+02  0.00000000000E+00 0.  1.
</event>
<event>
 5    1  0.1766634E-003  0.9118800E+02  0.7818608E-02  0.1130116E+00
         25   -1    0    0    0    0  0.00000000000E+00  0.00000000000E+00  0.99999998245E-14  0.12500000000E+03  0.12500000000E+03 0.  0.
        -13    1    3    3    0    0  0.23466779712E+02  0.29657143148E+02  0.77001020568E+01  0.38594541395E+02  0.10566000000E+00 0.  1.
         23    2    1    0    0    0 -0.18526875567E+02 -0.12833885283E+00  0.25860114660E+02  0.93187940662E+02  0.87589869080E+02 0.  0.
         13    1    3    3    0    0 -0.41993655279E+02 -0.29785482001E+02  0.18160012603E+02  0.54593399267E+02  0.10566000000E+00 0. -1.
         22    1    1    0    0    0  0.18526875567E+02  0.12833885283E+00 -0.25860114660E+02  0.31812059338E+02  0.00000000000E+00 0. -1.
</event>
<event>
 5    1  0.1766634E-003  0.9118800E+02  0.7818608E-02  0.1130116E+00
         25   -1    0    0    0    0  0.00000000000E+00  0.00000000000E+00  0.99999998245E-14  0.12500000000E+03  0.12500000000E+03 0.  0.
        -13    1    3    3    0    0 -0.59939130360E+00 -0.31115864805E+02 -0.50131062196E+02  0.59005854569E+02  0.10566000000E+00 0.  1.
         23    2    1    0    0    0 -0.82755711569E+01 -0.23956093590E+02 -0.15276526866E+02  0.95406896561E+02  0.90701290730E+02 0.  0.
         13    1    3    3    0    0 -0.76761798533E+01  0.71597712148E+01  0.34854535330E+02  0.36401041992E+02  0.10566000000E+00 0. -1.
         22    1    1    0    0    0  0.82755711569E+01  0.23956093590E+02  0.15276526866E+02  0.29593103439E+02  0.00000000000E+00 0.  1.
</event>
<event>
 5    1  0.1766634E-003  0.9118800E+02  0.7818608E-02  0.1130116E+00
         25   -1    0    0    0    0  0.00000000000E+00  0.00000000000E+00  0.99999998245E-14  0.12500000000E+03  0.12500000000E+03 0.  0.
        -13    1    3    3    0    0 -0.87634888758E+01 -0.46643054606E+02  0.54876575600E+01  0.47775504495E+02  0.10566000000E+00 0.  1.
         23    2    1    0    0    0  0.19127891561E+02 -0.35998633150E+02 -0.12166114164E+02  0.82458347962E+02  0.70637008646E+02 0.  0.
         13    1    3    3    0    0  0.27891380437E+02  0.10644421456E+02 -0.17653771724E+02  0.34682843467E+02  0.10566000000E+00 0. -1.
         22    1    1    0    0    0 -0.19127891561E+02  0.35998633150E+02  0.12166114164E+02  0.42541652038E+02  0.00000000000E+00 0.  1.
</event>
<event>
 5    1  0.1766634E-003  0.9118800E+02  0.7818608E-02  0.1130116E+00
         25   -1    0    0    0    0  0.00000000000E+00  0.00000000000E+00  0.99999998245E-14  0.12500000000E+03  0.12500000000E+03 0.  0.
        -13    1    3    3    0    0 -0.63424680244E+00  0.14272816302E+02  0.43866179512E+02  0.46134243499E+02  0.10566000000E+00 0. -1.
         23    2    1    0    0    0 -0.26057767480E+02  0.66328147370E+01 -0.80622294462E+00  0.98099229141E+02  0.94338789929E+02 0.  0.
         13    1    3    3    0    0 -0.25423520678E+02 -0.76400015653E+01 -0.44672402456E+02  0.51964985642E+02  0.10566000000E+00 0.  1.
         22    1    1    0    0    0  0.26057767480E+02 -0.66328147370E+01  0.80622294462E+00  0.26900770859E+02  0.00000000000E+00 0.  1.
</event>
<event>
 5    1  0.1766634E-003  0.9118800E+02  0.7818608E-02  0.1130116E+00
         25   -1    0    0    0    0  0.00000000000E+00  0.00000000000E+00  0.99999998245E-14  0.12500000000E+03  0.12500000000E+03 0.  0.
        -13    1    3    3    0    0  0.35975636202E+02  0.10995037538E+02 -0.11576750215E+02  0.39359491361E+02  0.10566000000E+00 0.  1.
         23    2    1    0    0    0 -0.55634513932E+01 -0.26675815039E+02 -0.11465563835E+02  0.95436335589E+02  0.90741853062E+02 0.  0.
         13    1    3    3    0    0 -0.41539087595E+02 -0.37670852577E+02  0.11118637997E+00  0.56076844228E+02  0.10566000000E+00 0. -1.
         22    1    1    0    0    0  0.55634513932E+01  0.26675815039E+02  0.11465563835E+02  0.29563664411E+02  0.00000000000E+00 0. -1.
</event>
<event>
 5    1  0.1766634E-003  0.9118800E+02  0.7818608E-02  0.1130116E+00
         25   -1    0    0    0    0  0.00000000000E+00  0.00000000000E+00  0.99999998245E-14  0.12500000000E+03  0.12500000000E+03 0.  0.
        -13    1    3    3    0    0 -0.13655356014E+02  0.30077649378E+02  0.41249704459E+02  0.52845842050E+02  0.10566000000E+00 0. -1.
         23    2    1    0    0    0 -0.24669702108E+02 -0.25132033825E+01  0.17494709523E+02  0.94652425885E+02  0.89655487681E+02 0.  0.
         13    1    3    3    0    0 -0.11014346094E+02 -0.32590852761E+02 -0.23754994936E+02  0.41806583835E+02  0.10566000000E+00 0.  1.
         22    1    1    0    0    0  0.24669702108E+02  0.25132033825E+01 -0.17494709523E+02  0.30347574115E+02  0.00000000000E+00 0. -1.
</event>
<event>
 5    1  0.1766634E-003  0.9118800E+02  0.7818608E-02  0.1130116E+00
         25   -1    0    0    0    0  0.00000000000E+00  0.00000000000E+00  0.99999998245E-14  0.12500000000E+03  0.12500000000E+03 0.  0.
        -13    1    3    3    0    0 -0.57308993685E+01 -0.32740641115E+02 -0.13852896370E+02  0.36009813802E+02  0.10566000000E+00 0.  1.
         23    2    1    0    0    0  0.18975116990E+02  0.11912399007E+02  0.18080691858E+02  0.96209867437E+02  0.91801235609E+02 0.  0.
         13    1    3    3    0    0  0.24706016359E+02  0.44653040122E+02  0.31933588228E+02  0.60200053635E+02  0.10566000000E+00 0. -1.
         22    1    1    0    0    0 -0.18975116990E+02 -0.11912399007E+02 -0.18080691858E+02  0.28790132563E+02  0.00000000000E+00 0. -1.
</event>
<event>
 5    1  0.1766634E-003  0.9118800E+02  0.7818608E-02  0.1130116E+00
         25   -1    0    0    0    0  0.00000000000E+00  0.00000000000E+00  0.99999998245E-14  0.12500000000E+03  0.12500000000E+03 0.  0.
        -13    1    3    3    0    0  0.23782842358E+02  0.19932365454E+02 -0.31643280964E+02  0.44319647758E+02  0.10566000000E+00 0.  1.
         23    2    1    0    0    0 -0.22339602714E+02  0.55925378367E+01 -0.21119419068E+02  0.93753173111E+02  0.88392834991E+02 0.  0.
         13    1    3    3    0    0 -0.46122445072E+02 -0.14339827618E+02  0.10523861896E+02  0.49433525352E+02  0.10566000000E+00 0. -1.
         22    1    1    0    0    0  0.22339602714E+02 -0.55925378367E+01  0.21119419068E+02  0.31246826889E+02  0.00000000000E+00 0.  1.
</event>
<event>
 5    1  0.1766634E-003  0.9118800E+02  0.7818608E-02  0.1130116E+00
         25   -1    0    0    0    0  0.00000000000E+00  0.00000000000E+00  0.99999998245E-14  0.12500000000E+03  0.12500000000E+03 0.  0.
        -13    1    3    3    0    0 -0.30149930273E+01  0.14852127139E+02  0.44685585952E+02  0.47185682356E+02  0.10566000000E+00 0.  1.
         23    2    1    0    0    0 -0.21048395439E+02 -0.16069184566E+02  0.27251375707E+02  0.87001432644E+02  0.78264667386E+02 0.  0.
         13    1    3    3    0    0 -0.18033402412E+02 -0.30921311705E+02 -0.17434210245E+02  0.39815750288E+02  0.10566000000E+00 0. -1.
         22    1    1    0    0    0  0.21048395439E+02  0.16069184566E+02 -0.27251375707E+02  0.37998567356E+02  0.00000000000E+00 0.  1.
</event>
<event>
 5    1  0.1766634E-003  0.9118800E+02  0.7818608E-02  0.1130116E+00
         25   -1    0    0    0    0  0.00000000000E+00  0.00000000000E+00  0.99999998245E-14  0.12500000000E+03  0.12500000000E+03 0.  0.
        -13    1    3    3    0    0 -0.15994207782E+01  0.42857559068E+02  0.24137470025E+02  0.49213383742E+02  0.10566000000E+00 0.  1.
         23    2    1    0    0    0 -0.27345560352E+02  0.12443121743E+02  0.17838752857E+01  0.94903602197E+02  0.90005002912E+02 0.  0.
         13    1    3    3    0    0 -0.25746139574E+02 -0.30414437325E+02 -0.22353594739E+02  0.45690218455E+02  0.10566000000E+00 0. -1.
         22    1    1    0    0    0  0.27345560352E+02 -0.12443121743E+02 -0.17838752857E+01  0.30096397803E+02  0.00000000000E+00 0. -1.
</event>
<event>
 5    1  0.1766634E-003  0.9118800E+02  0.7818608E-02  0.1130116E+00
         25   -1    0    0    0    0  0.00000000000E+00  0.00000000000E+00  0.99999998245E-14  0.12500000000E+03  0.12500000000E+03 0.  0.
        -13    1    3    3    0    0  0.19103766759E+02  0.10774508398E+02 -0.56286377376E+02  0.60408702831E+02  0.10566000000E+00 0. -1.
         23    2    1    0    0    0 -0.19930429342E+01  0.31572449640E+01 -0.29135213204E+02  0.95626524476E+02  0.91003467621E+02 0.  0.
         13    1    3    3    0    0 -0.21096809693E+02 -0.76172634337E+01  0.27151164172E+02  0.35217821645E+02  0.10566000000E+00 0.  1.
         22    1    1    0    0    0  0.19930429342E+01 -0.31572449640E+01  0.29135213204E+02  0.29373475524E+02  0.00000000000E+00 0. -1.
</event>
<event>
 5    1  0.1766634E-003  0.9118800E+02  0.7818608E-02  0.1130116E+00
         25   -1    0    0    0    0  0.00000000000E+00  0.00000000000E+00  0.99999998245E-14  0.12500000000E+03  0.12500000000E+03 0.  0.
        -13    1    3    3    0    0  0.16143300585E+02 -0.24632259721E+02  0.27895163640E+02  0.40564833184E+02  0.10566000000E+00 0. -1.
         23    2    1    0    0    0  0.20777208345E+02 -0.10459475450E+00 -0.20997049685E+02  0.95460544653E+02  0.90775195749E+02 0.  0.
         13    1    3    3    0    0  0.46339077603E+01  0.24527664967E+02 -0.48892213325E+02  0.54895711469E+02  0.10566000000E+00 0.  1.
         22    1    1    0    0    0 -0.20777208345E+02  0.10459475450E+00  0.20997049685E+02  0.29539455347E+02  0.00000000000E+00 0.  1.
</event>
<event>
 5    1  0.1766634E-003  0.9118800E+02  0.7818608E-02  0.1130116E+00
         25   -1    0    0    0    0  0.00000000000E+00  0.00000000000E+00  0.99999998245E-14  0.12500000000E+03  0.12500000000E+03 0.  0.
        -13    1    3    3    0    0 -0.33845773634E+02 -0.33283992448E+01 -0.50608212933E+02  0.60973904375E+02  0.10566000000E+00 0.  1.
         23    2    1    0    0    0 -0.16551032801E+02 -0.11165859853E+02 -0.22209836598E+02  0.95135473304E+02  0.90326454188E+02 0.  0.
         13    1    3    3    0    0  0.17294740833E+02 -0.78374606077E+01  0.28398376335E+02  0.34161568930E+02  0.10566000000E+00 0. -1.
         22    1    1    0    0    0  0.16551032801E+02  0.11165859853E+02  0.22209836598E+02  0.29864526696E+02  0.00000000000E+00 0.  1.
</event>
<event>
 5    1  0.1766634E-003  0.9118800E+02  0.7818608E-02  0.1130116E+00
         25   -1    0    0    0    0  0.00000000000E+00  0.00000000000E+00  0.99999998245E-14  0.12500000000E+03  0.12500000000E+03 0.  0.
        -13    1    3    3    0    0 -0.10147424268E+02  0.23870578032E+02 -0.22307541250E+02  0.34211288715E+02  0.10566000000E+00 0. -1.
         23    2    1    0    0    0  0.53547675390E+01 -0.30348023528E+02 -0.21083534658E+01  0.94111147289E+02  0.88897619890E+02 0.  0.
         13    1    3    3    0    0  0.15502191807E+02 -0.54218601561E+02  0.20199187784E+02  0.59899858574E+02  0.10566000000E+00 0.  1.
         22    1    1    0    0    0 -0.53547675390E+01  0.30348023528E+02  0.21083534658E+01  0.30888852711E+02  0.00000000000E+00 0.  1.
</event>
<event>
 5    1  0.1766634E-003  0.9118800E+02  0.7818608E-02  0.1130116E+00
         25   -1    0    0    0    0  0.00000000000E+00  0.00000000000E+00  0.99999998245E-14  0.12500000000E+03  0.12500000000E+03 0.  0.
        -13    1    3    3    0    0  0.28511725445E+01  0.25310140562E+02  0.41037799133E+02  0.48299529210E+02  0.10566000000E+00 0. -1.
         23    2    1    0    0    0 -0.17710907407E+02  0.23199881263E+02 -0.16890116364E+01  0.95763661445E+02  0.91191640852E+02 0.  0.
         13    1    3    3    0    0 -0.20562079952E+02 -0.21102592998E+01 -0.42726810769E+02  0.47464132235E+02  0.10566000000E+00 0.  1.
         22    1    1    0    0    0  0.17710907407E+02 -0.23199881263E+02  0.16890116364E+01  0.29236338555E+02  0.00000000000E+00 0.  1.
</event>
<event>
 5    1  0.1766634E-003  0.9118800E+02  0.7818608E-02  0.1130116E+00
         25   -1    0    0    0    0  0.00000000000E+00  0.00000000000E+00  0.99999998245E-14  0.12500000000E+03  0.12500000000E+03 0.  0.
        -13    1    3    3    0    0 -0.28012830254E+02 -0.66645310660E+01 -0.23926332212E+02  0.37438151268E+02  0.10566000000E+00 0.  1.
         23    2    1    0    0    0  0.17133667684E+02 -0.19406347346E+02  0.11942782135E+02  0.96490371263E+02  0.92182388858E+02 0.  0.
         13    1    3    3    0    0  0.45146497939E+02 -0.12741816279E+02  0.35869114347E+02  0.59052219995E+02  0.10566000000E+00 0. -1.
         22    1    1    0    0    0 -0.17133667684E+02  0.19406347346E+02 -0.11942782135E+02  0.28509628737E+02  0.00000000000E+00 0. -1.
</event>
<event>
 5    1  0.1766634E-003  0.9118800E+02  0.7818608E-02  0.1130116E+00
         25   -1    0    0    0    0  0.00000000000E+00  0.00000000000E+00  0.99999998245E-14  0.12500000000E+03  0.12500000000E+03 0.  0.
        -13    1    3    3    0    0 -0.16874656684E+02  0.71479905293E+01 -0.55869743275E+02  0.58798700534E+02  0.10566000000E+00 0.  1.
         23    2    1    0    0    0 -0.20306981942E+02  0.69416860687E+01 -0.17537666577E+02  0.97284836821E+02  0.93253467524E+02 0.  0.
         13    1    3    3    0    0 -0.34323252580E+01 -0.20630446061E+00  0.38332076699E+02  0.38486136287E+02  0.10566000000E+00 0. -1.
         22    1    1    0    0    0  0.20306981942E+02 -0.69416860687E+01  0.17537666577E+02  0.27715163179E+02  0.00000000000E+00 0.  1.
</event>
<event>
 5    1  0.1766634E-003  0.9118800E+02  0.7818608E-02  0.1130116E+00
         25   -1    0    0    0    0  0.00000000000E+00  0.00000000000E+00  0.99999998245E-14  0.12500000000E+03  0.12500000000E+03 0.  0.
        -13    1    3    3    0    0  0.23389141304E+02 -0.39190175637E+02  0.18340688201E+02  0.49186520563E+02  0.10566000000E+00 0.  1.
         23    2    1    0    0    0  0.20785671727E+02 -0.11308617162E+02 -0.18145934006E+02  0.95180478002E+02  0.90388713346E+02 0.  0.
         13    1    3    3    0    0 -0.26034695762E+01  0.27881558475E+02 -0.36486622207E+02  0.45993957439E+02  0.10566000000E+00 0. -1.
         22    1    1    0    0    0 -0.20785671727E+02  0.11308617162E+02  0.18145934006E+02  0.29819521998E+02  0.00000000000E+00 0.  1.
</event>
<event>
 5    1  0.1766634E-003  0.9118800E+02  0.7818608E-02  0.1130116E+00
         25   -1    0    0    0    0  0.00000000000E+00  0.00000000000E+00  0.99999998245E-14  0.12500000000E+03  0.12500000000E+03 0.  0.
        -13    1    3    3    0    0  0.53250458861E+02 -0.19382470546E+02  0.21563646064E+02  0.60632446174E+02  0.10566000000E+00 0. -1.
         23    2    1    0    0    0  0.21150305619E+02 -0.19096253743E+02  0.11456424382E+02  0.94287592175E+02  0.89145375897E+02 0.  0.
         13    1    3    3    0    0 -0.32100153242E+02  0.28621680344E+00 -0.10107221682E+02  0.33655146002E+02  0.10566000000E+00 0.  1.
         22    1    1    0    0    0 -0.21150305619E+02  0.19096253743E+02 -0.11456424382E+02  0.30712407825E+02  0.00000000000E+00 0. -1.
</event>
<event>
 5    1  0.1766634E-003  0.9118800E+02  0.7818608E-02  0.1130116E+00
         25   -1    0    0    0    0  0.00000000000E+00  0.00000000000E+00  0.99999998245E-14  0.12500000000E+03  0.12500000000E+03 0.  0.
        -13    1    3    3    0    0  0.65673019395E+01  0.21234029905E+02  0.28038201116E+02  0.35779398634E+02  0.10566000000E+00 0. -1.
         23    2    1    0    0    0 -0.34287196133E+02 -0.44322487445E+01  0.25814046509E+01  0.90331277821E+02  0.83413544795E+02 0.  0.
         13    1    3    3    0    0 -0.40854498072E+02 -0.25666278650E+02 -0.25456796465E+02  0.54551879186E+02  0.10566000000E+00 0.  1.
         22    1    1    0    0    0  0.34287196133E+02  0.44322487445E+01 -0.25814046509E+01  0.34668722179E+02  0.00000000000E+00 0.  1.
</event>
<event>
 5    1  0.1766634E-003  0.9118800E+02  0.7818608E-02  0.1130116E+00
         25   -1    0    0    0    0  0.00000000000E+00  0.00000000000E+00  0.99999998245E-14  0.12500000000E+03  0.12500000000E+03 0.  0.
        -13    1    3    3    0    0 -0.19405931567E+02 -0.52818801080E+01  0.41789906920E+02  0.46377752445E+02  0.10566000000E+00 0. -1.
         23    2    1    0    0    0 -0.24280286120E+02  0.14573192488E+02 -0.38822129430E+01  0.96417106328E+02  0.92082987473E+02 0.  0.
         13    1    3    3    0    0 -0.48743545526E+01  0.19855072596E+02 -0.45672119863E+02  0.50039353882E+02  0.10566000000E+00 0.  1.
         22    1    1    0    0    0  0.24280286120E+02 -0.14573192488E+02  0.38822129430E+01  0.28582893672E+02  0.00000000000E+00 0.  1.
</event>
<event>
 5    1  0.1766634E-003  0.9118800E+02  0.7818608E-02  0.1130116E+00
         25   -1    0    0    0    0  0.00000000000E+00  0.00000000000E+00  0.99999998245E-14  0.12500000000E+03  0.12500000000E+03 0.  0.
        -13    1    3    3    0    0 -0.15378836617E+02 -0.31749810630E+02  0.25041699171E+02  0.43262650776E+02  0.10566000000E+00 0. -1.
         23    2    1    0    0    0 -0.72355150895E+01  0.13802242639E+02  0.31374574001E+02  0.89968321847E+02  0.82867849385E+02 0.  0.
         13    1    3    3    0    0  0.81433215279E+01  0.45552053269E+02  0.63328748297E+01  0.46705671071E+02  0.10566000000E+00 0.  1.
         22    1    1    0    0    0  0.72355150895E+01 -0.13802242639E+02 -0.31374574001E+02  0.35031678153E+02  0.00000000000E+00 0.  1.
</event>
<event>
 5    1  0.1766634E-003  0.9118800E+02  0.7818608E-02  0.1130116E+00
         25   -1    0    0    0    0  0.00000000000E+00  0.00000000000E+00  0.99999998245E-14  0.12500000000E+03  0.12500000000E+03 0.  0.
        -13    1    3    3    0    0 -0.37573489650E+02 -0.17497095622E+02  0.22387515021E+01  0.41508296183E+02  0.10566000000E+00 0.  1.
         23    2    1    0    0    0 -0.11768185684E+02  0.16001074824E+02 -0.25944581162E+02  0.92325149098E+02  0.86349796030E+02 0.  0.
         13    1    3    3    0    0  0.25805303966E+02  0.33498170447E+02 -0.28183332664E+02  0.50816852915E+02  0.10566000000E+00 0. -1.
         22    1    1    0    0    0  0.11768185684E+02 -0.16001074824E+02  0.25944581162E+02  0.32674850902E+02  0.00000000000E+00 0. -1.
</event>
<event>
 5    1  0.1766634E-003  0.9118800E+02  0.7818608E-02  0.1130116E+00
         25   -1    0    0    0    0  0.00000000000E+00  0.00000000000E+00  0.99999998245E-14  0.12500000000E+03  0.12500000000E+03 0.  0.
        -13    1    3    3    0    0  0.28461566513E+02 -0.55340339754E+02  0.22256672090E+01  0.62270207412E+02  0.10566000000E+00 0. -1.
         23    2    1    0    0    0  0.15526682957E+02 -0.24844923674E+02  0.39331276440E+01  0.95439593895E+02  0.90746341380E+02 0.  0.
         13    1    3    3    0    0 -0.12934883556E+02  0.30495416081E+02  0.17074604350E+01  0.33169386484E+02  0.10566000000E+00 0.  1.
         22    1    1    0    0    0 -0.15526682957E+02  0.24844923674E+02 -0.39331276440E+01  0.29560406105E+02  0.00000000000E+00 0. -1.
</event>
<event>
 5    1  0.1766634E-003  0.9118800E+02  0.7818608E-02  0.1130116E+00
         25   -1    0    0    0    0  0.00000000000E+00  0.00000000000E+00  0.99999998245E-14  0.12500000000E+03  0.12500000000E+03 0.  0.
        -13    1    3    3    0    0 -0.30504454170E+02  0.67581481076E+01  0.45295966660E+02  0.55026630369E+02  0.10566000000E+00 0.  1.
         23    2    1    0    0    0  0.70488807535E+01  0.11278110076E+02  0.21516157262E+02  0.99705188080E+02  0.96443232110E+02 0.  0.
         13    1    3    3    0    0  0.37553334923E+02  0.45199619685E+01 -0.23779809398E+02  0.44678557711E+02  0.10566000000E+00 0. -1.
         22    1    1    0    0    0 -0.70488807535E+01 -0.11278110076E+02 -0.21516157262E+02  0.25294811920E+02  0.00000000000E+00 0.  1.
</event>
<event>
 5    1  0.1766634E-003  0.9118800E+02  0.7818608E-02  0.1130116E+00
         25   -1    0    0    0    0  0.00000000000E+00  0.00000000000E+00  0.99999998245E-14  0.12500000000E+03  0.12500000000E+03 0.  0.
        -13    1    3    3    0    0 -0.59713521598E+02 -0.95469352164E+01 -0.11616000784E+02  0.61577522456E+02  0.10566000000E+00 0.  1.
         23    2    1    0    0    0 -0.26959495151E+02  0.10007131034E+01 -0.10632870308E+02  0.96002177038E+02  0.91517999648E+02 0.  0.
         13    1    3    3    0    0  0.32754026446E+02  0.10547648320E+02  0.98313047557E+00  0.34424654582E+02  0.10566000000E+00 0. -1.
         22    1    1    0    0    0  0.26959495151E+02 -0.10007131034E+01  0.10632870308E+02  0.28997822962E+02  0.00000000000E+00 0.  1.
</event>
<event>
 5    1  0.1766634E-003  0.9118800E+02  0.7818608E-02  0.1130116E+00
         25   -1    0    0    0    0  0.00000000000E+00  0.00000000000E+00  0.99999998245E-14  0.12500000000E+03  0.12500000000E+03 0.  0.
        -13    1    3    3    0    0 -0.42724068604E+02  0.33887396997E+02 -0.14374117027E+02  0.56394397928E+02  0.10566000000E+00 0. -1.
         23    2    1    0    0    0 -0.16669615830E+02  0.44024520839E+01 -0.22582018489E+02  0.96588642495E+02  0.92315549198E+02 0.  0.
         13    1    3    3    0    0  0.26054452774E+02 -0.29484944913E+02 -0.82079014615E+01  0.40194244567E+02  0.10566000000E+00 0.  1.
         22    1    1    0    0    0  0.16669615830E+02 -0.44024520839E+01  0.22582018489E+02  0.28411357505E+02  0.00000000000E+00 0. -1.
</event>
<event>
 5    1  0.1766634E-003  0.9118800E+02  0.7818608E-02  0.1130116E+00
         25   -1    0    0    0    0  0.00000000000E+00  0.00000000000E+00  0.99999998245E-14  0.12500000000E+03  0.12500000000E+03 0.  0.
        -13    1    3    3    0    0  0.29265853717E+02  0.34261674568E+02 -0.76786653403E+01  0.45709141356E+02  0.10566000000E+00 0.  1.
         23    2    1    0    0    0  0.14892096723E+02  0.64434677092E+01  0.27664542124E+02  0.92927898232E+02  0.87217971530E+02 0.  0.
         13    1    3    3    0    0 -0.14373756995E+02 -0.27818206859E+02  0.35343207464E+02  0.47218756876E+02  0.10566000000E+00 0. -1.
         22    1    1    0    0    0 -0.14892096723E+02 -0.64434677092E+01 -0.27664542124E+02  0.32072101768E+02  0.00000000000E+00 0. -1.
</event>
<event>
 5    1  0.1766634E-003  0.9118800E+02  0.7818608E-02  0.1130116E+00
         25   -1    0    0    0    0  0.00000000000E+00  0.00000000000E+00  0.99999998245E-14  0.12500000000E+03  0.12500000000E+03 0.  0.
        -13    1    3    3    0    0 -0.39759410093E+02  0.17075397080E+02 -0.55319393089E+01  0.43623312493E+02  0.10566000000E+00 0.  1.
         23    2    1    0    0    0 -0.55592196568E+01 -0.16510131529E+02 -0.24300083106E+02  0.95100444731E+02  0.90277966209E+02 0.  0.
         13    1    3    3    0    0  0.34200190436E+02 -0.33585528609E+02 -0.18768143797E+02  0.51477132238E+02  0.10566000000E+00 0. -1.
         22    1    1    0    0    0  0.55592196568E+01  0.16510131529E+02  0.24300083106E+02  0.29899555269E+02  0.00000000000E+00 0. -1.
</event>
<event>
 5    1  0.1766634E-003  0.9118800E+02  0.7818608E-02  0.1130116E+00
         25   -1    0    0    0    0  0.00000000000E+00  0.00000000000E+00  0.99999998245E-14  0.12500000000E+03  0.12500000000E+03 0.  0.
        -13    1    3    3    0    0 -0.14618724051E+02  0.41852291368E+02  0.32197774347E+02  0.54790776803E+02  0.10566000000E+00 0. -1.
         23    2    1    0    0    0 -0.16290602737E+02  0.10796608722E+01  0.23288030245E+02  0.96559153356E+02  0.92275610749E+02 0.  0.
         13    1    3    3    0    0 -0.16718786853E+01 -0.40772630496E+02 -0.89097441022E+01  0.41768376554E+02  0.10566000000E+00 0.  1.
         22    1    1    0    0    0  0.16290602737E+02 -0.10796608722E+01 -0.23288030245E+02  0.28440846644E+02  0.00000000000E+00 0. -1.
</event>
<event>
 5    1  0.1766634E-003  0.9118800E+02  0.7818608E-02  0.1130116E+00
         25   -1    0    0    0    0  0.00000000000E+00  0.00000000000E+00  0.99999998245E-14  0.12500000000E+03  0.12500000000E+03 0.  0.
        -13    1    3    3    0    0 -0.31463171922E+02  0.18225669289E+02  0.16972191704E+01  0.36400520950E+02  0.10566000000E+00 0. -1.
         23    2    1    0    0    0  0.16179675336E+02 -0.88382107531E+01  0.23291023878E+02  0.95295326015E+02  0.90547399210E+02 0.  0.
         13    1    3    3    0    0  0.47642847259E+02 -0.27063880042E+02  0.21593804707E+02  0.58894805065E+02  0.10566000000E+00 0.  1.
         22    1    1    0    0    0 -0.16179675336E+02  0.88382107531E+01 -0.23291023878E+02  0.29704673985E+02  0.00000000000E+00 0.  1.
</event>
<event>
 5    1  0.1766634E-003  0.9118800E+02  0.7818608E-02  0.1130116E+00
         25   -1    0    0    0    0  0.00000000000E+00  0.00000000000E+00  0.99999998245E-14  0.12500000000E+03  0.12500000000E+03 0.  0.
        -13    1    3    3    0    0  0.30328766914E+02 -0.34688831334E+02  0.39388988809E+02  0.60618913924E+02  0.10566000000E+00 0. -1.
         23    2    1    0    0    0  0.22437975147E+02 -0.16033620432E+02  0.11422856112E+02  0.95150019185E+02  0.90346581542E+02 0.  0.
         13    1    3    3    0    0 -0.78907917664E+01  0.18655210903E+02 -0.27966132697E+02  0.34531105262E+02  0.10566000000E+00 0.  1.
         22    1    1    0    0    0 -0.22437975147E+02  0.16033620432E+02 -0.11422856112E+02  0.29849980815E+02  0.00000000000E+00 0. -1.
</event>
<event>
 5    1  0.1766634E-003  0.9118800E+02  0.7818608E-02  0.1130116E+00
         25   -1    0    0    0    0  0.00000000000E+00  0.00000000000E+00  0.99999998245E-14  0.12500000000E+03  0.12500000000E+03 0.  0.
        -13    1    3    3    0    0 -0.24369473159E+02 -0.24366265788E+02  0.26412031805E+02  0.43418806048E+02  0.10566000000E+00 0.  1.
         23    2    1    0    0    0  0.17829732647E+02 -0.11424591565E+02  0.30633899274E+02  0.87759478476E+02  0.79466153921E+02 0.  0.
         13    1    3    3    0    0  0.42199205806E+02  0.12941674223E+02  0.42218674686E+01  0.44340672428E+02  0.10566000000E+00 0. -1.
         22    1    1    0    0    0 -0.17829732647E+02  0.11424591565E+02 -0.30633899274E+02  0.37240521524E+02  0.00000000000E+00 0. -1.
</event>
<event>
 5    1  0.1766634E-003  0.9118800E+02  0.7818608E-02  0.1130116E+00
         25   -1    0    0    0    0  0.00000000000E+00  0.00000000000E+00  0.99999998245E-14  0.12500000000E+03  0.12500000000E+03 0.  0.
        -13    1    3    3    0    0 -0.34590858229E+02 -0.25926443668E+01  0.34478614193E+01  0.34858975748E+02  0.10566000000E+00 0.  1.
         23    2    1    0    0    0  0.25874860165E+02  0.39335093353E+00 -0.10646780631E+02  0.97017558160E+02  0.92894507588E+02 0.  0.
         13    1    3    3    0    0  0.60465718394E+02  0.29859953003E+01 -0.14094642050E+02  0.62158582412E+02  0.10566000000E+00 0. -1.
         22    1    1    0    0    0 -0.25874860165E+02 -0.39335093353E+00  0.10646780631E+02  0.27982441840E+02  0.00000000000E+00 0. -1.
</event>
<event>
 5    1  0.1766634E-003  0.9118800E+02  0.7818608E-02  0.1130116E+00
         25   -1    0    0    0    0  0.00000000000E+00  0.00000000000E+00  0.99999998245E-14  0.12500000000E+03  0.12500000000E+03 0.  0.
        -13    1    3    3    0    0 -0.39474021478E+02  0.10750929244E+02 -0.67227340327E+01  0.41460670136E+02  0.10566000000E+00 0.  1.
         23    2    1    0    0    0 -0.57963380338E+01 -0.22735036894E+02  0.18395322066E+02  0.95186122173E+02  0.90396518424E+02 0.  0.
         13    1    3    3    0    0  0.33677683444E+02 -0.33485966138E+02  0.25118056099E+02  0.53725452037E+02  0.10566000000E+00 0. -1.
         22    1    1    0    0    0  0.57963380338E+01  0.22735036894E+02 -0.18395322066E+02  0.29813877827E+02  0.00000000000E+00 0. -1.
</event>
<event>
 5    1  0.1766634E-003  0.9118800E+02  0.7818608E-02  0.1130116E+00
         25   -1    0    0    0    0  0.00000000000E+00  0.00000000000E+00  0.99999998245E-14  0.12500000000E+03  0.12500000000E+03 0.  0.
        -13    1    3    3    0    0  0.16271418487E+02  0.29496985853E+02  0.29754282700E+02  0.44946187125E+02  0.10566000000E+00 0. -1.
         23    2    1    0    0    0 -0.20173579886E+02 -0.50782505947E+01  0.20042870873E+02  0.96112656277E+02  0.91668773687E+02 0.  0.
         13    1    3    3    0    0 -0.36444998373E+02 -0.34575236448E+02 -0.97114118271E+01  0.51166469153E+02  0.10566000000E+00 0.  1.
         22    1    1    0    0    0  0.20173579886E+02  0.50782505947E+01 -0.20042870873E+02  0.28887343723E+02  0.00000000000E+00 0.  1.
</event>
<event>
 5    1  0.1766634E-003  0.9118800E+02  0.7818608E-02  0.1130116E+00
         25   -1    0    0    0    0  0.00000000000E+00  0.00000000000E+00  0.99999998245E-14  0.12500000000E+03  0.12500000000E+03 0.  0.
        -13    1    3    3    0    0  0.35381422654E+01  0.37116516214E+02 -0.42865851125E+00  0.37287385785E+02  0.10566000000E+00 0.  1.
         23    2    1    0    0    0 -0.20472493241E+02 -0.12135843204E+02  0.18068850886E+02  0.95118817927E+02  0.90303402381E+02 0.  0.
         13    1    3    3    0    0 -0.24010635506E+02 -0.49252359417E+02  0.18497509397E+02  0.57831432141E+02  0.10566000000E+00 0. -1.
         22    1    1    0    0    0  0.20472493241E+02  0.12135843204E+02 -0.18068850886E+02  0.29881182073E+02  0.00000000000E+00 0.  1.
</event>
<event>
 5    1  0.1766634E-003  0.9118800E+02  0.7818608E-02  0.1130116E+00
         25   -1    0    0    0    0  0.00000000000E+00  0.00000000000E+00  0.99999998245E-14  0.12500000000E+03  0.12500000000E+03 0.  0.
        -13    1    3    3    0    0  0.44022754591E+02  0.64767922255E+01  0.36541892005E+02  0.57578405628E+02  0.10566000000E+00 0.  1.
         23    2    1    0    0    0  0.21989330457E+02  0.18720517984E+02  0.93766683306E+01  0.94637023260E+02  0.89634010370E+02 0.  0.
         13    1    3    3    0    0 -0.22033424134E+02  0.12243725759E+02 -0.27165223674E+02  0.37058617632E+02  0.10566000000E+00 0. -1.
         22    1    1    0    0    0 -0.21989330457E+02 -0.18720517984E+02 -0.93766683306E+01  0.30362976740E+02  0.00000000000E+00 0.  1.
</event>
<event>
 5    1  0.1766634E-003  0.9118800E+02  0.7818608E-02  0.1130116E+00
         25   -1    0    0    0    0  0.00000000000E+00  0.00000000000E+00  0.99999998245E-14  0.12500000000E+03  0.12500000000E+03 0.  0.
        -13    1    3    3    0    0  0.40762655093E+02  0.26120163278E+02  0.22198524234E+02  0.53260141026E+02  0.10566000000E+00 0.  1.
         23    2    1    0    0    0  0.31337211219E+02 -0.10324331682E+01 -0.54890037222E+01  0.93168947753E+02  0.87562759997E+02 0.  0.
         13    1    3    3    0    0 -0.94254438737E+01 -0.27152596447E+02 -0.27687527956E+02  0.39908806727E+02  0.10566000000E+00 0. -1.
         22    1    1    0    0    0 -0.31337211219E+02  0.10324331682E+01  0.54890037222E+01  0.31831052247E+02  0.00000000000E+00 0.  1.
</event>
<event>
 5    1  0.1766634E-003  0.9118800E+02  0.7818608E-02  0.1130116E+00
         25   -1    0    0    0    0  0.00000000000E+00  0.00000000000E+00  0.99999998245E-14  0.12500000000E+03  0.12500000000E+03 0.  0.
        -13    1    3    3    0    0 -0.58884191052E+01  0.13723874244E+02  0.37332775605E+02  0.40209022647E+02  0.10566000000E+00 0.  1.
         23    2    1    0    0    0 -0.30648846046E+01 -0.27017716348E+02 -0.30447921761E+01  0.97639055687E+02  0.93727071446E+02 0.  0.
         13    1    3    3    0    0  0.28235345006E+01 -0.40741590591E+02 -0.40377567781E+02  0.57430033040E+02  0.10566000000E+00 0. -1.
         22    1    1    0    0    0  0.30648846046E+01  0.27017716348E+02  0.30447921761E+01  0.27360944313E+02  0.00000000000E+00 0. -1.
</event>
<event>
 5    1  0.1766634E-003  0.9118800E+02  0.7818608E-02  0.1130116E+00
         25   -1    0    0    0    0  0.00000000000E+00  0.00000000000E+00  0.99999998245E-14  0.12500000000E+03  0.12500000000E+03 0.  0.
        -13    1    3    3    0    0  0.91413339122E+00  0.15159158967E+02 -0.39059128111E+02  0.41907784399E+02  0.10566000000E+00 0.  1.
         23    2    1    0    0    0 -0.91341562973E+01 -0.26813756325E+02 -0.65896641520E+01  0.95916774369E+02  0.91401277847E+02 0.  0.
         13    1    3    3    0    0 -0.10048289689E+02 -0.41972915291E+02  0.32469463959E+02  0.54008989969E+02  0.10566000000E+00 0. -1.
         22    1    1    0    0    0  0.91341562973E+01  0.26813756325E+02  0.65896641520E+01  0.29083225631E+02  0.00000000000E+00 0. -1.
</event>
<event>
 5    1  0.1766634E-003  0.9118800E+02  0.7818608E-02  0.1130116E+00
         25   -1    0    0    0    0  0.00000000000E+00  0.00000000000E+00  0.99999998245E-14  0.12500000000E+03  0.12500000000E+03 0.  0.
        -13    1    3    3    0    0  0.41720047530E+02  0.35395545113E+02 -0.88113459670E+01  0.55417126970E+02  0.10566000000E+00 0. -1.
         23    2    1    0    0    0  0.95184425182E+01  0.35530772912E+02 -0.35611938800E+01  0.88044368852E+02  0.79913029057E+02 0.  0.
         13    1    3    3    0    0 -0.32201605012E+02  0.13522779846E+00  0.52501520871E+01  0.32627241883E+02  0.10566000000E+00 0.  1.
         22    1    1    0    0    0 -0.95184425182E+01 -0.35530772912E+02  0.35611938800E+01  0.36955631148E+02  0.00000000000E+00 0. -1.
</event>
<event>
 5    1  0.1766634E-003  0.9118800E+02  0.7818608E-02  0.1130116E+00
         25   -1    0    0    0    0  0.00000000000E+00  0.00000000000E+00  0.99999998245E-14  0.12500000000E+03  0.12500000000E+03 0.  0.
        -13    1    3    3    0    0 -0.14398807425E+02  0.40545953773E+01 -0.59861366954E+02  0.61702186481E+02  0.10566000000E+00 0.  1.
         23    2    1    0    0    0 -0.13504965099E+02  0.85226750617E+01 -0.48244451852E+02  0.74181231745E+02  0.54039873577E+02 0.  0.
         13    1    3    3    0    0  0.89384232629E+00  0.44680796844E+01  0.11616915102E+02  0.12479045264E+02  0.10566000000E+00 0. -1.
         22    1    1    0    0    0  0.13504965099E+02 -0.85226750617E+01  0.48244451852E+02  0.50818768255E+02  0.00000000000E+00 0.  1.
</event>
<event>
 5    1  0.1766634E-003  0.9118800E+02  0.7818608E-02  0.1130116E+00
         25   -1    0    0    0    0  0.00000000000E+00  0.00000000000E+00  0.99999998245E-14  0.12500000000E+03  0.12500000000E+03 0.  0.
        -13    1    3    3    0    0  0.64083835354E+01  0.58121158958E+02  0.53744807017E+01  0.58719951507E+02  0.10566000000E+00 0. -1.
         23    2    1    0    0    0 -0.69177111328E+01  0.24296284292E+02  0.14046722189E+02  0.96095423166E+02  0.91645271518E+02 0.  0.
         13    1    3    3    0    0 -0.13326094668E+02 -0.33824874666E+02  0.86722414871E+01  0.37375471659E+02  0.10566000000E+00 0.  1.
         22    1    1    0    0    0  0.69177111328E+01 -0.24296284292E+02 -0.14046722189E+02  0.28904576834E+02  0.00000000000E+00 0. -1.
</event>
<event>
 5    1  0.1766634E-003  0.9118800E+02  0.7818608E-02  0.1130116E+00
         25   -1    0    0    0    0  0.00000000000E+00  0.00000000000E+00  0.99999998245E-14  0.12500000000E+03  0.12500000000E+03 0.  0.
        -13    1    3    3    0    0 -0.10412291589E+02 -0.64030489850E+01  0.55854767281E+02  0.57176752658E+02  0.10566000000E+00 0. -1.
         23    2    1    0    0    0  0.44867084130E+01 -0.17863695859E+02  0.19060839896E+02  0.98494193096E+02  0.94860678228E+02 0.  0.
         13    1    3    3    0    0  0.14899000002E+02 -0.11460646874E+02 -0.36793927386E+02  0.41317440438E+02  0.10566000000E+00 0.  1.
         22    1    1    0    0    0 -0.44867084130E+01  0.17863695859E+02 -0.19060839896E+02  0.26505806904E+02  0.00000000000E+00 0.  1.
</event>
<event>
 5    1  0.1766634E-003  0.9118800E+02  0.7818608E-02  0.1130116E+00
         25   -1    0    0    0    0  0.00000000000E+00  0.00000000000E+00  0.99999998245E-14  0.12500000000E+03  0.12500000000E+03 0.  0.
        -13    1    3    3    0    0 -0.46032375102E+02  0.23973832243E+02  0.25678930068E+01  0.51964694057E+02  0.10566000000E+00 0.  1.
         23    2    1    0    0    0 -0.13289685778E+02  0.22309834191E+02  0.22760304540E+02  0.90469203420E+02  0.83619978803E+02 0.  0.
         13    1    3    3    0    0  0.32742689324E+02 -0.16639980524E+01  0.20192411533E+02  0.38504509362E+02  0.10566000000E+00 0. -1.
         22    1    1    0    0    0  0.13289685778E+02 -0.22309834191E+02 -0.22760304540E+02  0.34530796580E+02  0.00000000000E+00 0.  1.
</event>
<event>
 5    1  0.1766634E-003  0.9118800E+02  0.7818608E-02  0.1130116E+00
         25   -1    0    0    0    0  0.00000000000E+00  0.00000000000E+00  0.99999998245E-14  0.12500000000E+03  0.12500000000E+03 0.  0.
        -13    1    3    3    0    0 -0.58703979793E+01  0.21537124119E+02 -0.35017818104E+02  0.41527918760E+02  0.10566000000E+00 0. -1.
         23    2    1    0    0    0  0.17946785721E+02  0.17925604511E+02  0.13914488348E+02  0.96068574166E+02  0.91608643377E+02 0.  0.
         13    1    3    3    0    0  0.23817183701E+02 -0.36115196076E+01  0.48932306452E+02  0.54540655405E+02  0.10566000000E+00 0.  1.
         22    1    1    0    0    0 -0.17946785721E+02 -0.17925604511E+02 -0.13914488348E+02  0.28931425834E+02  0.00000000000E+00 0.  1.
</event>
<event>
 5    1  0.1766634E-003  0.9118800E+02  0.7818608E-02  0.1130116E+00
         25   -1    0    0    0    0  0.00000000000E+00  0.00000000000E+00  0.99999998245E-14  0.12500000000E+03  0.12500000000E+03 0.  0.
        -13    1    3    3    0    0 -0.55149757831E+02 -0.37395287910E+00  0.10028368254E+02  0.56055463280E+02  0.10566000000E+00 0. -1.
         23    2    1    0    0    0 -0.18311906207E+02 -0.15732510358E+02  0.15455944758E+02  0.96334270994E+02  0.91970472155E+02 0.  0.
         13    1    3    3    0    0  0.36837851624E+02 -0.15358557479E+02  0.54275765047E+01  0.40278807714E+02  0.10566000000E+00 0.  1.
         22    1    1    0    0    0  0.18311906207E+02  0.15732510358E+02 -0.15455944758E+02  0.28665729006E+02  0.00000000000E+00 0. -1.
</event>
<event>
 5    1  0.1766634E-003  0.9118800E+02  0.7818608E-02  0.1130116E+00
         25   -1    0    0    0    0  0.00000000000E+00  0.00000000000E+00  0.99999998245E-14  0.12500000000E+03  0.12500000000E+03 0.  0.
        -13    1    3    3    0    0  0.74975997037E+01 -0.33930389243E+02 -0.34878475730E+02  0.49234180696E+02  0.10566000000E+00 0.  1.
         23    2    1    0    0    0 -0.17885137012E+02 -0.30901070348E+02 -0.43805695014E+01  0.89028571564E+02  0.81437969590E+02 0.  0.
         13    1    3    3    0    0 -0.25382736715E+02  0.30293188953E+01  0.30497906229E+02  0.39794390868E+02  0.10566000000E+00 0. -1.
         22    1    1    0    0    0  0.17885137012E+02  0.30901070348E+02  0.43805695014E+01  0.35971428436E+02  0.00000000000E+00 0.  1.
</event>
<event>
 5    1  0.1766634E-003  0.9118800E+02  0.7818608E-02  0.1130116E+00
         25   -1    0    0    0    0  0.00000000000E+00  0.00000000000E+00  0.99999998245E-14  0.12500000000E+03  0.12500000000E+03 0.  0.
        -13    1    3    3    0    0  0.46011682592E+01  0.63188110992E-01  0.39046077913E+02  0.39316435577E+02  0.10566000000E+00 0. -1.
         23    2    1    0    0    0  0.19109907542E+02 -0.17714236365E+02 -0.12766786081E+02  0.95983219285E+02  0.91492102507E+02 0.  0.
         13    1    3    3    0    0  0.14508739282E+02 -0.17777424476E+02 -0.51812863993E+02  0.56666783708E+02  0.10566000000E+00 0.  1.
         22    1    1    0    0    0 -0.19109907542E+02  0.17714236365E+02  0.12766786081E+02  0.29016780715E+02  0.00000000000E+00 0.  1.
</event>
<event>
 5    1  0.1766634E-003  0.9118800E+02  0.7818608E-02  0.1130116E+00
         25   -1    0    0    0    0  0.00000000000E+00  0.00000000000E+00  0.99999998245E-14  0.12500000000E+03  0.12500000000E+03 0.  0.
        -13    1    3    3    0    0 -0.57039902055E+02  0.54937350282E+01 -0.68990985171E+01  0.57717763950E+02  0.10566000000E+00 0. -1.
         23    2    1    0    0    0 -0.24427029322E+02 -0.14224934164E+02 -0.72021669408E+01  0.95829814499E+02  0.91282274429E+02 0.  0.
         13    1    3    3    0    0  0.32612872733E+02 -0.19718669192E+02 -0.30306842371E+00  0.38112050549E+02  0.10566000000E+00 0.  1.
         22    1    1    0    0    0  0.24427029322E+02  0.14224934164E+02  0.72021669408E+01  0.29170185501E+02  0.00000000000E+00 0. -1.
</event>
<event>
 5    1  0.1766634E-003  0.9118800E+02  0.7818608E-02  0.1130116E+00
         25   -1    0    0    0    0  0.00000000000E+00  0.00000000000E+00  0.99999998245E-14  0.12500000000E+03  0.12500000000E+03 0.  0.
        -13    1    3    3    0    0  0.73250003425E+01  0.58868260941E+02 -0.28986533015E+00  0.59323039050E+02  0.10566000000E+00 0.  1.
         23    2    1    0    0    0  0.13084806693E+02  0.26577966803E+02 -0.10331392337E+02  0.93625836215E+02  0.88212578772E+02 0.  0.
         13    1    3    3    0    0  0.57598063508E+01 -0.32290294137E+02 -0.10041527007E+02  0.34302797165E+02  0.10566000000E+00 0. -1.
         22    1    1    0    0    0 -0.13084806693E+02 -0.26577966803E+02  0.10331392337E+02  0.31374163785E+02  0.00000000000E+00 0.  1.
</event>
<event>
 5    1  0.1766634E-003  0.9118800E+02  0.7818608E-02  0.1130116E+00
         25   -1    0    0    0    0  0.00000000000E+00  0.00000000000E+00  0.99999998245E-14  0.12500000000E+03  0.12500000000E+03 0.  0.
        -13    1    3    3    0    0 -0.11636997957E+02 -0.26955964612E+01  0.33879726231E+02  0.35923988855E+02  0.10566000000E+00 0. -1.
         23    2    1    0    0    0  0.21244123759E+02 -0.13286700763E+02 -0.15013367022E+02  0.95789549802E+02  0.91227120147E+02 0.  0.
         13    1    3    3    0    0  0.32881121716E+02 -0.10591104302E+02 -0.48893093253E+02  0.59865560947E+02  0.10566000000E+00 0.  1.
         22    1    1    0    0    0 -0.21244123759E+02  0.13286700763E+02  0.15013367022E+02  0.29210450198E+02  0.00000000000E+00 0.  1.
</event>
<event>
 5    1  0.1766634E-003  0.9118800E+02  0.7818608E-02  0.1130116E+00
         25   -1    0    0    0    0  0.00000000000E+00  0.00000000000E+00  0.99999998245E-14  0.12500000000E+03  0.12500000000E+03 0.  0.
        -13    1    3    3    0    0  0.45183026901E+02 -0.32457408105E+02 -0.14546856109E+02  0.57503142936E+02  0.10566000000E+00 0.  1.
         23    2    1    0    0    0  0.23151170222E+02 -0.30394146742E+01 -0.19486412775E+02  0.94587255845E+02  0.89564579836E+02 0.  0.
         13    1    3    3    0    0 -0.22031856678E+02  0.29417993431E+02 -0.49395566658E+01  0.37084112909E+02  0.10566000000E+00 0. -1.
         22    1    1    0    0    0 -0.23151170222E+02  0.30394146742E+01  0.19486412775E+02  0.30412744155E+02  0.00000000000E+00 0.  1.
</event>
<event>
 5    1  0.1766634E-003  0.9118800E+02  0.7818608E-02  0.1130116E+00
         25   -1    0    0    0    0  0.00000000000E+00  0.00000000000E+00  0.99999998245E-14  0.12500000000E+03  0.12500000000E+03 0.  0.
        -13    1    3    3    0    0  0.12147089659E+02  0.77750640607E+01  0.36456825486E+02  0.39206054340E+02  0.10566000000E+00 0. -1.
         23    2    1    0    0    0 -0.96679360902E+01  0.23855073860E+02 -0.13421258256E+02  0.95971329512E+02  0.91475856805E+02 0.  0.
         13    1    3    3    0    0 -0.21815025749E+02  0.16080009799E+02 -0.49878083742E+02  0.56765275172E+02  0.10566000000E+00 0.  1.
         22    1    1    0    0    0  0.96679360902E+01 -0.23855073860E+02  0.13421258256E+02  0.29028670488E+02  0.00000000000E+00 0.  1.
</event>
<event>
 5    1  0.1766634E-003  0.9118800E+02  0.7818608E-02  0.1130116E+00
         25   -1    0    0    0    0  0.00000000000E+00  0.00000000000E+00  0.99999998245E-14  0.12500000000E+03  0.12500000000E+03 0.  0.
        -13    1    3    3    0    0  0.31526015786E+02 -0.49247216894E+02 -0.17969422758E+02  0.61172619377E+02  0.10566000000E+00 0. -1.
         23    2    1    0    0    0  0.13473802677E+02 -0.19716585806E+02 -0.16796536042E+02  0.95803925993E+02  0.91246816373E+02 0.  0.
         13    1    3    3    0    0 -0.18052213109E+02  0.29530631088E+02  0.11728867157E+01  0.34631306615E+02  0.10566000000E+00 0.  1.
         22    1    1    0    0    0 -0.13473802677E+02  0.19716585806E+02  0.16796536042E+02  0.29196074007E+02  0.00000000000E+00 0. -1.
</event>
<event>
 5    1  0.1766634E-003  0.9118800E+02  0.7818608E-02  0.1130116E+00
         25   -1    0    0    0    0  0.00000000000E+00  0.00000000000E+00  0.99999998245E-14  0.12500000000E+03  0.12500000000E+03 0.  0.
        -13    1    3    3    0    0 -0.28079811607E+01  0.23629200288E+02 -0.12493257873E+02  0.26875946881E+02  0.10566000000E+00 0. -1.
         23    2    1    0    0    0 -0.20166324589E+02 -0.32430246726E+02 -0.32540292583E+00  0.86809589722E+02  0.77957664347E+02 0.  0.
         13    1    3    3    0    0 -0.17358343429E+02 -0.56059447014E+02  0.12167854947E+02  0.59933642841E+02  0.10566000000E+00 0.  1.
         22    1    1    0    0    0  0.20166324589E+02  0.32430246726E+02  0.32540292583E+00  0.38190410278E+02  0.00000000000E+00 0.  1.
</event>
<event>
 5    1  0.1766634E-003  0.9118800E+02  0.7818608E-02  0.1130116E+00
         25   -1    0    0    0    0  0.00000000000E+00  0.00000000000E+00  0.99999998245E-14  0.12500000000E+03  0.12500000000E+03 0.  0.
        -13    1    3    3    0    0  0.33381602714E+02 -0.64650572032E+01 -0.55810532473E+01  0.34457041135E+02  0.10566000000E+00 0.  1.
         23    2    1    0    0    0 -0.27477146459E+02  0.45541649952E+01 -0.68483662284E+01  0.96318401085E+02  0.91948900327E+02 0.  0.
         13    1    3    3    0    0 -0.60858749172E+02  0.11019222198E+02 -0.12673129810E+01  0.61861359950E+02  0.10566000000E+00 0. -1.
         22    1    1    0    0    0  0.27477146459E+02 -0.45541649952E+01  0.68483662284E+01  0.28681598915E+02  0.00000000000E+00 0. -1.
</event>
<event>
 5    1  0.1766634E-003  0.9118800E+02  0.7818608E-02  0.1130116E+00
         25   -1    0    0    0    0  0.00000000000E+00  0.00000000000E+00  0.99999998245E-14  0.12500000000E+03  0.12500000000E+03 0.  0.
        -13    1    3    3    0    0  0.33213674410E+02  0.11820835068E+02 -0.67986231921E+01  0.35904216339E+02  0.10566000000E+00 0.  1.
         23    2    1    0    0    0 -0.62873391521E+01 -0.24659091082E+02  0.16676519992E+02  0.94574554636E+02  0.89546851753E+02 0.  0.
         13    1    3    3    0    0 -0.39501013562E+02 -0.36479926150E+02  0.23475143184E+02  0.58670338297E+02  0.10566000000E+00 0. -1.
         22    1    1    0    0    0  0.62873391521E+01  0.24659091082E+02 -0.16676519992E+02  0.30425445364E+02  0.00000000000E+00 0. -1.
</event>
<event>
 5    1  0.1766634E-003  0.9118800E+02  0.7818608E-02  0.1130116E+00
         25   -1    0    0    0    0  0.00000000000E+00  0.00000000000E+00  0.99999998245E-14  0.12500000000E+03  0.12500000000E+03 0.  0.
        -13    1    3    3    0    0 -0.25144134688E+02 -0.43122289288E+02  0.22868883536E+02  0.54906796855E+02  0.10566000000E+00 0. -1.
         23    2    1    0    0    0 -0.26393656827E+02 -0.68615299592E+01  0.12455907889E+00  0.97728747204E+02  0.93846613157E+02 0.  0.
         13    1    3    3    0    0 -0.12495221389E+01  0.36260759329E+02 -0.22744324457E+02  0.42821950349E+02  0.10566000000E+00 0.  1.
         22    1    1    0    0    0  0.26393656827E+02  0.68615299592E+01 -0.12455907889E+00  0.27271252796E+02  0.00000000000E+00 0. -1.
</event>
<event>
 5    1  0.1766634E-003  0.9118800E+02  0.7818608E-02  0.1130116E+00
         25   -1    0    0    0    0  0.00000000000E+00  0.00000000000E+00  0.99999998245E-14  0.12500000000E+03  0.12500000000E+03 0.  0.
        -13    1    3    3    0    0  0.41512445142E+02 -0.21640438139E+02 -0.90518912623E+01  0.47681648084E+02  0.10566000000E+00 0. -1.
         23    2    1    0    0    0  0.14563307671E+02  0.94345900711E+01 -0.27277015467E+02  0.92671421421E+02  0.86849613444E+02 0.  0.
         13    1    3    3    0    0 -0.26949137470E+02  0.31075028210E+02 -0.18225124205E+02  0.44989773338E+02  0.10566000000E+00 0.  1.
         22    1    1    0    0    0 -0.14563307671E+02 -0.94345900711E+01  0.27277015467E+02  0.32328578579E+02  0.00000000000E+00 0. -1.
</event>
<event>
 5    1  0.1766634E-003  0.9118800E+02  0.7818608E-02  0.1130116E+00
         25   -1    0    0    0    0  0.00000000000E+00  0.00000000000E+00  0.99999998245E-14  0.12500000000E+03  0.12500000000E+03 0.  0.
        -13    1    3    3    0    0 -0.46176007991E+02 -0.15085047123E+02 -0.77344491079E+01  0.49189584545E+02  0.10566000000E+00 0.  1.
         23    2    1    0    0    0 -0.47288511156E+01 -0.72264236012E+01 -0.27789302716E+02  0.95899680820E+02  0.91377897792E+02 0.  0.
         13    1    3    3    0    0  0.41447156875E+02  0.78586235218E+01 -0.20054853608E+02  0.46710096275E+02  0.10566000000E+00 0. -1.
         22    1    1    0    0    0  0.47288511156E+01  0.72264236012E+01  0.27789302716E+02  0.29100319180E+02  0.00000000000E+00 0. -1.
</event>
<event>
 4    1  0.1766634E-003  0.9118800E+02  0.7818608E-02  0.1130116E+00
         25   -1    0    0    0    0  0.00000000000E+00  0.00000000000E+00  0.99999998245E-14  0.12500000000E+03  0.12500000000E+03 0.  0.
        -13    1    1    0    0    0  0.20263859374E+02 -0.56477447637E+02 -0.14394968027E+02  0.61705367326E+02  0.10566000000E+00 0. -1.
         13    1    1    0    0    0 -0.34042840820E+01  0.18642832990E+01  0.32465512825E+01  0.50612213541E+01  0.10566000000E+00 0.  1.
         22    1    1    0    0    0 -0.16859575292E+02  0.54613164338E+02  0.11148416744E+02  0.58233411320E+02  0.00000000000E+00 0. -1.
</event>
<event>
 5    1  0.1766634E-003  0.9118800E+02  0.7818608E-02  0.1130116E+00
         25   -1    0    0    0    0  0.00000000000E+00  0.00000000000E+00  0.99999998245E-14  0.12500000000E+03  0.12500000000E+03 0.  0.
        -13    1    3    3    0    0 -0.34210718395E+02  0.15459210980E+02  0.17978612631E+02  0.41624537636E+02  0.10566000000E+00 0.  1.
         23    2    1    0    0    0 -0.13551163214E+02 -0.20569842254E+02 -0.16289222821E+02  0.95468809457E+02  0.90786575903E+02 0.  0.
         13    1    3    3    0    0  0.20659555182E+02 -0.36029053234E+02 -0.34267835452E+02  0.53844271820E+02  0.10566000000E+00 0. -1.
         22    1    1    0    0    0  0.13551163214E+02  0.20569842254E+02  0.16289222821E+02  0.29531190543E+02  0.00000000000E+00 0. -1.
</event>
<event>
 5    1  0.1766634E-003  0.9118800E+02  0.7818608E-02  0.1130116E+00
         25   -1    0    0    0    0  0.00000000000E+00  0.00000000000E+00  0.99999998245E-14  0.12500000000E+03  0.12500000000E+03 0.  0.
        -13    1    3    3    0    0 -0.24040679960E+02 -0.24989140588E+02  0.30057545099E+02  0.45889853145E+02  0.10566000000E+00 0.  1.
         23    2    1    0    0    0 -0.42194116154E+02 -0.14195058408E+02  0.27701183479E+01  0.80396001560E+02  0.66887968948E+02 0.  0.
         13    1    3    3    0    0 -0.18153436193E+02  0.10794082179E+02 -0.27287426751E+02  0.34506148415E+02  0.10566000000E+00 0. -1.
         22    1    1    0    0    0  0.42194116154E+02  0.14195058408E+02 -0.27701183479E+01  0.44603998440E+02  0.00000000000E+00 0. -1.
</event>
<event>
 5    1  0.1766634E-003  0.9118800E+02  0.7818608E-02  0.1130116E+00
         25   -1    0    0    0    0  0.00000000000E+00  0.00000000000E+00  0.99999998245E-14  0.12500000000E+03  0.12500000000E+03 0.  0.
        -13    1    3    3    0    0 -0.30080673889E+02  0.29655109497E+02 -0.41986699975E+02  0.59558094326E+02  0.10566000000E+00 0.  1.
         23    2    1    0    0    0 -0.43256847227E+01  0.16674411863E+02 -0.29179049673E+02  0.91115423876E+02  0.84580470376E+02 0.  0.
         13    1    3    3    0    0  0.25754989166E+02 -0.12980697634E+02  0.12807650302E+02  0.31557329550E+02  0.10566000000E+00 0. -1.
         22    1    1    0    0    0  0.43256847227E+01 -0.16674411863E+02  0.29179049673E+02  0.33884576124E+02  0.00000000000E+00 0.  1.
</event>
<event>
 5    1  0.1766634E-003  0.9118800E+02  0.7818608E-02  0.1130116E+00
         25   -1    0    0    0    0  0.00000000000E+00  0.00000000000E+00  0.99999998245E-14  0.12500000000E+03  0.12500000000E+03 0.  0.
        -13    1    3    3    0    0 -0.40388320566E+01 -0.59050433187E+02 -0.38652009375E+01  0.59314557794E+02  0.10566000000E+00 0.  1.
         23    2    1    0    0    0 -0.29041440261E+01 -0.25714083224E+02 -0.15728745039E+02  0.94717306113E+02  0.89745899785E+02 0.  0.
         13    1    3    3    0    0  0.11346880305E+01  0.33336349964E+02 -0.11863544102E+02  0.35402748319E+02  0.10566000000E+00 0. -1.
         22    1    1    0    0    0  0.29041440261E+01  0.25714083224E+02  0.15728745039E+02  0.30282693887E+02  0.00000000000E+00 0.  1.
</event>
<event>
 5    1  0.1766634E-003  0.9118800E+02  0.7818608E-02  0.1130116E+00
         25   -1    0    0    0    0  0.00000000000E+00  0.00000000000E+00  0.99999998245E-14  0.12500000000E+03  0.12500000000E+03 0.  0.
        -13    1    3    3    0    0  0.50603994309E+01  0.23941363088E+02  0.34946465731E+02  0.42662198022E+02  0.10566000000E+00 0.  1.
         23    2    1    0    0    0 -0.64766292175E+01  0.23836955719E+02 -0.16440029865E+02  0.95328098040E+02  0.90592629446E+02 0.  0.
         13    1    3    3    0    0 -0.11537028648E+02 -0.10440736968E+00 -0.51386495597E+02  0.52665900018E+02  0.10566000000E+00 0. -1.
         22    1    1    0    0    0  0.64766292175E+01 -0.23836955719E+02  0.16440029865E+02  0.29671901960E+02  0.00000000000E+00 0. -1.
</event>
<event>
 5    1  0.1766634E-003  0.9118800E+02  0.7818608E-02  0.1130116E+00
         25   -1    0    0    0    0  0.00000000000E+00  0.00000000000E+00  0.99999998245E-14  0.12500000000E+03  0.12500000000E+03 0.  0.
        -13    1    3    3    0    0  0.22066937421E+02  0.29990171495E+02  0.31162108160E+01  0.37364181342E+02  0.10566000000E+00 0.  1.
         23    2    1    0    0    0  0.19117556485E+01 -0.14561212867E+02 -0.26622188255E+02  0.94595647724E+02  0.89576291121E+02 0.  0.
         13    1    3    3    0    0 -0.20155181772E+02 -0.44551384363E+02 -0.29738399071E+02  0.57231466382E+02  0.10566000000E+00 0. -1.
         22    1    1    0    0    0 -0.19117556485E+01  0.14561212867E+02  0.26622188255E+02  0.30404352276E+02  0.00000000000E+00 0. -1.
</event>
<event>
 5    1  0.1766634E-003  0.9118800E+02  0.7818608E-02  0.1130116E+00
         25   -1    0    0    0    0  0.00000000000E+00  0.00000000000E+00  0.99999998245E-14  0.12500000000E+03  0.12500000000E+03 0.  0.
        -13    1    3    3    0    0 -0.30247035058E+02  0.12977177873E+02  0.13000377460E+02  0.35388010024E+02  0.10566000000E+00 0. -1.
         23    2    1    0    0    0  0.16462338697E+02 -0.38589806941E+01 -0.22810443246E+02  0.96606045565E+02  0.92339110844E+02 0.  0.
         13    1    3    3    0    0  0.46709373755E+02 -0.16836158568E+02 -0.35810820706E+02  0.61218035541E+02  0.10566000000E+00 0.  1.
         22    1    1    0    0    0 -0.16462338697E+02  0.38589806941E+01  0.22810443246E+02  0.28393954435E+02  0.00000000000E+00 0.  1.
</event>
<event>
 5    1  0.1766634E-003  0.9118800E+02  0.7818608E-02  0.1130116E+00
         25   -1    0    0    0    0  0.00000000000E+00  0.00000000000E+00  0.99999998245E-14  0.12500000000E+03  0.12500000000E+03 0.  0.
        -13    1    3    3    0    0  0.16688040530E+02 -0.11882341137E+02  0.49895856664E+02  0.53937819792E+02  0.10566000000E+00 0.  1.
         23    2    1    0    0    0  0.24817291790E+02 -0.12875100767E+02  0.90251488231E+01  0.95621104465E+02  0.90996022530E+02 0.  0.
         13    1    3    3    0    0  0.81292512604E+01 -0.99275963025E+00 -0.40870707841E+02  0.41683284673E+02  0.10566000000E+00 0. -1.
         22    1    1    0    0    0 -0.24817291790E+02  0.12875100767E+02 -0.90251488231E+01  0.29378895535E+02  0.00000000000E+00 0.  1.
</event>
<event>
 5    1  0.1766634E-003  0.9118800E+02  0.7818608E-02  0.1130116E+00
         25   -1    0    0    0    0  0.00000000000E+00  0.00000000000E+00  0.99999998245E-14  0.12500000000E+03  0.12500000000E+03 0.  0.
        -13    1    3    3    0    0  0.67062950755E+01 -0.44708531656E+02  0.33334131964E+02  0.56169410842E+02  0.10566000000E+00 0.  1.
         23    2    1    0    0    0 -0.57783218290E+01 -0.87660217986E+01  0.28626690984E+02  0.94508696682E+02  0.89454872256E+02 0.  0.
         13    1    3    3    0    0 -0.12484616904E+02  0.35942509857E+02 -0.47074409794E+01  0.38339285840E+02  0.10566000000E+00 0. -1.
         22    1    1    0    0    0  0.57783218290E+01  0.87660217986E+01 -0.28626690984E+02  0.30491303318E+02  0.00000000000E+00 0.  1.
</event>
<event>
 5    1  0.1766634E-003  0.9118800E+02  0.7818608E-02  0.1130116E+00
         25   -1    0    0    0    0  0.00000000000E+00  0.00000000000E+00  0.99999998245E-14  0.12500000000E+03  0.12500000000E+03 0.  0.
        -13    1    3    3    0    0  0.15484414281E+02  0.39313219602E+02 -0.69439350511E+01  0.42819688452E+02  0.10566000000E+00 0. -1.
         23    2    1    0    0    0 -0.27726956925E+02  0.10180225837E+02  0.47100784522E+00  0.95459468746E+02  0.90773714182E+02 0.  0.
         13    1    3    3    0    0 -0.43211371206E+02 -0.29132993765E+02  0.74149428964E+01  0.52639780294E+02  0.10566000000E+00 0.  1.
         22    1    1    0    0    0  0.27726956925E+02 -0.10180225837E+02 -0.47100784522E+00  0.29540531254E+02  0.00000000000E+00 0.  1.
</event>
<event>
 5    1  0.1766634E-003  0.9118800E+02  0.7818608E-02  0.1130116E+00
         25   -1    0    0    0    0  0.00000000000E+00  0.00000000000E+00  0.99999998245E-14  0.12500000000E+03  0.12500000000E+03 0.  0.
        -13    1    3    3    0    0 -0.34421108246E+02  0.31944168977E+02  0.35338128093E+02  0.58771056530E+02  0.10566000000E+00 0. -1.
         23    2    1    0    0    0 -0.18930833933E+02  0.23252470432E+02  0.40582436934E+01  0.94742386140E+02  0.89780824986E+02 0.  0.
         13    1    3    3    0    0  0.15490274313E+02 -0.86916985448E+01 -0.31279884399E+02  0.35971329611E+02  0.10566000000E+00 0.  1.
         22    1    1    0    0    0  0.18930833933E+02 -0.23252470432E+02 -0.40582436934E+01  0.30257613860E+02  0.00000000000E+00 0. -1.
</event>
<event>
 5    1  0.1766634E-003  0.9118800E+02  0.7818608E-02  0.1130116E+00
         25   -1    0    0    0    0  0.00000000000E+00  0.00000000000E+00  0.99999998245E-14  0.12500000000E+03  0.12500000000E+03 0.  0.
        -13    1    3    3    0    0  0.35836478013E+02  0.50773867654E+02 -0.59931709227E+01  0.62435310959E+02  0.10566000000E+00 0. -1.
         23    2    1    0    0    0  0.14515052540E+02  0.23052175170E+02 -0.40176681701E+01  0.97464001964E+02  0.93493317895E+02 0.  0.
         13    1    3    3    0    0 -0.21321425473E+02 -0.27721692483E+02  0.19755027527E+01  0.35028691005E+02  0.10566000000E+00 0.  1.
         22    1    1    0    0    0 -0.14515052540E+02 -0.23052175170E+02  0.40176681701E+01  0.27535998036E+02  0.00000000000E+00 0. -1.
</event>
<event>
 5    1  0.1766634E-003  0.9118800E+02  0.7818608E-02  0.1130116E+00
         25   -1    0    0    0    0  0.00000000000E+00  0.00000000000E+00  0.99999998245E-14  0.12500000000E+03  0.12500000000E+03 0.  0.
        -13    1    3    3    0    0 -0.29604381659E+02  0.48543466660E+01 -0.51578307042E+02  0.59668392105E+02  0.10566000000E+00 0.  1.
         23    2    1    0    0    0 -0.72839155404E+01  0.10484774031E+02 -0.56576030873E+01  0.11103596102E+03  0.11015439280E+03 0.  0.
         13    1    3    3    0    0  0.22320466119E+02  0.56304273645E+01  0.45920703955E+02  0.51367568911E+02  0.10566000000E+00 0. -1.
         22    1    1    0    0    0  0.72839155404E+01 -0.10484774031E+02  0.56576030873E+01  0.13964038985E+02  0.00000000000E+00 0.  1.
</event>
<event>
 5    1  0.1766634E-003  0.9118800E+02  0.7818608E-02  0.1130116E+00
         25   -1    0    0    0    0  0.00000000000E+00  0.00000000000E+00  0.99999998245E-14  0.12500000000E+03  0.12500000000E+03 0.  0.
        -13    1    3    3    0    0 -0.13689717052E+02  0.29557512136E+02  0.26347561629E+02  0.41895823712E+02  0.10566000000E+00 0. -1.
         23    2    1    0    0    0 -0.21226142948E+02 -0.18675297490E+02  0.14641959934E+01  0.96689935523E+02  0.92452603429E+02 0.  0.
         13    1    3    3    0    0 -0.75364258956E+01 -0.48232809626E+02 -0.24883365636E+02  0.54794111811E+02  0.10566000000E+00 0.  1.
         22    1    1    0    0    0  0.21226142948E+02  0.18675297490E+02 -0.14641959934E+01  0.28310064477E+02  0.00000000000E+00 0.  1.
</event>
<event>
 5    1  0.1766634E-003  0.9118800E+02  0.7818608E-02  0.1130116E+00
         25   -1    0    0    0    0  0.00000000000E+00  0.00000000000E+00  0.99999998245E-14  0.12500000000E+03  0.12500000000E+03 0.  0.
        -13    1    3    3    0    0  0.31451352130E+02  0.27205279582E+01 -0.50803405213E+01  0.31975144206E+02  0.10566000000E+00 0.  1.
         23    2    1    0    0    0 -0.30666538792E+02  0.31373980450E+00 -0.31613683341E+01  0.94169345062E+02  0.88979414841E+02 0.  0.
         13    1    3    3    0    0 -0.62117890922E+02 -0.24067881537E+01  0.19189721872E+01  0.62194200856E+02  0.10566000000E+00 0. -1.
         22    1    1    0    0    0  0.30666538792E+02 -0.31373980450E+00  0.31613683341E+01  0.30830654938E+02  0.00000000000E+00 0. -1.
</event>
<event>
 5    1  0.1766634E-003  0.9118800E+02  0.7818608E-02  0.1130116E+00
         25   -1    0    0    0    0  0.00000000000E+00  0.00000000000E+00  0.99999998245E-14  0.12500000000E+03  0.12500000000E+03 0.  0.
        -13    1    3    3    0    0 -0.17996835936E+02 -0.24582140802E+02 -0.14490478234E+02  0.33736521362E+02  0.10566000000E+00 0. -1.
         23    2    1    0    0    0  0.16562196893E+01 -0.39683265875E+01  0.34407701861E+02  0.90324639484E+02  0.83403596271E+02 0.  0.
         13    1    3    3    0    0  0.19653055625E+02  0.20613814215E+02  0.48898180095E+02  0.56588118122E+02  0.10566000000E+00 0.  1.
         22    1    1    0    0    0 -0.16562196893E+01  0.39683265875E+01 -0.34407701861E+02  0.34675360516E+02  0.00000000000E+00 0.  1.
</event>
<event>
 5    1  0.1766634E-003  0.9118800E+02  0.7818608E-02  0.1130116E+00
         25   -1    0    0    0    0  0.00000000000E+00  0.00000000000E+00  0.99999998245E-14  0.12500000000E+03  0.12500000000E+03 0.  0.
        -13    1    3    3    0    0  0.79355422017E+01 -0.59260541932E+02 -0.12457451716E+02  0.61073594355E+02  0.10566000000E+00 0. -1.
         23    2    1    0    0    0 -0.24627379410E+01 -0.34220517661E+02 -0.54987876288E+00  0.90686572981E+02  0.83944286555E+02 0.  0.
         13    1    3    3    0    0 -0.10398280143E+02  0.25040024271E+02  0.11907572953E+02  0.29612978626E+02  0.10566000000E+00 0.  1.
         22    1    1    0    0    0  0.24627379410E+01  0.34220517661E+02  0.54987876288E+00  0.34313427019E+02  0.00000000000E+00 0. -1.
</event>
<event>
 5    1  0.1766634E-003  0.9118800E+02  0.7818608E-02  0.1130116E+00
         25   -1    0    0    0    0  0.00000000000E+00  0.00000000000E+00  0.99999998245E-14  0.12500000000E+03  0.12500000000E+03 0.  0.
        -13    1    3    3    0    0  0.41659456445E+02 -0.14183974763E+01  0.45732463714E+02  0.61878845853E+02  0.10566000000E+00 0. -1.
         23    2    1    0    0    0  0.24375114017E+02  0.26132982060E+01  0.18921334445E+02  0.94032397445E+02  0.88786819749E+02 0.  0.
         13    1    3    3    0    0 -0.17284342429E+02  0.40316956824E+01 -0.26811129269E+02  0.32153551592E+02  0.10566000000E+00 0.  1.
         22    1    1    0    0    0 -0.24375114017E+02 -0.26132982060E+01 -0.18921334445E+02  0.30967602555E+02  0.00000000000E+00 0. -1.
</event>
<event>
 5    1  0.1766634E-003  0.9118800E+02  0.7818608E-02  0.1130116E+00
         25   -1    0    0    0    0  0.00000000000E+00  0.00000000000E+00  0.99999998245E-14  0.12500000000E+03  0.12500000000E+03 0.  0.
        -13    1    3    3    0    0 -0.24125248419E+02  0.28803072683E+02  0.85779156618E+01  0.38538765009E+02  0.10566000000E+00 0. -1.
         23    2    1    0    0    0 -0.53702474852E+01 -0.26456298722E+02 -0.23257854685E+01  0.97904159394E+02  0.94079965181E+02 0.  0.
         13    1    3    3    0    0  0.18755000934E+02 -0.55259371405E+02 -0.10903701130E+02  0.59365394385E+02  0.10566000000E+00 0.  1.
         22    1    1    0    0    0  0.53702474852E+01  0.26456298722E+02  0.23257854685E+01  0.27095840606E+02  0.00000000000E+00 0.  1.
</event>
<event>
 5    1  0.1766634E-003  0.9118800E+02  0.7818608E-02  0.1130116E+00
         25   -1    0    0    0    0  0.00000000000E+00  0.00000000000E+00  0.99999998245E-14  0.12500000000E+03  0.12500000000E+03 0.  0.
        -13    1    3    3    0    0 -0.17685029639E+02 -0.54040342278E+02  0.17426056349E+02  0.59470980073E+02  0.10566000000E+00 0.  1.
         23    2    1    0    0    0 -0.80749917672E+01 -0.18332015081E+02  0.20197133341E+02  0.96553691555E+02  0.92268211691E+02 0.  0.
         13    1    3    3    0    0  0.96100378719E+01  0.35708327197E+02  0.27710769921E+01  0.37082711482E+02  0.10566000000E+00 0. -1.
         22    1    1    0    0    0  0.80749917672E+01  0.18332015081E+02 -0.20197133341E+02  0.28446308445E+02  0.00000000000E+00 0.  1.
</event>
<event>
 5    1  0.1766634E-003  0.9118800E+02  0.7818608E-02  0.1130116E+00
         25   -1    0    0    0    0  0.00000000000E+00  0.00000000000E+00  0.99999998245E-14  0.12500000000E+03  0.12500000000E+03 0.  0.
        -13    1    3    3    0    0 -0.37357087258E+02  0.68775263968E+00  0.72738310327E+00  0.37370646533E+02  0.10566000000E+00 0.  1.
         23    2    1    0    0    0  0.14775692338E+02  0.22570603414E+02  0.12730675662E+02  0.95170093440E+02  0.90374351229E+02 0.  0.
         13    1    3    3    0    0  0.52132779596E+02  0.21882850774E+02  0.12003292559E+02  0.57799446907E+02  0.10566000000E+00 0. -1.
         22    1    1    0    0    0 -0.14775692338E+02 -0.22570603414E+02 -0.12730675662E+02  0.29829906560E+02  0.00000000000E+00 0. -1.
</event>
<event>
 5    1  0.1766634E-003  0.9118800E+02  0.7818608E-02  0.1130116E+00
         25   -1    0    0    0    0  0.00000000000E+00  0.00000000000E+00  0.99999998245E-14  0.12500000000E+03  0.12500000000E+03 0.  0.
        -13    1    3    3    0    0 -0.11325978766E+02 -0.42297029683E+02  0.15397686495E+02  0.46415691619E+02  0.10566000000E+00 0. -1.
         23    2    1    0    0    0  0.21673564239E+01 -0.19618783619E+02 -0.24056926529E+02  0.93882001694E+02  0.88574829514E+02 0.  0.
         13    1    3    3    0    0  0.13493335190E+02  0.22678246065E+02 -0.39454613025E+02  0.47466310075E+02  0.10566000000E+00 0.  1.
         22    1    1    0    0    0 -0.21673564239E+01  0.19618783619E+02  0.24056926529E+02  0.31117998306E+02  0.00000000000E+00 0. -1.
</event>
<event>
 5    1  0.1766634E-003  0.9118800E+02  0.7818608E-02  0.1130116E+00
         25   -1    0    0    0    0  0.00000000000E+00  0.00000000000E+00  0.99999998245E-14  0.12500000000E+03  0.12500000000E+03 0.  0.
        -13    1    3    3    0    0  0.50915814602E+01 -0.38246497862E+02 -0.10122785373E+02  0.39889857712E+02  0.10566000000E+00 0. -1.
         23    2    1    0    0    0 -0.12949302847E+02  0.16006619497E+02 -0.18060551850E+02  0.97612414399E+02  0.93691534301E+02 0.  0.
         13    1    3    3    0    0 -0.18040884307E+02  0.54253117359E+02 -0.79377664768E+01  0.57722556687E+02  0.10566000000E+00 0.  1.
         22    1    1    0    0    0  0.12949302847E+02 -0.16006619497E+02  0.18060551850E+02  0.27387585601E+02  0.00000000000E+00 0.  1.
</event>
<event>
 5    1  0.1766634E-003  0.9118800E+02  0.7818608E-02  0.1130116E+00
         25   -1    0    0    0    0  0.00000000000E+00  0.00000000000E+00  0.99999998245E-14  0.12500000000E+03  0.12500000000E+03 0.  0.
        -13    1    3    3    0    0 -0.44155549798E+02  0.34413875229E+02 -0.25246661751E+02  0.61411989708E+02  0.10566000000E+00 0. -1.
         23    2    1    0    0    0 -0.19062029962E+02  0.24609151233E+02 -0.10357308563E+02  0.92193824494E+02  0.86159480752E+02 0.  0.
         13    1    3    3    0    0  0.25093519836E+02 -0.98047239956E+01  0.14889353188E+02  0.30781834786E+02  0.10566000000E+00 0.  1.
         22    1    1    0    0    0  0.19062029962E+02 -0.24609151233E+02  0.10357308563E+02  0.32806175506E+02  0.00000000000E+00 0. -1.
</event>
<event>
 5    1  0.1766634E-003  0.9118800E+02  0.7818608E-02  0.1130116E+00
         25   -1    0    0    0    0  0.00000000000E+00  0.00000000000E+00  0.99999998245E-14  0.12500000000E+03  0.12500000000E+03 0.  0.
        -13    1    3    3    0    0 -0.20351355042E+02 -0.26359765406E+02 -0.31267311439E+02  0.45680092086E+02  0.10566000000E+00 0. -1.
         23    2    1    0    0    0  0.70722154391E+01 -0.27588265536E+02  0.96295295564E+01  0.94935794273E+02  0.90049700545E+02 0.  0.
         13    1    3    3    0    0  0.27423570481E+02 -0.12285001308E+01  0.40896840996E+02  0.49255702187E+02  0.10566000000E+00 0.  1.
         22    1    1    0    0    0 -0.70722154391E+01  0.27588265536E+02 -0.96295295564E+01  0.30064205727E+02  0.00000000000E+00 0. -1.
</event>
<event>
 5    1  0.1766634E-003  0.9118800E+02  0.7818608E-02  0.1130116E+00
         25   -1    0    0    0    0  0.00000000000E+00  0.00000000000E+00  0.99999998245E-14  0.12500000000E+03  0.12500000000E+03 0.  0.
        -13    1    3    3    0    0  0.43817570968E+02  0.17775627819E+02  0.36204777829E+02  0.59554593203E+02  0.10566000000E+00 0.  1.
         23    2    1    0    0    0  0.11441765254E+02  0.12551928120E+02  0.26080974757E+02  0.93876341219E+02  0.88566840887E+02 0.  0.
         13    1    3    3    0    0 -0.32375805714E+02 -0.52236996986E+01 -0.10123803072E+02  0.34321748016E+02  0.10566000000E+00 0. -1.
         22    1    1    0    0    0 -0.11441765254E+02 -0.12551928120E+02 -0.26080974757E+02  0.31123658781E+02  0.00000000000E+00 0.  1.
</event>
<event>
 5    1  0.1766634E-003  0.9118800E+02  0.7818608E-02  0.1130116E+00
         25   -1    0    0    0    0  0.00000000000E+00  0.00000000000E+00  0.99999998245E-14  0.12500000000E+03  0.12500000000E+03 0.  0.
        -13    1    3    3    0    0  0.35138966259E+02  0.75374591753E+01 -0.21067101405E+01  0.36000133780E+02  0.10566000000E+00 0.  1.
         23    2    1    0    0    0 -0.22057498484E+02 -0.55969380872E+01 -0.17057957697E+02  0.96560012727E+02  0.92276774877E+02 0.  0.
         13    1    3    3    0    0 -0.57196464742E+02 -0.13134397262E+02 -0.14951247556E+02  0.60559878946E+02  0.10566000000E+00 0. -1.
         22    1    1    0    0    0  0.22057498484E+02  0.55969380872E+01  0.17057957697E+02  0.28439987273E+02  0.00000000000E+00 0. -1.
</event>
<event>
 5    1  0.1766634E-003  0.9118800E+02  0.7818608E-02  0.1130116E+00
         25   -1    0    0    0    0  0.00000000000E+00  0.00000000000E+00  0.99999998245E-14  0.12500000000E+03  0.12500000000E+03 0.  0.
        -13    1    3    3    0    0 -0.10814621197E+02  0.40659627786E+02 -0.29090317036E+02  0.51150944005E+02  0.10566000000E+00 0.  1.
         23    2    1    0    0    0 -0.26041925173E+02  0.18184825480E+01 -0.12625197849E+02  0.96001993754E+02  0.91517749309E+02 0.  0.
         13    1    3    3    0    0 -0.15227303976E+02 -0.38841145238E+02  0.16465119186E+02  0.44851049749E+02  0.10566000000E+00 0. -1.
         22    1    1    0    0    0  0.26041925173E+02 -0.18184825480E+01  0.12625197849E+02  0.28998006246E+02  0.00000000000E+00 0. -1.
</event>
<event>
 5    1  0.1766634E-003  0.9118800E+02  0.7818608E-02  0.1130116E+00
         25   -1    0    0    0    0  0.00000000000E+00  0.00000000000E+00  0.99999998245E-14  0.12500000000E+03  0.12500000000E+03 0.  0.
        -13    1    3    3    0    0  0.44089139121E+02 -0.20462303595E+02 -0.84447371253E+01  0.49334397797E+02  0.10566000000E+00 0.  1.
         23    2    1    0    0    0  0.12009457762E+02 -0.18493820904E+02  0.22176394435E+02  0.93726353626E+02  0.88354900297E+02 0.  0.
         13    1    3    3    0    0 -0.32079681359E+02  0.19684826911E+01  0.30621131561E+02  0.44391955829E+02  0.10566000000E+00 0. -1.
         22    1    1    0    0    0 -0.12009457762E+02  0.18493820904E+02 -0.22176394435E+02  0.31273646374E+02  0.00000000000E+00 0. -1.
</event>
<event>
 5    1  0.1766634E-003  0.9118800E+02  0.7818608E-02  0.1130116E+00
         25   -1    0    0    0    0  0.00000000000E+00  0.00000000000E+00  0.99999998245E-14  0.12500000000E+03  0.12500000000E+03 0.  0.
        -13    1    3    3    0    0  0.42889823881E+02 -0.60442840431E-02  0.44492809940E+02  0.61799339232E+02  0.10566000000E+00 0.  1.
         23    2    1    0    0    0  0.20207957868E+02 -0.54563232023E+01  0.26327882788E+02  0.91365338768E+02  0.84949012308E+02 0.  0.
         13    1    3    3    0    0 -0.22681866012E+02 -0.54502789182E+01 -0.18164927153E+02  0.29565999537E+02  0.10566000000E+00 0. -1.
         22    1    1    0    0    0 -0.20207957868E+02  0.54563232023E+01 -0.26327882788E+02  0.33634661232E+02  0.00000000000E+00 0.  1.
</event>
<event>
 5    1  0.1766634E-003  0.9118800E+02  0.7818608E-02  0.1130116E+00
         25   -1    0    0    0    0  0.00000000000E+00  0.00000000000E+00  0.99999998245E-14  0.12500000000E+03  0.12500000000E+03 0.  0.
        -13    1    3    3    0    0 -0.44196140891E+02  0.26957927607E+02 -0.24039177616E+02  0.57078209108E+02  0.10566000000E+00 0.  1.
         23    2    1    0    0    0 -0.32124175722E+02  0.27659876283E+01 -0.77290936234E+00  0.92747701752E+02  0.86959332092E+02 0.  0.
         13    1    3    3    0    0  0.12071965168E+02 -0.24191939979E+02  0.23266268254E+02  0.35669492644E+02  0.10566000000E+00 0. -1.
         22    1    1    0    0    0  0.32124175722E+02 -0.27659876283E+01  0.77290936234E+00  0.32252298248E+02  0.00000000000E+00 0.  1.
</event>
<event>
 5    1  0.1766634E-003  0.9118800E+02  0.7818608E-02  0.1130116E+00
         25   -1    0    0    0    0  0.00000000000E+00  0.00000000000E+00  0.99999998245E-14  0.12500000000E+03  0.12500000000E+03 0.  0.
        -13    1    3    3    0    0 -0.61736000005E+01  0.50832538423E+02 -0.22226839253E+02  0.55822073114E+02  0.10566000000E+00 0. -1.
         23    2    1    0    0    0 -0.21790623920E+02  0.15304458735E+02 -0.10649941338E+02  0.96321105348E+02  0.91952576565E+02 0.  0.
         13    1    3    3    0    0 -0.15617023920E+02 -0.35528079689E+02  0.11576897915E+02  0.40499032233E+02  0.10566000000E+00 0.  1.
         22    1    1    0    0    0  0.21790623920E+02 -0.15304458735E+02  0.10649941338E+02  0.28678894652E+02  0.00000000000E+00 0. -1.
</event>
<event>
 5    1  0.1766634E-003  0.9118800E+02  0.7818608E-02  0.1130116E+00
         25   -1    0    0    0    0  0.00000000000E+00  0.00000000000E+00  0.99999998245E-14  0.12500000000E+03  0.12500000000E+03 0.  0.
        -13    1    3    3    0    0  0.27568883321E+02 -0.33145003758E+02 -0.95356964800E+01  0.44153994984E+02  0.10566000000E+00 0. -1.
         23    2    1    0    0    0  0.39449939076E+01  0.72578772152E+01 -0.29002700405E+02  0.94843800151E+02  0.89921910776E+02 0.  0.
         13    1    3    3    0    0 -0.23623889413E+02  0.40402880973E+02 -0.19467003925E+02  0.50689805166E+02  0.10566000000E+00 0.  1.
         22    1    1    0    0    0 -0.39449939076E+01 -0.72578772152E+01  0.29002700405E+02  0.30156199849E+02  0.00000000000E+00 0.  1.
</event>
<event>
 5    1  0.1766634E-003  0.9118800E+02  0.7818608E-02  0.1130116E+00
         25   -1    0    0    0    0  0.00000000000E+00  0.00000000000E+00  0.99999998245E-14  0.12500000000E+03  0.12500000000E+03 0.  0.
        -13    1    3    3    0    0  0.33106217152E+02 -0.31031958377E+02  0.16826820852E+02  0.48395837826E+02  0.10566000000E+00 0. -1.
         23    2    1    0    0    0  0.26801800788E+02  0.65883471838E+01 -0.10660712011E+02  0.95412948361E+02  0.90709630637E+02 0.  0.
         13    1    3    3    0    0 -0.63044163641E+01  0.37620305561E+02 -0.27487532863E+02  0.47017110536E+02  0.10566000000E+00 0.  1.
         22    1    1    0    0    0 -0.26801800788E+02 -0.65883471838E+01  0.10660712011E+02  0.29587051639E+02  0.00000000000E+00 0. -1.
</event>
<event>
 5    1  0.1766634E-003  0.9118800E+02  0.7818608E-02  0.1130116E+00
         25   -1    0    0    0    0  0.00000000000E+00  0.00000000000E+00  0.99999998245E-14  0.12500000000E+03  0.12500000000E+03 0.  0.
        -13    1    3    3    0    0 -0.12725769329E+02  0.30748594277E+02 -0.16234078364E+02  0.37026716292E+02  0.10566000000E+00 0. -1.
         23    2    1    0    0    0  0.69136153121E+01 -0.70136798254E+01  0.26127255544E+02  0.97078265389E+02  0.92976160102E+02 0.  0.
         13    1    3    3    0    0  0.19639384641E+02 -0.37762274102E+02  0.42361333909E+02  0.60051549097E+02  0.10566000000E+00 0.  1.
         22    1    1    0    0    0 -0.69136153121E+01  0.70136798254E+01 -0.26127255544E+02  0.27921734611E+02  0.00000000000E+00 0.  1.
</event>
<event>
 5    1  0.1766634E-003  0.9118800E+02  0.7818608E-02  0.1130116E+00
         25   -1    0    0    0    0  0.00000000000E+00  0.00000000000E+00  0.99999998245E-14  0.12500000000E+03  0.12500000000E+03 0.  0.
        -13    1    3    3    0    0 -0.34976544012E+02 -0.58802382286E+01  0.42156769717E+01  0.35717207744E+02  0.10566000000E+00 0.  1.
         23    2    1    0    0    0  0.23807350491E+02  0.50421285882E+01  0.14915715892E+02  0.96457197428E+02  0.92137393912E+02 0.  0.
         13    1    3    3    0    0  0.58783894503E+02  0.10922366817E+02  0.10700038921E+02  0.60739989684E+02  0.10566000000E+00 0. -1.
         22    1    1    0    0    0 -0.23807350491E+02 -0.50421285882E+01 -0.14915715892E+02  0.28542802572E+02  0.00000000000E+00 0. -1.
</event>
<event>
 5    1  0.1766634E-003  0.9118800E+02  0.7818608E-02  0.1130116E+00
         25   -1    0    0    0    0  0.00000000000E+00  0.00000000000E+00  0.99999998245E-14  0.12500000000E+03  0.12500000000E+03 0.  0.
        -13    1    3    3    0    0  0.46903777370E+02  0.40745939384E+02  0.38721153519E+01  0.62251107213E+02  0.10566000000E+00 0.  1.
         23    2    1    0    0    0  0.29019043078E+02  0.20819282426E+02  0.42768902957E+01  0.89030024013E+02  0.81440198940E+02 0.  0.
         13    1    3    3    0    0 -0.17884734292E+02 -0.19926656958E+02  0.40477494384E+00  0.26778916801E+02  0.10566000000E+00 0. -1.
         22    1    1    0    0    0 -0.29019043078E+02 -0.20819282426E+02 -0.42768902957E+01  0.35969975987E+02  0.00000000000E+00 0.  1.
</event>
<event>
 5    1  0.1766634E-003  0.9118800E+02  0.7818608E-02  0.1130116E+00
         25   -1    0    0    0    0  0.00000000000E+00  0.00000000000E+00  0.99999998245E-14  0.12500000000E+03  0.12500000000E+03 0.  0.
        -13    1    3    3    0    0 -0.35634308189E+02 -0.39744357066E+02  0.11495884068E+02  0.54603885880E+02  0.10566000000E+00 0.  1.
         23    2    1    0    0    0 -0.25760193668E+02 -0.11191871840E+02 -0.13520659687E+02  0.93828637959E+02  0.88499488641E+02 0.  0.
         13    1    3    3    0    0  0.98741145208E+01  0.28552485226E+02 -0.25016543756E+02  0.39224752079E+02  0.10566000000E+00 0. -1.
         22    1    1    0    0    0  0.25760193668E+02  0.11191871840E+02  0.13520659687E+02  0.31171362041E+02  0.00000000000E+00 0.  1.
</event>
<event>
 5    1  0.1766634E-003  0.9118800E+02  0.7818608E-02  0.1130116E+00
         25   -1    0    0    0    0  0.00000000000E+00  0.00000000000E+00  0.99999998245E-14  0.12500000000E+03  0.12500000000E+03 0.  0.
        -13    1    3    3    0    0 -0.31682408904E+02  0.33266898898E+02  0.19309775132E+02  0.49833123281E+02  0.10566000000E+00 0.  1.
         23    2    1    0    0    0 -0.18627579431E+02 -0.82391459876E+01  0.23914644273E+02  0.93586938182E+02  0.88157441805E+02 0.  0.
         13    1    3    3    0    0  0.13054829473E+02 -0.41506044885E+02  0.46048691409E+01  0.43753814902E+02  0.10566000000E+00 0. -1.
         22    1    1    0    0    0  0.18627579431E+02  0.82391459876E+01 -0.23914644273E+02  0.31413061818E+02  0.00000000000E+00 0.  1.
</event>
<event>
 5    1  0.1766634E-003  0.9118800E+02  0.7818608E-02  0.1130116E+00
         25   -1    0    0    0    0  0.00000000000E+00  0.00000000000E+00  0.99999998245E-14  0.12500000000E+03  0.12500000000E+03 0.  0.
        -13    1    3    3    0    0  0.91240168788E+01  0.28796070689E+02 -0.43634158189E+02  0.53069881252E+02  0.10566000000E+00 0. -1.
         23    2    1    0    0    0  0.15031461750E+02  0.22361211803E+02  0.49122121296E+00  0.98051717421E+02  0.94275815326E+02 0.  0.
         13    1    3    3    0    0  0.59074448716E+01 -0.64348588863E+01  0.44125379402E+02  0.44981836170E+02  0.10566000000E+00 0.  1.
         22    1    1    0    0    0 -0.15031461750E+02 -0.22361211803E+02 -0.49122121296E+00  0.26948282579E+02  0.00000000000E+00 0.  1.
</event>
<event>
 5    1  0.1766634E-003  0.9118800E+02  0.7818608E-02  0.1130116E+00
         25   -1    0    0    0    0  0.00000000000E+00  0.00000000000E+00  0.99999998245E-14  0.12500000000E+03  0.12500000000E+03 0.  0.
        -13    1    3    3    0    0 -0.38805944084E+02  0.21214538751E+02 -0.32843571919E+02  0.55087832877E+02  0.10566000000E+00 0. -1.
         23    2    1    0    0    0 -0.39441966473E+01  0.26108547205E+02 -0.16136737986E+02  0.94054770365E+02  0.88818312252E+02 0.  0.
         13    1    3    3    0    0  0.34861747437E+02  0.48940084539E+01  0.16706833933E+02  0.38966937488E+02  0.10566000000E+00 0.  1.
         22    1    1    0    0    0  0.39441966473E+01 -0.26108547205E+02  0.16136737986E+02  0.30945229635E+02  0.00000000000E+00 0. -1.
</event>
<event>
 5    1  0.1766634E-003  0.9118800E+02  0.7818608E-02  0.1130116E+00
         25   -1    0    0    0    0  0.00000000000E+00  0.00000000000E+00  0.99999998245E-14  0.12500000000E+03  0.12500000000E+03 0.  0.
        -13    1    3    3    0    0  0.73665338195E+01 -0.35703712927E+02  0.32801778049E+02  0.49040684584E+02  0.10566000000E+00 0.  1.
         23    2    1    0    0    0  0.26387337845E+02  0.11563161213E+01  0.78513523704E+01  0.97445102077E+02  0.93468045444E+02 0.  0.
         13    1    3    3    0    0  0.19020804025E+02  0.36860029049E+02 -0.24950425678E+02  0.48404417493E+02  0.10566000000E+00 0. -1.
         22    1    1    0    0    0 -0.26387337845E+02 -0.11563161213E+01 -0.78513523704E+01  0.27554897923E+02  0.00000000000E+00 0. -1.
</event>
<event>
 5    1  0.1766634E-003  0.9118800E+02  0.7818608E-02  0.1130116E+00
         25   -1    0    0    0    0  0.00000000000E+00  0.00000000000E+00  0.99999998245E-14  0.12500000000E+03  0.12500000000E+03 0.  0.
        -13    1    3    3    0    0 -0.29565102062E+02  0.27347337496E+02 -0.10461557163E+02  0.41610425020E+02  0.10566000000E+00 0.  1.
         23    2    1    0    0    0  0.18279900562E+01  0.11540475129E+02  0.28568680395E+02  0.94134264736E+02  0.88930119668E+02 0.  0.
         13    1    3    3    0    0  0.31393092118E+02 -0.15806862367E+02  0.39030237559E+02  0.52523839716E+02  0.10566000000E+00 0. -1.
         22    1    1    0    0    0 -0.18279900562E+01 -0.11540475129E+02 -0.28568680395E+02  0.30865735264E+02  0.00000000000E+00 0. -1.
</event>
<event>
 5    1  0.1766634E-003  0.9118800E+02  0.7818608E-02  0.1130116E+00
         25   -1    0    0    0    0  0.00000000000E+00  0.00000000000E+00  0.99999998245E-14  0.12500000000E+03  0.12500000000E+03 0.  0.
        -13    1    3    3    0    0  0.58848713306E+02 -0.12277651485E+02 -0.40517091071E+01  0.60252297006E+02  0.10566000000E+00 0. -1.
         23    2    1    0    0    0  0.25143784730E+02  0.11763947208E+01 -0.11542504663E+02  0.97308426752E+02  0.93285082880E+02 0.  0.
         13    1    3    3    0    0 -0.33704928576E+02  0.13454046205E+02 -0.74907955559E+01  0.37056129746E+02  0.10566000000E+00 0.  1.
         22    1    1    0    0    0 -0.25143784730E+02 -0.11763947208E+01  0.11542504663E+02  0.27691573248E+02  0.00000000000E+00 0. -1.
</event>
<event>
 5    1  0.1766634E-003  0.9118800E+02  0.7818608E-02  0.1130116E+00
         25   -1    0    0    0    0  0.00000000000E+00  0.00000000000E+00  0.99999998245E-14  0.12500000000E+03  0.12500000000E+03 0.  0.
        -13    1    3    3    0    0  0.66083193948E+01  0.73787064457E+01 -0.59853578611E+02  0.60667761048E+02  0.10566000000E+00 0. -1.
         23    2    1    0    0    0  0.35327671437E+01 -0.73885226543E+01 -0.26259140919E+02  0.97493397292E+02  0.93532611014E+02 0.  0.
         13    1    3    3    0    0 -0.30755522512E+01 -0.14767229100E+02  0.33594437692E+02  0.36825636244E+02  0.10566000000E+00 0.  1.
         22    1    1    0    0    0 -0.35327671437E+01  0.73885226543E+01  0.26259140919E+02  0.27506602708E+02  0.00000000000E+00 0. -1.
</event>
<event>
 5    1  0.1766634E-003  0.9118800E+02  0.7818608E-02  0.1130116E+00
         25   -1    0    0    0    0  0.00000000000E+00  0.00000000000E+00  0.99999998245E-14  0.12500000000E+03  0.12500000000E+03 0.  0.
        -13    1    3    3    0    0  0.48372915679E+02  0.69215528803E+01  0.37689605410E+02  0.61711946863E+02  0.10566000000E+00 0. -1.
         23    2    1    0    0    0  0.19553364168E+02  0.90955247821E+01  0.19940181576E+02  0.95628696613E+02  0.91006451163E+02 0.  0.
         13    1    3    3    0    0 -0.28819551512E+02  0.21739719018E+01 -0.17749423834E+02  0.33916749751E+02  0.10566000000E+00 0.  1.
         22    1    1    0    0    0 -0.19553364168E+02 -0.90955247821E+01 -0.19940181576E+02  0.29371303387E+02  0.00000000000E+00 0. -1.
</event>
<event>
 5    1  0.1766634E-003  0.9118800E+02  0.7818608E-02  0.1130116E+00
         25   -1    0    0    0    0  0.00000000000E+00  0.00000000000E+00  0.99999998245E-14  0.12500000000E+03  0.12500000000E+03 0.  0.
        -13    1    3    3    0    0  0.48547609064E+02  0.91325864976E+01 -0.26125707480E+02  0.55882360699E+02  0.10566000000E+00 0.  1.
         23    2    1    0    0    0  0.17963915549E+02  0.22196845090E+02 -0.32216620419E+01  0.96263589297E+02  0.91874356184E+02 0.  0.
         13    1    3    3    0    0 -0.30583693514E+02  0.13064258592E+02  0.22904045438E+02  0.40381228597E+02  0.10566000000E+00 0. -1.
         22    1    1    0    0    0 -0.17963915549E+02 -0.22196845090E+02  0.32216620419E+01  0.28736410703E+02  0.00000000000E+00 0.  1.
</event>
<event>
 5    1  0.1766634E-003  0.9118800E+02  0.7818608E-02  0.1130116E+00
         25   -1    0    0    0    0  0.00000000000E+00  0.00000000000E+00  0.99999998245E-14  0.12500000000E+03  0.12500000000E+03 0.  0.
        -13    1    3    3    0    0  0.57810162716E+01 -0.56567206855E+02  0.82079897184E+01  0.57451295022E+02  0.10566000000E+00 0. -1.
         23    2    1    0    0    0  0.71489285171E+01 -0.24987521684E+02 -0.13417950423E+02  0.95750644240E+02  0.91173795906E+02 0.  0.
         13    1    3    3    0    0  0.13679122455E+01  0.31579685171E+02 -0.21625940142E+02  0.38299349217E+02  0.10566000000E+00 0.  1.
         22    1    1    0    0    0 -0.71489285171E+01  0.24987521684E+02  0.13417950423E+02  0.29249355760E+02  0.00000000000E+00 0. -1.
</event>
<event>
 5    1  0.1766634E-003  0.9118800E+02  0.7818608E-02  0.1130116E+00
         25   -1    0    0    0    0  0.00000000000E+00  0.00000000000E+00  0.99999998245E-14  0.12500000000E+03  0.12500000000E+03 0.  0.
        -13    1    3    3    0    0 -0.76883846632E+01  0.35923742187E+02 -0.18828829931E+02  0.41281503268E+02  0.10566000000E+00 0.  1.
         23    2    1    0    0    0 -0.27889335541E+02 -0.76649732203E+01  0.61506058126E+01  0.95429798728E+02  0.90732847867E+02 0.  0.
         13    1    3    3    0    0 -0.20200950878E+02 -0.43588715407E+02  0.24979435743E+02  0.54148295461E+02  0.10566000000E+00 0. -1.
         22    1    1    0    0    0  0.27889335541E+02  0.76649732203E+01 -0.61506058126E+01  0.29570201272E+02  0.00000000000E+00 0. -1.
</event>
<event>
 5    1  0.1766634E-003  0.9118800E+02  0.7818608E-02  0.1130116E+00
         25   -1    0    0    0    0  0.00000000000E+00  0.00000000000E+00  0.99999998245E-14  0.12500000000E+03  0.12500000000E+03 0.  0.
        -13    1    3    3    0    0  0.33822589062E+02  0.37908681159E+01 -0.19974444828E+02  0.39462993071E+02  0.10566000000E+00 0.  1.
         23    2    1    0    0    0  0.16387515859E+01  0.21362176308E+02  0.21379669789E+02  0.94732552740E+02  0.89767133100E+02 0.  0.
         13    1    3    3    0    0 -0.32183837476E+02  0.17571308192E+02  0.41354114616E+02  0.55269559669E+02  0.10566000000E+00 0. -1.
         22    1    1    0    0    0 -0.16387515859E+01 -0.21362176308E+02 -0.21379669789E+02  0.30267447260E+02  0.00000000000E+00 0. -1.
</event>
<event>
 5    1  0.1766634E-003  0.9118800E+02  0.7818608E-02  0.1130116E+00
         25   -1    0    0    0    0  0.00000000000E+00  0.00000000000E+00  0.99999998245E-14  0.12500000000E+03  0.12500000000E+03 0.  0.
        -13    1    3    3    0    0  0.37225782185E+02  0.34518560302E+02  0.18436939289E+01  0.50800592870E+02  0.10566000000E+00 0.  1.
         23    2    1    0    0    0 -0.70747681057E+01  0.28252463531E+02  0.40412376325E+01  0.95596162819E+02  0.90961754077E+02 0.  0.
         13    1    3    3    0    0 -0.44300550290E+02 -0.62660967704E+01  0.21975437037E+01  0.44795569950E+02  0.10566000000E+00 0. -1.
         22    1    1    0    0    0  0.70747681057E+01 -0.28252463531E+02 -0.40412376325E+01  0.29403837181E+02  0.00000000000E+00 0.  1.
</event>
<event>
 5    1  0.1766634E-003  0.9118800E+02  0.7818608E-02  0.1130116E+00
         25   -1    0    0    0    0  0.00000000000E+00  0.00000000000E+00  0.99999998245E-14  0.12500000000E+03  0.12500000000E+03 0.  0.
        -13    1    3    3    0    0 -0.47394869559E+01 -0.70217804860E+00 -0.32291992052E+02  0.32645669014E+02  0.10566000000E+00 0. -1.
         23    2    1    0    0    0 -0.81651097680E+00  0.16588425316E+02  0.26318437220E+02  0.93879224265E+02  0.88570909820E+02 0.  0.
         13    1    3    3    0    0  0.39229759791E+01  0.17290603365E+02  0.58610429272E+02  0.61233555251E+02  0.10566000000E+00 0.  1.
         22    1    1    0    0    0  0.81651097680E+00 -0.16588425316E+02 -0.26318437220E+02  0.31120775735E+02  0.00000000000E+00 0.  1.
</event>
<event>
 5    1  0.1766634E-003  0.9118800E+02  0.7818608E-02  0.1130116E+00
         25   -1    0    0    0    0  0.00000000000E+00  0.00000000000E+00  0.99999998245E-14  0.12500000000E+03  0.12500000000E+03 0.  0.
        -13    1    3    3    0    0  0.16595869632E+01 -0.39869363591E+02  0.47276218870E+02  0.61865761263E+02  0.10566000000E+00 0. -1.
         23    2    1    0    0    0  0.14789737857E+01 -0.22276431939E+02  0.35589409865E+02  0.82987705634E+02  0.71567635203E+02 0.  0.
         13    1    3    3    0    0 -0.18061317750E+00  0.17592931652E+02 -0.11686809006E+02  0.21121944371E+02  0.10566000000E+00 0.  1.
         22    1    1    0    0    0 -0.14789737857E+01  0.22276431939E+02 -0.35589409865E+02  0.42012294366E+02  0.00000000000E+00 0. -1.
</event>
<event>
 5    1  0.1766634E-003  0.9118800E+02  0.7818608E-02  0.1130116E+00
         25   -1    0    0    0    0  0.00000000000E+00  0.00000000000E+00  0.99999998245E-14  0.12500000000E+03  0.12500000000E+03 0.  0.
        -13    1    3    3    0    0 -0.55527166574E+01  0.12726957168E+02 -0.34862911669E+02  0.37526548937E+02  0.10566000000E+00 0. -1.
         23    2    1    0    0    0  0.25419417984E+02  0.38715651110E+01  0.13748394896E+02  0.95842596322E+02  0.91299775906E+02 0.  0.
         13    1    3    3    0    0  0.30972134641E+02 -0.88553920572E+01  0.48611306564E+02  0.58316047385E+02  0.10566000000E+00 0.  1.
         22    1    1    0    0    0 -0.25419417984E+02 -0.38715651110E+01 -0.13748394896E+02  0.29157403678E+02  0.00000000000E+00 0. -1.
</event>
<event>
 5    1  0.1766634E-003  0.9118800E+02  0.7818608E-02  0.1130116E+00
         25   -1    0    0    0    0  0.00000000000E+00  0.00000000000E+00  0.99999998245E-14  0.12500000000E+03  0.12500000000E+03 0.  0.
        -13    1    3    3    0    0  0.21329645853E+02 -0.35723585521E+02  0.63227794951E-01  0.41607012828E+02  0.10566000000E+00 0.  1.
         23    2    1    0    0    0  0.19957212799E+02  0.74994186420E+01  0.25487051057E+02  0.91771677829E+02  0.85544838870E+02 0.  0.
         13    1    3    3    0    0 -0.13724330538E+01  0.43223004163E+02  0.25423823262E+02  0.50164665001E+02  0.10566000000E+00 0. -1.
         22    1    1    0    0    0 -0.19957212799E+02 -0.74994186420E+01 -0.25487051057E+02  0.33228322171E+02  0.00000000000E+00 0. -1.
</event>
<event>
 5    1  0.1766634E-003  0.9118800E+02  0.7818608E-02  0.1130116E+00
         25   -1    0    0    0    0  0.00000000000E+00  0.00000000000E+00  0.99999998245E-14  0.12500000000E+03  0.12500000000E+03 0.  0.
        -13    1    3    3    0    0  0.24956227113E+00  0.43499489471E+02 -0.35530865873E+02  0.56166907154E+02  0.10566000000E+00 0.  1.
         23    2    1    0    0    0  0.17826877319E+02  0.22961271181E+02 -0.77814759086E+01  0.94907328193E+02  0.90010177470E+02 0.  0.
         13    1    3    3    0    0  0.17577315048E+02 -0.20538218290E+02  0.27749389964E+02  0.38740421039E+02  0.10566000000E+00 0. -1.
         22    1    1    0    0    0 -0.17826877319E+02 -0.22961271181E+02  0.77814759086E+01  0.30092671807E+02  0.00000000000E+00 0.  1.
</event>
<event>
 5    1  0.1766634E-003  0.9118800E+02  0.7818608E-02  0.1130116E+00
         25   -1    0    0    0    0  0.00000000000E+00  0.00000000000E+00  0.99999998245E-14  0.12500000000E+03  0.12500000000E+03 0.  0.
        -13    1    3    3    0    0  0.12163256037E+02 -0.31841513843E+02  0.10586140757E+02  0.35691796556E+02  0.10566000000E+00 0. -1.
         23    2    1    0    0    0 -0.31671280186E+02 -0.12793718526E+02 -0.12315761475E+02  0.88689847108E+02  0.80916387567E+02 0.  0.
         13    1    3    3    0    0 -0.43834536223E+02  0.19047795317E+02 -0.22901902232E+02  0.52998050551E+02  0.10566000000E+00 0.  1.
         22    1    1    0    0    0  0.31671280186E+02  0.12793718526E+02  0.12315761475E+02  0.36310152892E+02  0.00000000000E+00 0.  1.
</event>
<event>
 5    1  0.1766634E-003  0.9118800E+02  0.7818608E-02  0.1130116E+00
         25   -1    0    0    0    0  0.00000000000E+00  0.00000000000E+00  0.99999998245E-14  0.12500000000E+03  0.12500000000E+03 0.  0.
        -13    1    3    3    0    0 -0.60461438631E+01 -0.46984948512E+02 -0.14912179336E+02  0.49664126881E+02  0.10566000000E+00 0.  1.
         23    2    1    0    0    0  0.98949687616E+01 -0.21997548063E+02  0.18701236042E+02  0.94478880147E+02  0.89413198337E+02 0.  0.
         13    1    3    3    0    0  0.15941112625E+02  0.24987400449E+02  0.33613415378E+02  0.44814753266E+02  0.10566000000E+00 0. -1.
         22    1    1    0    0    0 -0.98949687616E+01  0.21997548063E+02 -0.18701236042E+02  0.30521119853E+02  0.00000000000E+00 0.  1.
</event>
<event>
 5    1  0.1766634E-003  0.9118800E+02  0.7818608E-02  0.1130116E+00
         25   -1    0    0    0    0  0.00000000000E+00  0.00000000000E+00  0.99999998245E-14  0.12500000000E+03  0.12500000000E+03 0.  0.
        -13    1    3    3    0    0 -0.18190206786E+02 -0.12613016356E+02 -0.37262808925E+02  0.43341664684E+02  0.10566000000E+00 0. -1.
         23    2    1    0    0    0  0.29219613901E+01 -0.27500231785E+02  0.86504219672E+01  0.96023623297E+02  0.91547287367E+02 0.  0.
         13    1    3    3    0    0  0.21112168176E+02 -0.14887215429E+02  0.45913230892E+02  0.52681958614E+02  0.10566000000E+00 0.  1.
         22    1    1    0    0    0 -0.29219613901E+01  0.27500231785E+02 -0.86504219672E+01  0.28976376703E+02  0.00000000000E+00 0.  1.
</event>
<event>
 5    1  0.1766634E-003  0.9118800E+02  0.7818608E-02  0.1130116E+00
         25   -1    0    0    0    0  0.00000000000E+00  0.00000000000E+00  0.99999998245E-14  0.12500000000E+03  0.12500000000E+03 0.  0.
        -13    1    3    3    0    0 -0.40488712106E+02 -0.54352423676E+01  0.18618658359E+02  0.44894802268E+02  0.10566000000E+00 0.  1.
         23    2    1    0    0    0  0.92973365335E+01 -0.12221480997E+02  0.25117966902E+02  0.95559936724E+02  0.90911958405E+02 0.  0.
         13    1    3    3    0    0  0.49786048639E+02 -0.67862386297E+01  0.64993085432E+01  0.50665134456E+02  0.10566000000E+00 0. -1.
         22    1    1    0    0    0 -0.92973365335E+01  0.12221480997E+02 -0.25117966902E+02  0.29440063276E+02  0.00000000000E+00 0.  1.
</event>
<event>
 5    1  0.1766634E-003  0.9118800E+02  0.7818608E-02  0.1130116E+00
         25   -1    0    0    0    0  0.00000000000E+00  0.00000000000E+00  0.99999998245E-14  0.12500000000E+03  0.12500000000E+03 0.  0.
        -13    1    3    3    0    0  0.10009569600E+02 -0.35976112737E+02 -0.24917833349E+01  0.37425824232E+02  0.10566000000E+00 0. -1.
         23    2    1    0    0    0  0.16921509318E+02  0.20181984782E+02 -0.14010086199E+02  0.95168263499E+02  0.90371820136E+02 0.  0.
         13    1    3    3    0    0  0.69119397178E+01  0.56158097519E+02 -0.11518302865E+02  0.57742439267E+02  0.10566000000E+00 0.  1.
         22    1    1    0    0    0 -0.16921509318E+02 -0.20181984782E+02  0.14010086199E+02  0.29831736501E+02  0.00000000000E+00 0.  1.
</event>
<event>
 5    1  0.1766634E-003  0.9118800E+02  0.7818608E-02  0.1130116E+00
         25   -1    0    0    0    0  0.00000000000E+00  0.00000000000E+00  0.99999998245E-14  0.12500000000E+03  0.12500000000E+03 0.  0.
        -13    1    3    3    0    0 -0.21112916114E+02 -0.47338501736E+02  0.86057813815E+01  0.52542931120E+02  0.10566000000E+00 0. -1.
         23    2    1    0    0    0 -0.30013015679E+02 -0.12374184733E+02 -0.68962689488E+01  0.91811747811E+02  0.85603369984E+02 0.  0.
         13    1    3    3    0    0 -0.89000995657E+01  0.34964317003E+02 -0.15502050330E+02  0.39268816690E+02  0.10566000000E+00 0.  1.
         22    1    1    0    0    0  0.30013015679E+02  0.12374184733E+02  0.68962689488E+01  0.33188252189E+02  0.00000000000E+00 0. -1.
</event>
<event>
 5    1  0.1766634E-003  0.9118800E+02  0.7818608E-02  0.1130116E+00
         25   -1    0    0    0    0  0.00000000000E+00  0.00000000000E+00  0.99999998245E-14  0.12500000000E+03  0.12500000000E+03 0.  0.
        -13    1    3    3    0    0 -0.31884796173E+02  0.11639972917E+02  0.31196132529E+02  0.46101399602E+02  0.10566000000E+00 0. -1.
         23    2    1    0    0    0  0.15798562551E+02  0.15565182945E+02  0.19764773850E+02  0.95292832782E+02  0.90543957255E+02 0.  0.
         13    1    3    3    0    0  0.47683358724E+02  0.39252100285E+01 -0.11431358679E+02  0.49191433179E+02  0.10566000000E+00 0.  1.
         22    1    1    0    0    0 -0.15798562551E+02 -0.15565182945E+02 -0.19764773850E+02  0.29707167218E+02  0.00000000000E+00 0. -1.
</event>
<event>
 5    1  0.1766634E-003  0.9118800E+02  0.7818608E-02  0.1130116E+00
         25   -1    0    0    0    0  0.00000000000E+00  0.00000000000E+00  0.99999998245E-14  0.12500000000E+03  0.12500000000E+03 0.  0.
        -13    1    3    3    0    0 -0.13097374444E+02  0.12200556875E+02  0.25824599377E+02  0.31421583385E+02  0.10566000000E+00 0. -1.
         23    2    1    0    0    0  0.24605461837E+01 -0.37481761560E+00 -0.32151623453E+02  0.92752183540E+02  0.86965774216E+02 0.  0.
         13    1    3    3    0    0  0.15557920628E+02 -0.12575374491E+02 -0.57976222830E+02  0.61330600156E+02  0.10566000000E+00 0.  1.
         22    1    1    0    0    0 -0.24605461837E+01  0.37481761560E+00  0.32151623453E+02  0.32247816460E+02  0.00000000000E+00 0.  1.
</event>
<event>
 5    1  0.1766634E-003  0.9118800E+02  0.7818608E-02  0.1130116E+00
         25   -1    0    0    0    0  0.00000000000E+00  0.00000000000E+00  0.99999998245E-14  0.12500000000E+03  0.12500000000E+03 0.  0.
        -13    1    3    3    0    0 -0.30871088774E+02 -0.25266707156E+02  0.20747595319E+02  0.44965592270E+02  0.10566000000E+00 0.  1.
         23    2    1    0    0    0  0.27997469800E+01  0.12181872712E+02  0.26546111916E+02  0.95658345926E+02  0.91047166247E+02 0.  0.
         13    1    3    3    0    0  0.33670835754E+02  0.37448579868E+02  0.57985165967E+01  0.50692753657E+02  0.10566000000E+00 0. -1.
         22    1    1    0    0    0 -0.27997469800E+01 -0.12181872712E+02 -0.26546111916E+02  0.29341654074E+02  0.00000000000E+00 0. -1.
</event>
<event>
 5    1  0.1766634E-003  0.9118800E+02  0.7818608E-02  0.1130116E+00
         25   -1    0    0    0    0  0.00000000000E+00  0.00000000000E+00  0.99999998245E-14  0.12500000000E+03  0.12500000000E+03 0.  0.
        -13    1    3    3    0    0  0.32634709770E+02  0.37880156463E+02  0.37303609329E+02  0.62381896160E+02  0.10566000000E+00 0.  1.
         23    2    1    0    0    0  0.18000996636E+02  0.17523083957E+02  0.16687410595E+02  0.94841020846E+02  0.89918047196E+02 0.  0.
         13    1    3    3    0    0 -0.14633713134E+02 -0.20357072506E+02 -0.20616198735E+02  0.32459124687E+02  0.10566000000E+00 0. -1.
         22    1    1    0    0    0 -0.18000996636E+02 -0.17523083957E+02 -0.16687410595E+02  0.30158979154E+02  0.00000000000E+00 0.  1.
</event>
<event>
 5    1  0.1766634E-003  0.9118800E+02  0.7818608E-02  0.1130116E+00
         25   -1    0    0    0    0  0.00000000000E+00  0.00000000000E+00  0.99999998245E-14  0.12500000000E+03  0.12500000000E+03 0.  0.
        -13    1    3    3    0    0  0.55209628640E+02  0.81738873268E+01 -0.11384262021E+02  0.56960759426E+02  0.10566000000E+00 0.  1.
         23    2    1    0    0    0  0.18411256830E+02  0.58706648420E+01 -0.22375586960E+02  0.95434716717E+02  0.90739622984E+02 0.  0.
         13    1    3    3    0    0 -0.36798371810E+02 -0.23032224847E+01 -0.10991324939E+02  0.38473957291E+02  0.10566000000E+00 0. -1.
         22    1    1    0    0    0 -0.18411256830E+02 -0.58706648420E+01  0.22375586960E+02  0.29565283283E+02  0.00000000000E+00 0.  1.
</event>
<event>
 5    1  0.1766634E-003  0.9118800E+02  0.7818608E-02  0.1130116E+00
         25   -1    0    0    0    0  0.00000000000E+00  0.00000000000E+00  0.99999998245E-14  0.12500000000E+03  0.12500000000E+03 0.  0.
        -13    1    3    3    0    0 -0.28541310483E+02 -0.15284130747E+02  0.29673597116E+02  0.43917474729E+02  0.10566000000E+00 0.  1.
         23    2    1    0    0    0  0.21636028330E+02 -0.57912367468E+01  0.17909208272E+02  0.96322554404E+02  0.91954546386E+02 0.  0.
         13    1    3    3    0    0  0.50177338813E+02  0.94928940007E+01 -0.11764388844E+02  0.52405079675E+02  0.10566000000E+00 0. -1.
         22    1    1    0    0    0 -0.21636028330E+02  0.57912367468E+01 -0.17909208272E+02  0.28677445596E+02  0.00000000000E+00 0. -1.
</event>
<event>
 5    1  0.1766634E-003  0.9118800E+02  0.7818608E-02  0.1130116E+00
         25   -1    0    0    0    0  0.00000000000E+00  0.00000000000E+00  0.99999998245E-14  0.12500000000E+03  0.12500000000E+03 0.  0.
        -13    1    3    3    0    0  0.99206229914E+01 -0.31649784743E+02  0.41716400917E+02  0.53295374136E+02  0.10566000000E+00 0. -1.
         23    2    1    0    0    0 -0.19449548412E+02 -0.14943659084E+02  0.17137052231E+02  0.95078829578E+02  0.90248032636E+02 0.  0.
         13    1    3    3    0    0 -0.29370171404E+02  0.16706125659E+02 -0.24579348686E+02  0.41783455442E+02  0.10566000000E+00 0.  1.
         22    1    1    0    0    0  0.19449548412E+02  0.14943659084E+02 -0.17137052231E+02  0.29921170422E+02  0.00000000000E+00 0. -1.
</event>
<event>
 5    1  0.1766634E-003  0.9118800E+02  0.7818608E-02  0.1130116E+00
         25   -1    0    0    0    0  0.00000000000E+00  0.00000000000E+00  0.99999998245E-14  0.12500000000E+03  0.12500000000E+03 0.  0.
        -13    1    3    3    0    0 -0.13655981339E+02  0.60100932827E+02  0.98109433341E+01  0.62408923450E+02  0.10566000000E+00 0.  1.
         23    2    1    0    0    0 -0.36162044060E+01  0.26586128445E+02  0.42406416374E+01  0.97836012784E+02  0.93989378102E+02 0.  0.
         13    1    3    3    0    0  0.10039776933E+02 -0.33514804383E+02 -0.55703016966E+01  0.35427089334E+02  0.10566000000E+00 0. -1.
         22    1    1    0    0    0  0.36162044060E+01 -0.26586128445E+02 -0.42406416374E+01  0.27163987216E+02  0.00000000000E+00 0.  1.
</event>
<event>
 5    1  0.1766634E-003  0.9118800E+02  0.7818608E-02  0.1130116E+00
         25   -1    0    0    0    0  0.00000000000E+00  0.00000000000E+00  0.99999998245E-14  0.12500000000E+03  0.12500000000E+03 0.  0.
        -13    1    3    3    0    0  0.26865239835E+02  0.31179252559E+02  0.33579195952E+02  0.53117421496E+02  0.10566000000E+00 0. -1.
         23    2    1    0    0    0  0.16771327812E+02 -0.88015386584E+01  0.22045374952E+02  0.95935535854E+02  0.91426932375E+02 0.  0.
         13    1    3    3    0    0 -0.10093912023E+02 -0.39980791218E+02 -0.11533821000E+02  0.42818114359E+02  0.10566000000E+00 0.  1.
         22    1    1    0    0    0 -0.16771327812E+02  0.88015386584E+01 -0.22045374952E+02  0.29064464146E+02  0.00000000000E+00 0.  1.
</event>
<event>
 5    1  0.1766634E-003  0.9118800E+02  0.7818608E-02  0.1130116E+00
         25   -1    0    0    0    0  0.00000000000E+00  0.00000000000E+00  0.99999998245E-14  0.12500000000E+03  0.12500000000E+03 0.  0.
        -13    1    3    3    0    0 -0.14779542572E+02  0.11140603855E+02 -0.55659802835E+02  0.58656395632E+02  0.10566000000E+00 0.  1.
         23    2    1    0    0    0 -0.23452594893E+01  0.19414431553E+02 -0.21510903645E+02  0.95928719151E+02  0.91417612022E+02 0.  0.
         13    1    3    3    0    0  0.12434283082E+02  0.82738276979E+01  0.34148899191E+02  0.37272323519E+02  0.10566000000E+00 0. -1.
         22    1    1    0    0    0  0.23452594893E+01 -0.19414431553E+02  0.21510903645E+02  0.29071280849E+02  0.00000000000E+00 0.  1.
</event>
<event>
 5    1  0.1766634E-003  0.9118800E+02  0.7818608E-02  0.1130116E+00
         25   -1    0    0    0    0  0.00000000000E+00  0.00000000000E+00  0.99999998245E-14  0.12500000000E+03  0.12500000000E+03 0.  0.
        -13    1    3    3    0    0 -0.33477048247E+02 -0.17311716949E+02  0.13253258349E+02  0.39950823821E+02  0.10566000000E+00 0.  1.
         23    2    1    0    0    0  0.97335526328E+00  0.27460221907E+02  0.55786934330E+01  0.96961936086E+02  0.92819631659E+02 0.  0.
         13    1    3    3    0    0  0.34450403510E+02  0.44771938856E+02 -0.76745649163E+01  0.57011112265E+02  0.10566000000E+00 0. -1.
         22    1    1    0    0    0 -0.97335526328E+00 -0.27460221907E+02 -0.55786934330E+01  0.28038063914E+02  0.00000000000E+00 0. -1.
</event>
<event>
 5    1  0.1766634E-003  0.9118800E+02  0.7818608E-02  0.1130116E+00
         25   -1    0    0    0    0  0.00000000000E+00  0.00000000000E+00  0.99999998245E-14  0.12500000000E+03  0.12500000000E+03 0.  0.
        -13    1    3    3    0    0  0.22058616304E+02 -0.47316062669E+02  0.24920050542E+02  0.57848184265E+02  0.10566000000E+00 0. -1.
         23    2    1    0    0    0  0.40652052018E+01 -0.13569508080E+02  0.25198126999E+02  0.96093200676E+02  0.91642240092E+02 0.  0.
         13    1    3    3    0    0 -0.17993411103E+02  0.33746554589E+02  0.27807645758E+00  0.38245016411E+02  0.10566000000E+00 0.  1.
         22    1    1    0    0    0 -0.40652052018E+01  0.13569508080E+02 -0.25198126999E+02  0.28906799324E+02  0.00000000000E+00 0. -1.
</event>
<event>
 5    1  0.1766634E-003  0.9118800E+02  0.7818608E-02  0.1130116E+00
         25   -1    0    0    0    0  0.00000000000E+00  0.00000000000E+00  0.99999998245E-14  0.12500000000E+03  0.12500000000E+03 0.  0.
        -13    1    3    3    0    0 -0.27693475921E+02  0.20344722564E+02 -0.43545861519E+02  0.55471520299E+02  0.10566000000E+00 0.  1.
         23    2    1    0    0    0 -0.91981321230E+00 -0.44845853852E+01 -0.30363964168E+02  0.94292869192E+02  0.89152775044E+02 0.  0.
         13    1    3    3    0    0  0.26773662709E+02 -0.24829307949E+02  0.13181897351E+02  0.38821348893E+02  0.10566000000E+00 0. -1.
         22    1    1    0    0    0  0.91981321230E+00  0.44845853852E+01  0.30363964168E+02  0.30707130808E+02  0.00000000000E+00 0.  1.
</event>
<event>
 5    1  0.1766634E-003  0.9118800E+02  0.7818608E-02  0.1130116E+00
         25   -1    0    0    0    0  0.00000000000E+00  0.00000000000E+00  0.99999998245E-14  0.12500000000E+03  0.12500000000E+03 0.  0.
        -13    1    3    3    0    0  0.28399981014E+02  0.66425759630E+01  0.15008049380E+02  0.32801454957E+02  0.10566000000E+00 0. -1.
         23    2    1    0    0    0 -0.24612878458E+02 -0.14467150941E+02 -0.95109647787E+01  0.94907630646E+02  0.90010597495E+02 0.  0.
         13    1    3    3    0    0 -0.53012859472E+02 -0.21109726904E+02 -0.24519014159E+02  0.62106175689E+02  0.10566000000E+00 0.  1.
         22    1    1    0    0    0  0.24612878458E+02  0.14467150941E+02  0.95109647787E+01  0.30092369354E+02  0.00000000000E+00 0.  1.
</event>
<event>
 5    1  0.1766634E-003  0.9118800E+02  0.7818608E-02  0.1130116E+00
         25   -1    0    0    0    0  0.00000000000E+00  0.00000000000E+00  0.99999998245E-14  0.12500000000E+03  0.12500000000E+03 0.  0.
        -13    1    3    3    0    0 -0.35943140474E+02 -0.14885325836E+02  0.16000112501E+02  0.42065390008E+02  0.10566000000E+00 0.  1.
         23    2    1    0    0    0 -0.95034952190E+01  0.56703207632E+01 -0.26562615460E+02  0.96224289774E+02  0.91820871503E+02 0.  0.
         13    1    3    3    0    0  0.26439645255E+02  0.20555646600E+02 -0.42562727961E+02  0.54158899766E+02  0.10566000000E+00 0. -1.
         22    1    1    0    0    0  0.95034952190E+01 -0.56703207632E+01  0.26562615460E+02  0.28775710226E+02  0.00000000000E+00 0. -1.
</event>
<event>
 5    1  0.1766634E-003  0.9118800E+02  0.7818608E-02  0.1130116E+00
         25   -1    0    0    0    0  0.00000000000E+00  0.00000000000E+00  0.99999998245E-14  0.12500000000E+03  0.12500000000E+03 0.  0.
        -13    1    3    3    0    0 -0.14039942071E+02  0.33243107167E+02  0.13392049838E+02  0.38491327729E+02  0.10566000000E+00 0.  1.
         23    2    1    0    0    0  0.25495351631E+02 -0.52624872235E+00 -0.12527578155E+02  0.96588204793E+02  0.92314956525E+02 0.  0.
         13    1    3    3    0    0  0.39535293701E+02 -0.33769355889E+02 -0.25919627993E+02  0.58096877064E+02  0.10566000000E+00 0. -1.
         22    1    1    0    0    0 -0.25495351631E+02  0.52624872235E+00  0.12527578155E+02  0.28411795207E+02  0.00000000000E+00 0. -1.
</event>
<event>
 5    1  0.1766634E-003  0.9118800E+02  0.7818608E-02  0.1130116E+00
         25   -1    0    0    0    0  0.00000000000E+00  0.00000000000E+00  0.99999998245E-14  0.12500000000E+03  0.12500000000E+03 0.  0.
        -13    1    3    3    0    0 -0.19539370241E+02 -0.14196712280E+02  0.40953070007E+02  0.47544702502E+02  0.10566000000E+00 0.  1.
         23    2    1    0    0    0 -0.16237955635E+02  0.22411315076E+02  0.10083140209E+02  0.95544814325E+02  0.90891163384E+02 0.  0.
         13    1    3    3    0    0  0.33014146059E+01  0.36608027355E+02 -0.30869929798E+02  0.48000111823E+02  0.10566000000E+00 0. -1.
         22    1    1    0    0    0  0.16237955635E+02 -0.22411315076E+02 -0.10083140209E+02  0.29455185675E+02  0.00000000000E+00 0. -1.
</event>
<event>
 5    1  0.1766634E-003  0.9118800E+02  0.7818608E-02  0.1130116E+00
         25   -1    0    0    0    0  0.00000000000E+00  0.00000000000E+00  0.99999998245E-14  0.12500000000E+03  0.12500000000E+03 0.  0.
        -13    1    3    3    0    0  0.96688500331E-01  0.12421160387E+02 -0.49712651355E+02  0.51241130381E+02  0.10566000000E+00 0. -1.
         23    2    1    0    0    0 -0.22207767510E+02  0.18743313923E+02 -0.17010620197E+02  0.91327192661E+02  0.84892862864E+02 0.  0.
         13    1    3    3    0    0 -0.22304456010E+02  0.63221535357E+01  0.32702031157E+02  0.40086062280E+02  0.10566000000E+00 0.  1.
         22    1    1    0    0    0  0.22207767510E+02 -0.18743313923E+02  0.17010620197E+02  0.33672807339E+02  0.00000000000E+00 0. -1.
</event>
<event>
 5    1  0.1766634E-003  0.9118800E+02  0.7818608E-02  0.1130116E+00
         25   -1    0    0    0    0  0.00000000000E+00  0.00000000000E+00  0.99999998245E-14  0.12500000000E+03  0.12500000000E+03 0.  0.
        -13    1    3    3    0    0  0.17749283998E+02 -0.39708434690E+02  0.44502165936E+02  0.62227412006E+02  0.10566000000E+00 0. -1.
         23    2    1    0    0    0  0.10326506133E+02 -0.20403118183E+02  0.17698681967E+02  0.96083442392E+02  0.91628928828E+02 0.  0.
         13    1    3    3    0    0 -0.74227778646E+01  0.19305316507E+02 -0.26803483968E+02  0.33856030387E+02  0.10566000000E+00 0.  1.
         22    1    1    0    0    0 -0.10326506133E+02  0.20403118183E+02 -0.17698681967E+02  0.28916557608E+02  0.00000000000E+00 0. -1.
</event>
<event>
 5    1  0.1766634E-003  0.9118800E+02  0.7818608E-02  0.1130116E+00
         25   -1    0    0    0    0  0.00000000000E+00  0.00000000000E+00  0.99999998245E-14  0.12500000000E+03  0.12500000000E+03 0.  0.
        -13    1    3    3    0    0 -0.15076358795E+02 -0.51840167165E+02  0.30031494268E+02  0.61778647915E+02  0.10566000000E+00 0. -1.
         23    2    1    0    0    0 -0.68118230262E+01 -0.18679608982E+02  0.18485596121E+02  0.97851409086E+02  0.94009851991E+02 0.  0.
         13    1    3    3    0    0  0.82645357689E+01  0.33160558182E+02 -0.11545898147E+02  0.36072761171E+02  0.10566000000E+00 0.  1.
         22    1    1    0    0    0  0.68118230262E+01  0.18679608982E+02 -0.18485596121E+02  0.27148590914E+02  0.00000000000E+00 0. -1.
</event>
<event>
 5    1  0.1766634E-003  0.9118800E+02  0.7818608E-02  0.1130116E+00
         25   -1    0    0    0    0  0.00000000000E+00  0.00000000000E+00  0.99999998245E-14  0.12500000000E+03  0.12500000000E+03 0.  0.
        -13    1    3    3    0    0 -0.20241028269E+01  0.43418474589E+02 -0.41859907435E+02  0.60345040744E+02  0.10566000000E+00 0. -1.
         23    2    1    0    0    0  0.21050615132E+00  0.26672672401E+02 -0.98015744719E+01  0.96582635098E+02  0.92307414515E+02 0.  0.
         13    1    3    3    0    0  0.22346089782E+01 -0.16745802188E+02  0.32058332963E+02  0.36237594354E+02  0.10566000000E+00 0.  1.
         22    1    1    0    0    0 -0.21050615132E+00 -0.26672672401E+02  0.98015744719E+01  0.28417364902E+02  0.00000000000E+00 0. -1.
</event>
<event>
 5    1  0.1766634E-003  0.9118800E+02  0.7818608E-02  0.1130116E+00
         25   -1    0    0    0    0  0.00000000000E+00  0.00000000000E+00  0.99999998245E-14  0.12500000000E+03  0.12500000000E+03 0.  0.
        -13    1    3    3    0    0  0.87687318887E+01 -0.41075073193E+02  0.17616677408E+02  0.45545699947E+02  0.10566000000E+00 0. -1.
         23    2    1    0    0    0 -0.24808533361E+02 -0.16100637735E+02 -0.76792566745E+01  0.94444070198E+02  0.89364520642E+02 0.  0.
         13    1    3    3    0    0 -0.33577265249E+02  0.24974435458E+02 -0.25295934083E+02  0.48898370251E+02  0.10566000000E+00 0.  1.
         22    1    1    0    0    0  0.24808533361E+02  0.16100637735E+02  0.76792566745E+01  0.30555929802E+02  0.00000000000E+00 0.  1.
</event>
<event>
 5    1  0.1766634E-003  0.9118800E+02  0.7818608E-02  0.1130116E+00
         25   -1    0    0    0    0  0.00000000000E+00  0.00000000000E+00  0.99999998245E-14  0.12500000000E+03  0.12500000000E+03 0.  0.
        -13    1    3    3    0    0 -0.32862676294E+02  0.48084320966E+02  0.38263531430E+01  0.58367024580E+02  0.10566000000E+00 0. -1.
         23    2    1    0    0    0 -0.27224230867E+02  0.11787267180E+02  0.37323660448E+01  0.95099682775E+02  0.90276911188E+02 0.  0.
         13    1    3    3    0    0  0.56384454264E+01 -0.36297053786E+02 -0.93987098192E-01  0.36732658194E+02  0.10566000000E+00 0.  1.
         22    1    1    0    0    0  0.27224230867E+02 -0.11787267180E+02 -0.37323660448E+01  0.29900317225E+02  0.00000000000E+00 0. -1.
</event>
<event>
 5    1  0.1766634E-003  0.9118800E+02  0.7818608E-02  0.1130116E+00
         25   -1    0    0    0    0  0.00000000000E+00  0.00000000000E+00  0.99999998245E-14  0.12500000000E+03  0.12500000000E+03 0.  0.
        -13    1    3    3    0    0  0.51781841265E+02  0.54277092834E+00 -0.30778730479E+02  0.60241141249E+02  0.10566000000E+00 0. -1.
         23    2    1    0    0    0  0.27802053317E+02 -0.92502060337E+01 -0.82761881952E+01  0.94553066306E+02  0.89516850796E+02 0.  0.
         13    1    3    3    0    0 -0.23979787948E+02 -0.97929769620E+01  0.22502542284E+02  0.34311925057E+02  0.10566000000E+00 0.  1.
         22    1    1    0    0    0 -0.27802053317E+02  0.92502060337E+01  0.82761881952E+01  0.30446933694E+02  0.00000000000E+00 0. -1.
</event>
<event>
 4    1  0.1766634E-003  0.9118800E+02  0.7818608E-02  0.1130116E+00
         25   -1    0    0    0    0  0.00000000000E+00  0.00000000000E+00  0.99999998245E-14  0.12500000000E+03  0.12500000000E+03 0.  0.
        -13    1    1    0    0    0 -0.37742945977E+02 -0.29646753778E+02  0.34035525405E+02  0.58837812113E+02  0.10566000000E+00 0. -1.
         13    1    1    0    0    0  0.41162398102E+01 -0.37946577725E+01 -0.13246243883E+02  0.14381133434E+02  0.10566000000E+00 0.  1.
         22    1    1    0    0    0  0.33626706167E+02  0.33441411551E+02 -0.20789281521E+02  0.51781054453E+02  0.00000000000E+00 0. -1.
</event>
<event>
 5    1  0.1766634E-003  0.9118800E+02  0.7818608E-02  0.1130116E+00
         25   -1    0    0    0    0  0.00000000000E+00  0.00000000000E+00  0.99999998245E-14  0.12500000000E+03  0.12500000000E+03 0.  0.
        -13    1    3    3    0    0  0.34774547252E+02  0.20831367372E+02  0.35865343810E+02  0.54125308811E+02  0.10566000000E+00 0. -1.
         23    2    1    0    0    0 -0.20157145303E+01  0.80087430734E+01  0.30436897156E+02  0.93462597139E+02  0.87980959786E+02 0.  0.
         13    1    3    3    0    0 -0.36790261783E+02 -0.12822624299E+02 -0.54284466539E+01  0.39337288329E+02  0.10566000000E+00 0.  1.
         22    1    1    0    0    0  0.20157145303E+01 -0.80087430734E+01 -0.30436897156E+02  0.31537402861E+02  0.00000000000E+00 0. -1.
</event>
<event>
 5    1  0.1766634E-003  0.9118800E+02  0.7818608E-02  0.1130116E+00
         25   -1    0    0    0    0  0.00000000000E+00  0.00000000000E+00  0.99999998245E-14  0.12500000000E+03  0.12500000000E+03 0.  0.
        -13    1    3    3    0    0 -0.24293305642E+02 -0.88726232295E+01  0.40362132501E+02  0.47937470167E+02  0.10566000000E+00 0.  1.
         23    2    1    0    0    0 -0.27411431771E+02 -0.22292702713E+01 -0.76074555835E+01  0.96465290993E+02  0.92148373552E+02 0.  0.
         13    1    3    3    0    0 -0.31181261291E+01  0.66433529583E+01 -0.47969588084E+02  0.48527820826E+02  0.10566000000E+00 0. -1.
         22    1    1    0    0    0  0.27411431771E+02  0.22292702713E+01  0.76074555835E+01  0.28534709007E+02  0.00000000000E+00 0. -1.
</event>
<event>
 5    1  0.1766634E-003  0.9118800E+02  0.7818608E-02  0.1130116E+00
         25   -1    0    0    0    0  0.00000000000E+00  0.00000000000E+00  0.99999998245E-14  0.12500000000E+03  0.12500000000E+03 0.  0.
        -13    1    3    3    0    0 -0.11801853067E+01 -0.26579836212E+02  0.32524923488E+02  0.42020975028E+02  0.10566000000E+00 0.  1.
         23    2    1    0    0    0 -0.26714287506E+02 -0.32328275303E+02  0.92578017608E+00  0.83052084558E+02  0.71679991207E+02 0.  0.
         13    1    3    3    0    0 -0.25534102200E+02 -0.57484390908E+01 -0.31599143312E+02  0.41031109529E+02  0.10566000000E+00 0. -1.
         22    1    1    0    0    0  0.26714287506E+02  0.32328275303E+02 -0.92578017608E+00  0.41947915442E+02  0.00000000000E+00 0.  1.
</event>
<event>
 5    1  0.1766634E-003  0.9118800E+02  0.7818608E-02  0.1130116E+00
         25   -1    0    0    0    0  0.00000000000E+00  0.00000000000E+00  0.99999998245E-14  0.12500000000E+03  0.12500000000E+03 0.  0.
        -13    1    3    3    0    0  0.47654952626E+02  0.22235142512E+02  0.18731750045E+02  0.55823701920E+02  0.10566000000E+00 0. -1.
         23    2    1    0    0    0  0.31189258200E+02 -0.41569565143E+01 -0.24214078764E+01  0.93441905466E+02  0.87951556930E+02 0.  0.
         13    1    3    3    0    0 -0.16465694426E+02 -0.26392099026E+02 -0.21153157921E+02  0.37618203546E+02  0.10566000000E+00 0.  1.
         22    1    1    0    0    0 -0.31189258200E+02  0.41569565143E+01  0.24214078764E+01  0.31558094534E+02  0.00000000000E+00 0. -1.
</event>
<event>
 5    1  0.1766634E-003  0.9118800E+02  0.7818608E-02  0.1130116E+00
         25   -1    0    0    0    0  0.00000000000E+00  0.00000000000E+00  0.99999998245E-14  0.12500000000E+03  0.12500000000E+03 0.  0.
        -13    1    3    3    0    0  0.35410152686E+02 -0.65385812636E+01  0.18819832638E+01  0.36058077920E+02  0.10566000000E+00 0.  1.
         23    2    1    0    0    0 -0.16045576387E+02  0.20252710556E+02 -0.13179772162E+02  0.95994152302E+02  0.91507038393E+02 0.  0.
         13    1    3    3    0    0 -0.51455729073E+02  0.26791291819E+02 -0.15061755426E+02  0.59936074382E+02  0.10566000000E+00 0. -1.
         22    1    1    0    0    0  0.16045576387E+02 -0.20252710556E+02  0.13179772162E+02  0.29005847698E+02  0.00000000000E+00 0. -1.
</event>
<event>
 5    1  0.1766634E-003  0.9118800E+02  0.7818608E-02  0.1130116E+00
         25   -1    0    0    0    0  0.00000000000E+00  0.00000000000E+00  0.99999998245E-14  0.12500000000E+03  0.12500000000E+03 0.  0.
        -13    1    3    3    0    0  0.96015268600E+01 -0.22435809817E+02  0.20457606084E+02  0.31844617926E+02  0.10566000000E+00 0. -1.
         23    2    1    0    0    0  0.35762358876E+01  0.31250168637E+02 -0.74866596083E+01  0.92667159496E+02  0.86843479168E+02 0.  0.
         13    1    3    3    0    0 -0.60252909725E+01  0.53685978454E+02 -0.27944265692E+02  0.60822541569E+02  0.10566000000E+00 0.  1.
         22    1    1    0    0    0 -0.35762358876E+01 -0.31250168637E+02  0.74866596083E+01  0.32332840504E+02  0.00000000000E+00 0.  1.
</event>
<event>
 5    1  0.1766634E-003  0.9118800E+02  0.7818608E-02  0.1130116E+00
         25   -1    0    0    0    0  0.00000000000E+00  0.00000000000E+00  0.99999998245E-14  0.12500000000E+03  0.12500000000E+03 0.  0.
        -13    1    3    3    0    0 -0.48586068716E+02 -0.15331074568E+02  0.19641565635E+02  0.54602657310E+02  0.10566000000E+00 0.  1.
         23    2    1    0    0    0 -0.10062134691E+02 -0.68491123458E+01  0.27591848732E+02  0.94842629244E+02  0.89920283090E+02 0.  0.
         13    1    3    3    0    0  0.38523934024E+02  0.84819622225E+01  0.79502830974E+01  0.40239971934E+02  0.10566000000E+00 0. -1.
         22    1    1    0    0    0  0.10062134691E+02  0.68491123458E+01 -0.27591848732E+02  0.30157370756E+02  0.00000000000E+00 0.  1.
</event>
<event>
 5    1  0.1766634E-003  0.9118800E+02  0.7818608E-02  0.1130116E+00
         25   -1    0    0    0    0  0.00000000000E+00  0.00000000000E+00  0.99999998245E-14  0.12500000000E+03  0.12500000000E+03 0.  0.
        -13    1    3    3    0    0 -0.19985991052E+02 -0.49100686906E+02  0.26357320292E+02  0.59203351172E+02  0.10566000000E+00 0.  1.
         23    2    1    0    0    0 -0.84121160767E+01 -0.14252640135E+02  0.23798866043E+02  0.96012287557E+02  0.91531808074E+02 0.  0.
         13    1    3    3    0    0  0.11573874975E+02  0.34848046771E+02 -0.25584542488E+01  0.36808936386E+02  0.10566000000E+00 0. -1.
         22    1    1    0    0    0  0.84121160767E+01  0.14252640135E+02 -0.23798866043E+02  0.28987712443E+02  0.00000000000E+00 0.  1.
</event>
<event>
 5    1  0.1766634E-003  0.9118800E+02  0.7818608E-02  0.1130116E+00
         25   -1    0    0    0    0  0.00000000000E+00  0.00000000000E+00  0.99999998245E-14  0.12500000000E+03  0.12500000000E+03 0.  0.
        -13    1    3    3    0    0  0.22012011084E+02  0.58414276778E+01  0.42728780950E+02  0.48419116006E+02  0.10566000000E+00 0.  1.
         23    2    1    0    0    0 -0.18867049726E+02 -0.63086433528E+01  0.20191529691E+02  0.96654587363E+02  0.92404798797E+02 0.  0.
         13    1    3    3    0    0 -0.40879060810E+02 -0.12150071031E+02 -0.22537251259E+02  0.48235471357E+02  0.10566000000E+00 0. -1.
         22    1    1    0    0    0  0.18867049726E+02  0.63086433528E+01 -0.20191529691E+02  0.28345412637E+02  0.00000000000E+00 0. -1.
</event>
<event>
 5    1  0.1766634E-003  0.9118800E+02  0.7818608E-02  0.1130116E+00
         25   -1    0    0    0    0  0.00000000000E+00  0.00000000000E+00  0.99999998245E-14  0.12500000000E+03  0.12500000000E+03 0.  0.
        -13    1    3    3    0    0  0.46136735817E+02  0.31578210246E+01 -0.24087059556E+02  0.52141804990E+02  0.10566000000E+00 0. -1.
         23    2    1    0    0    0  0.23846104633E+02  0.25521559845E+01  0.14692079090E+02  0.96875146323E+02  0.92702678391E+02 0.  0.
         13    1    3    3    0    0 -0.22290631184E+02 -0.60566504004E+00  0.38779138646E+02  0.44733341334E+02  0.10566000000E+00 0.  1.
         22    1    1    0    0    0 -0.23846104633E+02 -0.25521559845E+01 -0.14692079090E+02  0.28124853677E+02  0.00000000000E+00 0. -1.
</event>
<event>
 5    1  0.1766634E-003  0.9118800E+02  0.7818608E-02  0.1130116E+00
         25   -1    0    0    0    0  0.00000000000E+00  0.00000000000E+00  0.99999998245E-14  0.12500000000E+03  0.12500000000E+03 0.  0.
        -13    1    3    3    0    0 -0.30775157862E+02  0.20057115839E+01 -0.37372684606E+01  0.31066244703E+02  0.10566000000E+00 0.  1.
         23    2    1    0    0    0  0.29720207194E+02  0.11667988114E+02  0.40268826039E+01  0.92818507713E+02  0.87061052878E+02 0.  0.
         13    1    3    3    0    0  0.60495365056E+02  0.96622765298E+01  0.77641510645E+01  0.61752263010E+02  0.10566000000E+00 0. -1.
         22    1    1    0    0    0 -0.29720207194E+02 -0.11667988114E+02 -0.40268826039E+01  0.32181492287E+02  0.00000000000E+00 0. -1.
</event>
<event>
 5    1  0.1766634E-003  0.9118800E+02  0.7818608E-02  0.1130116E+00
         25   -1    0    0    0    0  0.00000000000E+00  0.00000000000E+00  0.99999998245E-14  0.12500000000E+03  0.12500000000E+03 0.  0.
        -13    1    3    3    0    0 -0.39921221304E+02 -0.39258879776E+02 -0.23987090957E+02  0.60912685446E+02  0.10566000000E+00 0.  1.
         23    2    1    0    0    0 -0.19738357284E+02 -0.22803540688E+02 -0.23871392982E+01  0.94746030836E+02  0.89785899277E+02 0.  0.
         13    1    3    3    0    0  0.20182864020E+02  0.16455339088E+02  0.21599951659E+02  0.33833345390E+02  0.10566000000E+00 0. -1.
         22    1    1    0    0    0  0.19738357284E+02  0.22803540688E+02  0.23871392982E+01  0.30253969164E+02  0.00000000000E+00 0.  1.
</event>
<event>
 5    1  0.1766634E-003  0.9118800E+02  0.7818608E-02  0.1130116E+00
         25   -1    0    0    0    0  0.00000000000E+00  0.00000000000E+00  0.99999998245E-14  0.12500000000E+03  0.12500000000E+03 0.  0.
        -13    1    3    3    0    0  0.94708065579E+00 -0.30672917575E+02 -0.26594125851E+02  0.40607678192E+02  0.10566000000E+00 0. -1.
         23    2    1    0    0    0 -0.23768462276E+02 -0.57152151878E+01  0.15974969827E+02  0.95797206562E+02  0.91237610888E+02 0.  0.
         13    1    3    3    0    0 -0.24715542932E+02  0.24957702388E+02  0.42569095678E+02  0.55189528370E+02  0.10566000000E+00 0.  1.
         22    1    1    0    0    0  0.23768462276E+02  0.57152151878E+01 -0.15974969827E+02  0.29202793438E+02  0.00000000000E+00 0.  1.
</event>
<event>
 5    1  0.1766634E-003  0.9118800E+02  0.7818608E-02  0.1130116E+00
         25   -1    0    0    0    0  0.00000000000E+00  0.00000000000E+00  0.99999998245E-14  0.12500000000E+03  0.12500000000E+03 0.  0.
        -13    1    3    3    0    0  0.16173595334E+02 -0.27159814191E+02  0.33642774567E+02  0.46163710180E+02  0.10566000000E+00 0.  1.
         23    2    1    0    0    0 -0.22224307474E+02 -0.14974907413E+02  0.26937014474E+02  0.87003020601E+02  0.78267203542E+02 0.  0.
         13    1    3    3    0    0 -0.38397902808E+02  0.12184906778E+02 -0.67057600934E+01  0.40839310421E+02  0.10566000000E+00 0. -1.
         22    1    1    0    0    0  0.22224307474E+02  0.14974907413E+02 -0.26937014474E+02  0.37996979399E+02  0.00000000000E+00 0.  1.
</event>
<event>
 5    1  0.1766634E-003  0.9118800E+02  0.7818608E-02  0.1130116E+00
         25   -1    0    0    0    0  0.00000000000E+00  0.00000000000E+00  0.99999998245E-14  0.12500000000E+03  0.12500000000E+03 0.  0.
        -13    1    3    3    0    0  0.81330540475E+01 -0.27758037949E+02 -0.16104132974E+02  0.33106034221E+02  0.10566000000E+00 0.  1.
         23    2    1    0    0    0 -0.28372675145E+02  0.16041162241E+02  0.18841280444E+00  0.92406088294E+02  0.86466884259E+02 0.  0.
         13    1    3    3    0    0 -0.36505729192E+02  0.43799200190E+02  0.16292545778E+02  0.59300054074E+02  0.10566000000E+00 0. -1.
         22    1    1    0    0    0  0.28372675145E+02 -0.16041162241E+02 -0.18841280444E+00  0.32593911706E+02  0.00000000000E+00 0. -1.
</event>
<event>
 5    1  0.1766634E-003  0.9118800E+02  0.7818608E-02  0.1130116E+00
         25   -1    0    0    0    0  0.00000000000E+00  0.00000000000E+00  0.99999998245E-14  0.12500000000E+03  0.12500000000E+03 0.  0.
        -13    1    3    3    0    0  0.21679741194E+02  0.25235205805E+02  0.48848346735E+01  0.33625876407E+02  0.10566000000E+00 0. -1.
         23    2    1    0    0    0 -0.36119481646E+01 -0.29937922557E+02  0.56275441141E+01  0.94324364240E+02  0.89196922928E+02 0.  0.
         13    1    3    3    0    0 -0.25291689359E+02 -0.55173128362E+02  0.74270944065E+00  0.60698487833E+02  0.10566000000E+00 0.  1.
         22    1    1    0    0    0  0.36119481646E+01  0.29937922557E+02 -0.56275441141E+01  0.30675635760E+02  0.00000000000E+00 0.  1.
</event>
<event>
 5    1  0.1766634E-003  0.9118800E+02  0.7818608E-02  0.1130116E+00
         25   -1    0    0    0    0  0.00000000000E+00  0.00000000000E+00  0.99999998245E-14  0.12500000000E+03  0.12500000000E+03 0.  0.
        -13    1    3    3    0    0 -0.49417541824E+02  0.22783416836E+02 -0.26671296603E+02  0.60601540815E+02  0.10566000000E+00 0.  1.
         23    2    1    0    0    0 -0.18090196919E+02  0.17677905662E+02 -0.19292132819E+02  0.93188839036E+02  0.87591151145E+02 0.  0.
         13    1    3    3    0    0  0.31327344905E+02 -0.51055111738E+01  0.73791637840E+01  0.32587298221E+02  0.10566000000E+00 0. -1.
         22    1    1    0    0    0  0.18090196919E+02 -0.17677905662E+02  0.19292132819E+02  0.31811160964E+02  0.00000000000E+00 0.  1.
</event>
<event>
 5    1  0.1766634E-003  0.9118800E+02  0.7818608E-02  0.1130116E+00
         25   -1    0    0    0    0  0.00000000000E+00  0.00000000000E+00  0.99999998245E-14  0.12500000000E+03  0.12500000000E+03 0.  0.
        -13    1    3    3    0    0  0.17975107213E+02 -0.11560826331E+02 -0.24901317923E+02  0.32815301052E+02  0.10566000000E+00 0.  1.
         23    2    1    0    0    0  0.78670576273E+01 -0.59098322806E+01  0.32329615781E+02  0.91206202199E+02  0.84714523842E+02 0.  0.
         13    1    3    3    0    0 -0.10108049586E+02  0.56509940504E+01  0.57230933704E+02  0.58390901147E+02  0.10566000000E+00 0. -1.
         22    1    1    0    0    0 -0.78670576273E+01  0.59098322806E+01 -0.32329615781E+02  0.33793797801E+02  0.00000000000E+00 0.  1.
</event>
<event>
 5    1  0.1766634E-003  0.9118800E+02  0.7818608E-02  0.1130116E+00
         25   -1    0    0    0    0  0.00000000000E+00  0.00000000000E+00  0.99999998245E-14  0.12500000000E+03  0.12500000000E+03 0.  0.
        -13    1    3    3    0    0  0.45204762201E+01 -0.11662427332E+02  0.40253657443E+02  0.42152283664E+02  0.10566000000E+00 0.  1.
         23    2    1    0    0    0  0.22938612748E+00 -0.25562165074E+02 -0.12263748193E+02  0.96647285474E+02  0.92394920685E+02 0.  0.
         13    1    3    3    0    0 -0.42910900926E+01 -0.13899737742E+02 -0.52517405636E+02  0.54495001810E+02  0.10566000000E+00 0. -1.
         22    1    1    0    0    0 -0.22938612748E+00  0.25562165074E+02  0.12263748193E+02  0.28352714526E+02  0.00000000000E+00 0.  1.
</event>
<event>
 5    1  0.1766634E-003  0.9118800E+02  0.7818608E-02  0.1130116E+00
         25   -1    0    0    0    0  0.00000000000E+00  0.00000000000E+00  0.99999998245E-14  0.12500000000E+03  0.12500000000E+03 0.  0.
        -13    1    3    3    0    0  0.27447201272E+02 -0.12694997950E+01  0.23084355110E+02  0.35886753856E+02  0.10566000000E+00 0.  1.
         23    2    1    0    0    0 -0.70006196027E+00 -0.40137233948E+01 -0.29300213896E+02  0.95417866936E+02  0.90716408296E+02 0.  0.
         13    1    3    3    0    0 -0.28147263233E+02 -0.27442235998E+01 -0.52384569006E+02  0.59531113081E+02  0.10566000000E+00 0. -1.
         22    1    1    0    0    0  0.70006196027E+00  0.40137233948E+01  0.29300213896E+02  0.29582133064E+02  0.00000000000E+00 0. -1.
</event>
<event>
 5    1  0.1766634E-003  0.9118800E+02  0.7818608E-02  0.1130116E+00
         25   -1    0    0    0    0  0.00000000000E+00  0.00000000000E+00  0.99999998245E-14  0.12500000000E+03  0.12500000000E+03 0.  0.
        -13    1    3    3    0    0 -0.48193843462E+00  0.29645219966E+02 -0.36384389869E+02  0.46935128866E+02  0.10566000000E+00 0. -1.
         23    2    1    0    0    0  0.25832133996E+02 -0.36198569663E+01 -0.90717671756E+01  0.97382985844E+02  0.93384937013E+02 0.  0.
         13    1    3    3    0    0  0.26314072430E+02 -0.33265076933E+02  0.27312622693E+02  0.50447856978E+02  0.10566000000E+00 0.  1.
         22    1    1    0    0    0 -0.25832133996E+02  0.36198569663E+01  0.90717671756E+01  0.27617014156E+02  0.00000000000E+00 0.  1.
</event>
<event>
 5    1  0.1766634E-003  0.9118800E+02  0.7818608E-02  0.1130116E+00
         25   -1    0    0    0    0  0.00000000000E+00  0.00000000000E+00  0.99999998245E-14  0.12500000000E+03  0.12500000000E+03 0.  0.
        -13    1    3    3    0    0 -0.29701050772E+02  0.44770793570E+01  0.45618488096E+01  0.30381215991E+02  0.10566000000E+00 0. -1.
         23    2    1    0    0    0  0.17615006431E+02 -0.17153760316E+02 -0.24763866967E+02  0.90103165592E+02  0.83071002149E+02 0.  0.
         13    1    3    3    0    0  0.47316057203E+02 -0.21630839673E+02 -0.29325715777E+02  0.59721949600E+02  0.10566000000E+00 0.  1.
         22    1    1    0    0    0 -0.17615006431E+02  0.17153760316E+02  0.24763866967E+02  0.34896834408E+02  0.00000000000E+00 0.  1.
</event>
<event>
 5    1  0.1766634E-003  0.9118800E+02  0.7818608E-02  0.1130116E+00
         25   -1    0    0    0    0  0.00000000000E+00  0.00000000000E+00  0.99999998245E-14  0.12500000000E+03  0.12500000000E+03 0.  0.
        -13    1    3    3    0    0  0.15485837954E+02 -0.44263779995E+02 -0.19606232620E+02  0.50828229540E+02  0.10566000000E+00 0. -1.
         23    2    1    0    0    0  0.14598778614E+02  0.20283062312E+01 -0.23465577789E+02  0.97289501915E+02  0.93259720559E+02 0.  0.
         13    1    3    3    0    0 -0.88705934012E+00  0.46292086227E+02 -0.38593451692E+01  0.46461272375E+02  0.10566000000E+00 0.  1.
         22    1    1    0    0    0 -0.14598778614E+02 -0.20283062312E+01  0.23465577789E+02  0.27710498085E+02  0.00000000000E+00 0. -1.
</event>
<event>
 5    1  0.1766634E-003  0.9118800E+02  0.7818608E-02  0.1130116E+00
         25   -1    0    0    0    0  0.00000000000E+00  0.00000000000E+00  0.99999998245E-14  0.12500000000E+03  0.12500000000E+03 0.  0.
        -13    1    3    3    0    0  0.85625790963E+01 -0.36104553133E+02 -0.10015417874E+02  0.38434051009E+02  0.10566000000E+00 0.  1.
         23    2    1    0    0    0  0.17084450547E+02  0.21279916615E+02  0.18463551351E+01  0.97648175035E+02  0.93739232762E+02 0.  0.
         13    1    3    3    0    0  0.85218714504E+01  0.57384469748E+02  0.11861773009E+02  0.59214124026E+02  0.10566000000E+00 0. -1.
         22    1    1    0    0    0 -0.17084450547E+02 -0.21279916615E+02 -0.18463551351E+01  0.27351824965E+02  0.00000000000E+00 0. -1.
</event>
<event>
 5    1  0.1766634E-003  0.9118800E+02  0.7818608E-02  0.1130116E+00
         25   -1    0    0    0    0  0.00000000000E+00  0.00000000000E+00  0.99999998245E-14  0.12500000000E+03  0.12500000000E+03 0.  0.
        -13    1    3    3    0    0 -0.54111993821E+02  0.22587679014E+02  0.39882253739E+01  0.58772682636E+02  0.10566000000E+00 0. -1.
         23    2    1    0    0    0 -0.22029455525E+02  0.13974367853E+02 -0.12741959800E+02  0.95966615644E+02  0.91469415167E+02 0.  0.
         13    1    3    3    0    0  0.32082538296E+02 -0.86133111609E+01 -0.16730185174E+02  0.37193933008E+02  0.10566000000E+00 0.  1.
         22    1    1    0    0    0  0.22029455525E+02 -0.13974367853E+02  0.12741959800E+02  0.29033384356E+02  0.00000000000E+00 0. -1.
</event>
<event>
 5    1  0.1766634E-003  0.9118800E+02  0.7818608E-02  0.1130116E+00
         25   -1    0    0    0    0  0.00000000000E+00  0.00000000000E+00  0.99999998245E-14  0.12500000000E+03  0.12500000000E+03 0.  0.
        -13    1    3    3    0    0 -0.15649129529E+02 -0.83674671105E+01  0.36351432034E+02  0.40451792739E+02  0.10566000000E+00 0. -1.
         23    2    1    0    0    0 -0.11996031540E+02  0.29291641453E+02 -0.60448752870E+00  0.93341344992E+02  0.87808520361E+02 0.  0.
         13    1    3    3    0    0  0.36530979883E+01  0.37659108564E+02 -0.36955919563E+02  0.52889552253E+02  0.10566000000E+00 0.  1.
         22    1    1    0    0    0  0.11996031540E+02 -0.29291641453E+02  0.60448752870E+00  0.31658655008E+02  0.00000000000E+00 0.  1.
</event>
<event>
 5    1  0.1766634E-003  0.9118800E+02  0.7818608E-02  0.1130116E+00
         25   -1    0    0    0    0  0.00000000000E+00  0.00000000000E+00  0.99999998245E-14  0.12500000000E+03  0.12500000000E+03 0.  0.
        -13    1    3    3    0    0  0.20801797977E+02 -0.17745591239E+02  0.51460546566E+02  0.58273663215E+02  0.10566000000E+00 0.  1.
         23    2    1    0    0    0  0.20928434296E+02  0.71250347448E+00  0.39569805184E+02  0.80230853196E+02  0.66578624941E+02 0.  0.
         13    1    3    3    0    0  0.12663631899E+00  0.18458094714E+02 -0.11890741383E+02  0.21957189981E+02  0.10566000000E+00 0. -1.
         22    1    1    0    0    0 -0.20928434296E+02 -0.71250347448E+00 -0.39569805184E+02  0.44769146804E+02  0.00000000000E+00 0.  1.
</event>
<event>
 5    1  0.1766634E-003  0.9118800E+02  0.7818608E-02  0.1130116E+00
         25   -1    0    0    0    0  0.00000000000E+00  0.00000000000E+00  0.99999998245E-14  0.12500000000E+03  0.12500000000E+03 0.  0.
        -13    1    3    3    0    0 -0.33110569544E+02  0.37119959089E+02  0.28954176266E+02  0.57554814442E+02  0.10566000000E+00 0.  1.
         23    2    1    0    0    0 -0.21360253698E+02  0.13516080917E+02 -0.36218317943E+01  0.99464484596E+02  0.96130750278E+02 0.  0.
         13    1    3    3    0    0  0.11750315845E+02 -0.23603878172E+02 -0.32576008060E+02  0.41909670153E+02  0.10566000000E+00 0. -1.
         22    1    1    0    0    0  0.21360253698E+02 -0.13516080917E+02  0.36218317943E+01  0.25535515404E+02  0.00000000000E+00 0.  1.
</event>
<event>
 5    1  0.1766634E-003  0.9118800E+02  0.7818608E-02  0.1130116E+00
         25   -1    0    0    0    0  0.00000000000E+00  0.00000000000E+00  0.99999998245E-14  0.12500000000E+03  0.12500000000E+03 0.  0.
        -13    1    3    3    0    0 -0.49546229107E+02 -0.80588586164E+01 -0.30691415329E+02  0.58836622608E+02  0.10566000000E+00 0. -1.
         23    2    1    0    0    0 -0.17351034198E+02  0.84020718641E+01 -0.21453069775E+02  0.96157541677E+02  0.91729959224E+02 0.  0.
         13    1    3    3    0    0  0.32195194909E+02  0.16460930480E+02  0.92383455543E+01  0.37320919069E+02  0.10566000000E+00 0.  1.
         22    1    1    0    0    0  0.17351034198E+02 -0.84020718641E+01  0.21453069775E+02  0.28842458323E+02  0.00000000000E+00 0. -1.
</event>
<event>
 5    1  0.1766634E-003  0.9118800E+02  0.7818608E-02  0.1130116E+00
         25   -1    0    0    0    0  0.00000000000E+00  0.00000000000E+00  0.99999998245E-14  0.12500000000E+03  0.12500000000E+03 0.  0.
        -13    1    3    3    0    0 -0.19881207637E+02  0.46989293165E+01 -0.32125831178E+02  0.38071282442E+02  0.10566000000E+00 0. -1.
         23    2    1    0    0    0 -0.14971941171E+02  0.11849302349E+02  0.23699200310E+02  0.94566185190E+02  0.89535167936E+02 0.  0.
         13    1    3    3    0    0  0.49092664664E+01  0.71503730327E+01  0.55825031488E+02  0.56494902747E+02  0.10566000000E+00 0.  1.
         22    1    1    0    0    0  0.14971941171E+02 -0.11849302349E+02 -0.23699200310E+02  0.30433814810E+02  0.00000000000E+00 0.  1.
</event>
<event>
 5    1  0.1766634E-003  0.9118800E+02  0.7818608E-02  0.1130116E+00
         25   -1    0    0    0    0  0.00000000000E+00  0.00000000000E+00  0.99999998245E-14  0.12500000000E+03  0.12500000000E+03 0.  0.
        -13    1    3    3    0    0  0.13237261313E+01 -0.40657547711E+02  0.42626914379E+02  0.58922435712E+02  0.10566000000E+00 0. -1.
         23    2    1    0    0    0 -0.13834500599E+02 -0.20354947649E+02  0.16187676346E+02  0.95542264749E+02  0.90887656958E+02 0.  0.
         13    1    3    3    0    0 -0.15158226730E+02  0.20302600062E+02 -0.26439238033E+02  0.36619829037E+02  0.10566000000E+00 0.  1.
         22    1    1    0    0    0  0.13834500599E+02  0.20354947649E+02 -0.16187676346E+02  0.29457735251E+02  0.00000000000E+00 0. -1.
</event>
<event>
 5    1  0.1766634E-003  0.9118800E+02  0.7818608E-02  0.1130116E+00
         25   -1    0    0    0    0  0.00000000000E+00  0.00000000000E+00  0.99999998245E-14  0.12500000000E+03  0.12500000000E+03 0.  0.
        -13    1    3    3    0    0  0.69068071481E+01 -0.24373572428E+02  0.33448126390E+02  0.41959067445E+02  0.10566000000E+00 0.  1.
         23    2    1    0    0    0 -0.28626905709E+02  0.55137357332E+01  0.86889620149E+01  0.94579627335E+02  0.89553932542E+02 0.  0.
         13    1    3    3    0    0 -0.35533712857E+02  0.29887308161E+02 -0.24759164375E+02  0.52620559889E+02  0.10566000000E+00 0. -1.
         22    1    1    0    0    0  0.28626905709E+02 -0.55137357332E+01 -0.86889620149E+01  0.30420372665E+02  0.00000000000E+00 0. -1.
</event>
<event>
 5    1  0.1766634E-003  0.9118800E+02  0.7818608E-02  0.1130116E+00
         25   -1    0    0    0    0  0.00000000000E+00  0.00000000000E+00  0.99999998245E-14  0.12500000000E+03  0.12500000000E+03 0.  0.
        -13    1    3    3    0    0 -0.23579474241E+02  0.99756694390E+00  0.23226021937E+02  0.33112626056E+02  0.10566000000E+00 0. -1.
         23    2    1    0    0    0  0.20515464605E+02 -0.15622525931E+02 -0.16194202424E+02  0.94550044391E+02  0.89512630940E+02 0.  0.
         13    1    3    3    0    0  0.44094938846E+02 -0.16620092875E+02 -0.39420224361E+02  0.61437418335E+02  0.10566000000E+00 0.  1.
         22    1    1    0    0    0 -0.20515464605E+02  0.15622525931E+02  0.16194202424E+02  0.30449955609E+02  0.00000000000E+00 0.  1.
</event>
<event>
 5    1  0.1766634E-003  0.9118800E+02  0.7818608E-02  0.1130116E+00
         25   -1    0    0    0    0  0.00000000000E+00  0.00000000000E+00  0.99999998245E-14  0.12500000000E+03  0.12500000000E+03 0.  0.
        -13    1    3    3    0    0  0.19017927444E+01  0.60375838620E+02  0.15866938961E+02  0.62455020781E+02  0.10566000000E+00 0. -1.
         23    2    1    0    0    0  0.60389807944E+00  0.28517255020E+02  0.57903432913E+01  0.95894560608E+02  0.91370893353E+02 0.  0.
         13    1    3    3    0    0 -0.12978946650E+01 -0.31858583600E+02 -0.10076595670E+02  0.33439539828E+02  0.10566000000E+00 0.  1.
         22    1    1    0    0    0 -0.60389807944E+00 -0.28517255020E+02 -0.57903432913E+01  0.29105439392E+02  0.00000000000E+00 0. -1.
</event>
<event>
 5    1  0.1766634E-003  0.9118800E+02  0.7818608E-02  0.1130116E+00
         25   -1    0    0    0    0  0.00000000000E+00  0.00000000000E+00  0.99999998245E-14  0.12500000000E+03  0.12500000000E+03 0.  0.
        -13    1    3    3    0    0 -0.16295010063E+02 -0.26752202293E+02 -0.53845489386E+02  0.62294105433E+02  0.10566000000E+00 0. -1.
         23    2    1    0    0    0 -0.45036927861E+01 -0.14257563660E+02 -0.25502641908E+02  0.95437420368E+02  0.90743347370E+02 0.  0.
         13    1    3    3    0    0  0.11791317277E+02  0.12494638633E+02  0.28342847478E+02  0.33143314935E+02  0.10566000000E+00 0.  1.
         22    1    1    0    0    0  0.45036927861E+01  0.14257563660E+02  0.25502641908E+02  0.29562579632E+02  0.00000000000E+00 0. -1.
</event>
<event>
 5    1  0.1766634E-003  0.9118800E+02  0.7818608E-02  0.1130116E+00
         25   -1    0    0    0    0  0.00000000000E+00  0.00000000000E+00  0.99999998245E-14  0.12500000000E+03  0.12500000000E+03 0.  0.
        -13    1    3    3    0    0  0.31267431161E+02  0.51039617452E+01 -0.13140573435E+02  0.34298520539E+02  0.10566000000E+00 0. -1.
         23    2    1    0    0    0 -0.22633401126E+02 -0.19681835508E+02 -0.27238717003E+00  0.95004672192E+02  0.90145260819E+02 0.  0.
         13    1    3    3    0    0 -0.53900832288E+02 -0.24785797253E+02  0.12868186265E+02  0.60706151654E+02  0.10566000000E+00 0.  1.
         22    1    1    0    0    0  0.22633401126E+02  0.19681835508E+02  0.27238717003E+00  0.29995327808E+02  0.00000000000E+00 0.  1.
</event>
<event>
 5    1  0.1766634E-003  0.9118800E+02  0.7818608E-02  0.1130116E+00
         25   -1    0    0    0    0  0.00000000000E+00  0.00000000000E+00  0.99999998245E-14  0.12500000000E+03  0.12500000000E+03 0.  0.
        -13    1    3    3    0    0 -0.38960167566E+02 -0.34077841110E+02  0.26596267292E+02  0.58194213710E+02  0.10566000000E+00 0. -1.
         23    2    1    0    0    0 -0.75332945206E+01 -0.27240397071E+02  0.69044246184E+01  0.95905999962E+02  0.91386541627E+02 0.  0.
         13    1    3    3    0    0  0.31426873045E+02  0.68374440394E+01 -0.19691842674E+02  0.37711786252E+02  0.10566000000E+00 0.  1.
         22    1    1    0    0    0  0.75332945206E+01  0.27240397071E+02 -0.69044246184E+01  0.29094000038E+02  0.00000000000E+00 0. -1.
</event>
<event>
 5    1  0.1766634E-003  0.9118800E+02  0.7818608E-02  0.1130116E+00
         25   -1    0    0    0    0  0.00000000000E+00  0.00000000000E+00  0.99999998245E-14  0.12500000000E+03  0.12500000000E+03 0.  0.
        -13    1    3    3    0    0  0.12891578504E+02  0.27594024890E+02 -0.49883556447E+02  0.58446585647E+02  0.10566000000E+00 0. -1.
         23    2    1    0    0    0  0.53852867182E+01  0.25470494399E+02 -0.13466961534E+02  0.95689482248E+02  0.91089903732E+02 0.  0.
         13    1    3    3    0    0 -0.75062917863E+01 -0.21235304909E+01  0.36416594913E+02  0.37242896601E+02  0.10566000000E+00 0.  1.
         22    1    1    0    0    0 -0.53852867182E+01 -0.25470494399E+02  0.13466961534E+02  0.29310517752E+02  0.00000000000E+00 0. -1.
</event>
<event>
 5    1  0.1766634E-003  0.9118800E+02  0.7818608E-02  0.1130116E+00
         25   -1    0    0    0    0  0.00000000000E+00  0.00000000000E+00  0.99999998245E-14  0.12500000000E+03  0.12500000000E+03 0.  0.
        -13    1    3    3    0    0  0.14468769342E+02 -0.23232596026E+02  0.33292419828E+02  0.43098668035E+02  0.10566000000E+00 0.  1.
         23    2    1    0    0    0 -0.18935838609E+02  0.10670697352E+02 -0.31422151046E+01  0.10303859564E+03  0.10067099339E+03 0.  0.
         13    1    3    3    0    0 -0.33404607951E+02  0.33903293378E+02 -0.36434634933E+02  0.59939927602E+02  0.10566000000E+00 0. -1.
         22    1    1    0    0    0  0.18935838609E+02 -0.10670697352E+02  0.31422151046E+01  0.21961404363E+02  0.00000000000E+00 0. -1.
</event>
<event>
 5    1  0.1766634E-003  0.9118800E+02  0.7818608E-02  0.1130116E+00
         25   -1    0    0    0    0  0.00000000000E+00  0.00000000000E+00  0.99999998245E-14  0.12500000000E+03  0.12500000000E+03 0.  0.
        -13    1    3    3    0    0  0.95464820046E+01  0.22596367065E+01 -0.61202749453E+02  0.61984102650E+02  0.10566000000E+00 0.  1.
         23    2    1    0    0    0  0.71475367906E+01 -0.37725048755E+01 -0.26277138366E+02  0.97508054345E+02  0.93552197121E+02 0.  0.
         13    1    3    3    0    0 -0.23989452140E+01 -0.60321415820E+01  0.34925611087E+02  0.35523951695E+02  0.10566000000E+00 0. -1.
         22    1    1    0    0    0 -0.71475367906E+01  0.37725048755E+01  0.26277138366E+02  0.27491945655E+02  0.00000000000E+00 0.  1.
</event>
<event>
 5    1  0.1766634E-003  0.9118800E+02  0.7818608E-02  0.1130116E+00
         25   -1    0    0    0    0  0.00000000000E+00  0.00000000000E+00  0.99999998245E-14  0.12500000000E+03  0.12500000000E+03 0.  0.
        -13    1    3    3    0    0  0.22575570962E+02 -0.29822836364E+02 -0.37715922837E+01  0.37593803285E+02  0.10566000000E+00 0.  1.
         23    2    1    0    0    0 -0.17425933157E+02  0.88598735496E+01 -0.21447796270E+02  0.95979860948E+02  0.91487514105E+02 0.  0.
         13    1    3    3    0    0 -0.40001504119E+02  0.38682709913E+02 -0.17676203987E+02  0.58386057663E+02  0.10566000000E+00 0. -1.
         22    1    1    0    0    0  0.17425933157E+02 -0.88598735496E+01  0.21447796270E+02  0.29020139052E+02  0.00000000000E+00 0. -1.
</event>
<event>
 5    1  0.1766634E-003  0.9118800E+02  0.7818608E-02  0.1130116E+00
         25   -1    0    0    0    0  0.00000000000E+00  0.00000000000E+00  0.99999998245E-14  0.12500000000E+03  0.12500000000E+03 0.  0.
        -13    1    3    3    0    0 -0.49396533584E+02  0.12491647072E+02 -0.30488495763E+02  0.59376917355E+02  0.10566000000E+00 0.  1.
         23    2    1    0    0    0 -0.20420707371E+02  0.17788159645E+02 -0.70627330395E+01  0.97012393616E+02  0.92887557854E+02 0.  0.
         13    1    3    3    0    0  0.28975826213E+02  0.52965125738E+01  0.23425762724E+02  0.37635476261E+02  0.10566000000E+00 0. -1.
         22    1    1    0    0    0  0.20420707371E+02 -0.17788159645E+02  0.70627330395E+01  0.27987606384E+02  0.00000000000E+00 0.  1.
</event>
<event>
 5    1  0.1766634E-003  0.9118800E+02  0.7818608E-02  0.1130116E+00
         25   -1    0    0    0    0  0.00000000000E+00  0.00000000000E+00  0.99999998245E-14  0.12500000000E+03  0.12500000000E+03 0.  0.
        -13    1    3    3    0    0 -0.25718653893E+02 -0.38492358186E+01  0.36257863097E+02  0.44619609757E+02  0.10566000000E+00 0. -1.
         23    2    1    0    0    0 -0.21445350727E+02 -0.94356898549E+00 -0.16683701267E+02  0.97812883967E+02  0.93958613185E+02 0.  0.
         13    1    3    3    0    0  0.42733031662E+01  0.29056668331E+01 -0.52941564365E+02  0.53193274209E+02  0.10566000000E+00 0.  1.
         22    1    1    0    0    0  0.21445350727E+02  0.94356898549E+00  0.16683701267E+02  0.27187116033E+02  0.00000000000E+00 0.  1.
</event>
<event>
 5    1  0.1766634E-003  0.9118800E+02  0.7818608E-02  0.1130116E+00
         25   -1    0    0    0    0  0.00000000000E+00  0.00000000000E+00  0.99999998245E-14  0.12500000000E+03  0.12500000000E+03 0.  0.
        -13    1    3    3    0    0  0.19753263329E+01 -0.16485512252E+02 -0.55769111098E+02  0.58188305914E+02  0.10566000000E+00 0.  1.
         23    2    1    0    0    0  0.13172106494E+02  0.34105881886E+01 -0.25438628478E+02  0.96151077661E+02  0.91721150315E+02 0.  0.
         13    1    3    3    0    0  0.11196780161E+02  0.19896100441E+02  0.30330482620E+02  0.37962771747E+02  0.10566000000E+00 0. -1.
         22    1    1    0    0    0 -0.13172106494E+02 -0.34105881886E+01  0.25438628478E+02  0.28848922339E+02  0.00000000000E+00 0.  1.
</event>
<event>
 5    1  0.1766634E-003  0.9118800E+02  0.7818608E-02  0.1130116E+00
         25   -1    0    0    0    0  0.00000000000E+00  0.00000000000E+00  0.99999998245E-14  0.12500000000E+03  0.12500000000E+03 0.  0.
        -13    1    3    3    0    0  0.28543563931E+02  0.15980874747E+02 -0.10186638117E+02  0.34262255613E+02  0.10566000000E+00 0. -1.
         23    2    1    0    0    0 -0.16030726029E+02  0.74720116356E+01  0.26857690237E+02  0.92841787056E+02  0.87094470341E+02 0.  0.
         13    1    3    3    0    0 -0.44574289959E+02 -0.85088631119E+01  0.37044328354E+02  0.58579531443E+02  0.10566000000E+00 0.  1.
         22    1    1    0    0    0  0.16030726029E+02 -0.74720116356E+01 -0.26857690237E+02  0.32158212944E+02  0.00000000000E+00 0.  1.
</event>
<event>
 5    1  0.1766634E-003  0.9118800E+02  0.7818608E-02  0.1130116E+00
         25   -1    0    0    0    0  0.00000000000E+00  0.00000000000E+00  0.99999998245E-14  0.12500000000E+03  0.12500000000E+03 0.  0.
        -13    1    3    3    0    0 -0.17036326083E+02 -0.26983486759E+02  0.16346469979E+02  0.35854751553E+02  0.10566000000E+00 0. -1.
         23    2    1    0    0    0  0.21735224870E+02  0.30124483659E+01 -0.18744741183E+02  0.96140683180E+02  0.91706983349E+02 0.  0.
         13    1    3    3    0    0  0.38771550953E+02  0.29995935125E+02 -0.35091211163E+02  0.60285931627E+02  0.10566000000E+00 0.  1.
         22    1    1    0    0    0 -0.21735224870E+02 -0.30124483659E+01  0.18744741183E+02  0.28859316820E+02  0.00000000000E+00 0.  1.
</event>
<event>
 5    1  0.1766634E-003  0.9118800E+02  0.7818608E-02  0.1130116E+00
         25   -1    0    0    0    0  0.00000000000E+00  0.00000000000E+00  0.99999998245E-14  0.12500000000E+03  0.12500000000E+03 0.  0.
        -13    1    3    3    0    0 -0.23258035709E+02 -0.15978025406E+02  0.26378446211E+02  0.38627284521E+02  0.10566000000E+00 0.  1.
         23    2    1    0    0    0  0.22077439215E+02  0.15390744784E+02  0.11527343940E+02  0.95722568323E+02  0.91135295472E+02 0.  0.
         13    1    3    3    0    0  0.45335474924E+02  0.31368770190E+02 -0.14851102271E+02  0.57095283803E+02  0.10566000000E+00 0. -1.
         22    1    1    0    0    0 -0.22077439215E+02 -0.15390744784E+02 -0.11527343940E+02  0.29277431677E+02  0.00000000000E+00 0. -1.
</event>
<event>
 5    1  0.1766634E-003  0.9118800E+02  0.7818608E-02  0.1130116E+00
         25   -1    0    0    0    0  0.00000000000E+00  0.00000000000E+00  0.99999998245E-14  0.12500000000E+03  0.12500000000E+03 0.  0.
        -13    1    3    3    0    0  0.46886643912E+02 -0.26379048183E+02  0.16314393203E+02  0.56217276259E+02  0.10566000000E+00 0.  1.
         23    2    1    0    0    0  0.35368811215E+02 -0.16296055939E+02 -0.82803925637E+01  0.85186947530E+02  0.75310934681E+02 0.  0.
         13    1    3    3    0    0 -0.11517832696E+02  0.10082992244E+02 -0.24594785767E+02  0.28969671271E+02  0.10566000000E+00 0. -1.
         22    1    1    0    0    0 -0.35368811215E+02  0.16296055939E+02  0.82803925637E+01  0.39813052470E+02  0.00000000000E+00 0.  1.
</event>
<event>
 5    1  0.1766634E-003  0.9118800E+02  0.7818608E-02  0.1130116E+00
         25   -1    0    0    0    0  0.00000000000E+00  0.00000000000E+00  0.99999998245E-14  0.12500000000E+03  0.12500000000E+03 0.  0.
        -13    1    3    3    0    0  0.22079283152E+02 -0.41589400809E+02  0.35783227832E+02  0.59140709856E+02  0.10566000000E+00 0. -1.
         23    2    1    0    0    0  0.77559033321E+01 -0.91226442946E+01  0.26650482845E+02  0.95783139948E+02  0.91218336901E+02 0.  0.
         13    1    3    3    0    0 -0.14323379820E+02  0.32466756514E+02 -0.91327449865E+01  0.36642430092E+02  0.10566000000E+00 0.  1.
         22    1    1    0    0    0 -0.77559033321E+01  0.91226442946E+01 -0.26650482845E+02  0.29216860052E+02  0.00000000000E+00 0. -1.
</event>
<event>
 5    1  0.1766634E-003  0.9118800E+02  0.7818608E-02  0.1130116E+00
         25   -1    0    0    0    0  0.00000000000E+00  0.00000000000E+00  0.99999998245E-14  0.12500000000E+03  0.12500000000E+03 0.  0.
        -13    1    3    3    0    0 -0.48321494015E+01 -0.89696683200E+01  0.33248968825E+02  0.34775130619E+02  0.10566000000E+00 0.  1.
         23    2    1    0    0    0  0.22254527134E+02  0.10557074984E+02 -0.16974541853E+02  0.95085941745E+02  0.90257882959E+02 0.  0.
         13    1    3    3    0    0  0.27086676535E+02  0.19526743304E+02 -0.50223510678E+02  0.60310811126E+02  0.10566000000E+00 0. -1.
         22    1    1    0    0    0 -0.22254527134E+02 -0.10557074984E+02  0.16974541853E+02  0.29914058255E+02  0.00000000000E+00 0. -1.
</event>
<event>
 5    1  0.1766634E-003  0.9118800E+02  0.7818608E-02  0.1130116E+00
         25   -1    0    0    0    0  0.00000000000E+00  0.00000000000E+00  0.99999998245E-14  0.12500000000E+03  0.12500000000E+03 0.  0.
        -13    1    3    3    0    0  0.75406849655E+01  0.24630111057E+02 -0.27597722598E+02  0.37751155705E+02  0.10566000000E+00 0.  1.
         23    2    1    0    0    0  0.20926884728E+02 -0.12016737575E+02  0.15836923134E+02  0.96135755324E+02  0.91700266253E+02 0.  0.
         13    1    3    3    0    0  0.13386199763E+02 -0.36646848633E+02  0.43434645732E+02  0.58384599619E+02  0.10566000000E+00 0. -1.
         22    1    1    0    0    0 -0.20926884728E+02  0.12016737575E+02 -0.15836923134E+02  0.28864244676E+02  0.00000000000E+00 0. -1.
</event>
<event>
 5    1  0.1766634E-003  0.9118800E+02  0.7818608E-02  0.1130116E+00
         25   -1    0    0    0    0  0.00000000000E+00  0.00000000000E+00  0.99999998245E-14  0.12500000000E+03  0.12500000000E+03 0.  0.
        -13    1    3    3    0    0 -0.28979281697E+02 -0.42878155129E+02 -0.34328842308E+02  0.62103265076E+02  0.10566000000E+00 0.  1.
         23    2    1    0    0    0 -0.96813761423E+01 -0.22034952452E+02 -0.12839320353E+02  0.97721504428E+02  0.93836965568E+02 0.  0.
         13    1    3    3    0    0  0.19297905554E+02  0.20843202677E+02  0.21489521955E+02  0.35618239352E+02  0.10566000000E+00 0. -1.
         22    1    1    0    0    0  0.96813761423E+01  0.22034952452E+02  0.12839320353E+02  0.27278495572E+02  0.00000000000E+00 0.  1.
</event>
<event>
 5    1  0.1766634E-003  0.9118800E+02  0.7818608E-02  0.1130116E+00
         25   -1    0    0    0    0  0.00000000000E+00  0.00000000000E+00  0.99999998245E-14  0.12500000000E+03  0.12500000000E+03 0.  0.
        -13    1    3    3    0    0  0.36343939532E+01  0.26168575380E+02 -0.43546665756E+02  0.50934530716E+02  0.10566000000E+00 0. -1.
         23    2    1    0    0    0  0.26518013399E+02  0.69523106338E+01 -0.10102848989E+02  0.95783442785E+02  0.91218751889E+02 0.  0.
         13    1    3    3    0    0  0.22883619446E+02 -0.19216264746E+02  0.33443816767E+02  0.44848912069E+02  0.10566000000E+00 0.  1.
         22    1    1    0    0    0 -0.26518013399E+02 -0.69523106338E+01  0.10102848989E+02  0.29216557215E+02  0.00000000000E+00 0. -1.
</event>
<event>
 5    1  0.1766634E-003  0.9118800E+02  0.7818608E-02  0.1130116E+00
         25   -1    0    0    0    0  0.00000000000E+00  0.00000000000E+00  0.99999998245E-14  0.12500000000E+03  0.12500000000E+03 0.  0.
        -13    1    3    3    0    0 -0.44326622191E+02 -0.37233448323E+02 -0.19752551182E+02  0.61166604868E+02  0.10566000000E+00 0.  1.
         23    2    1    0    0    0 -0.20375750816E+02 -0.24091728996E+02 -0.27895749854E+01  0.93324072927E+02  0.87783929234E+02 0.  0.
         13    1    3    3    0    0  0.23950871374E+02  0.13141719327E+02  0.16962976197E+02  0.32157468059E+02  0.10566000000E+00 0. -1.
         22    1    1    0    0    0  0.20375750816E+02  0.24091728996E+02  0.27895749854E+01  0.31675927073E+02  0.00000000000E+00 0.  1.
</event>
<event>
 5    1  0.1766634E-003  0.9118800E+02  0.7818608E-02  0.1130116E+00
         25   -1    0    0    0    0  0.00000000000E+00  0.00000000000E+00  0.99999998245E-14  0.12500000000E+03  0.12500000000E+03 0.  0.
        -13    1    3    3    0    0 -0.47751900492E+01 -0.34741235996E+02 -0.18495460257E+02  0.39646552596E+02  0.10566000000E+00 0.  1.
         23    2    1    0    0    0 -0.22228725083E+01  0.22993748536E+02 -0.14818241269E+02  0.97554892818E+02  0.93614759544E+02 0.  0.
         13    1    3    3    0    0  0.25523175409E+01  0.57734984532E+02  0.36772189878E+01  0.57908340222E+02  0.10566000000E+00 0. -1.
         22    1    1    0    0    0  0.22228725083E+01 -0.22993748536E+02  0.14818241269E+02  0.27445107182E+02  0.00000000000E+00 0. -1.
</event>
<event>
 5    1  0.1766634E-003  0.9118800E+02  0.7818608E-02  0.1130116E+00
         25   -1    0    0    0    0  0.00000000000E+00  0.00000000000E+00  0.99999998245E-14  0.12500000000E+03  0.12500000000E+03 0.  0.
        -13    1    3    3    0    0 -0.12356298912E+02 -0.80530340955E+01 -0.32275564001E+02  0.35485950411E+02  0.10566000000E+00 0. -1.
         23    2    1    0    0    0  0.85649859940E+01  0.18682033192E+02  0.19019815502E+02  0.96997665615E+02  0.92867736076E+02 0.  0.
         13    1    3    3    0    0  0.20921284906E+02  0.26735067287E+02  0.51295379503E+02  0.61511715204E+02  0.10566000000E+00 0.  1.
         22    1    1    0    0    0 -0.85649859940E+01 -0.18682033192E+02 -0.19019815502E+02  0.28002334385E+02  0.00000000000E+00 0.  1.
</event>
<event>
 5    1  0.1766634E-003  0.9118800E+02  0.7818608E-02  0.1130116E+00
         25   -1    0    0    0    0  0.00000000000E+00  0.00000000000E+00  0.99999998245E-14  0.12500000000E+03  0.12500000000E+03 0.  0.
        -13    1    3    3    0    0 -0.38783102401E+02 -0.21106240179E+02 -0.43103887392E+02  0.61705418552E+02  0.10566000000E+00 0.  1.
         23    2    1    0    0    0 -0.91618410006E+01 -0.12220038836E+02 -0.16696247379E+02  0.10237184594E+03  0.99839678909E+02 0.  0.
         13    1    3    3    0    0  0.29621261401E+02  0.88862013424E+01  0.26407640013E+02  0.40666427386E+02  0.10566000000E+00 0. -1.
         22    1    1    0    0    0  0.91618410006E+01  0.12220038836E+02  0.16696247379E+02  0.22628154061E+02  0.00000000000E+00 0.  1.
</event>
<event>
 5    1  0.1766634E-003  0.9118800E+02  0.7818608E-02  0.1130116E+00
         25   -1    0    0    0    0  0.00000000000E+00  0.00000000000E+00  0.99999998245E-14  0.12500000000E+03  0.12500000000E+03 0.  0.
        -13    1    3    3    0    0  0.48410988252E+02 -0.93736693383E+01  0.30469638952E+02  0.57964640276E+02  0.10566000000E+00 0. -1.
         23    2    1    0    0    0  0.16990457990E+02 -0.19724969658E+02  0.18141237546E+02  0.93269027900E+02  0.87705512797E+02 0.  0.
         13    1    3    3    0    0 -0.31420530262E+02 -0.10351300319E+02 -0.12328401406E+02  0.35304387624E+02  0.10566000000E+00 0.  1.
         22    1    1    0    0    0 -0.16990457990E+02  0.19724969658E+02 -0.18141237546E+02  0.31730972100E+02  0.00000000000E+00 0. -1.
</event>
<event>
 5    1  0.1766634E-003  0.9118800E+02  0.7818608E-02  0.1130116E+00
         25   -1    0    0    0    0  0.00000000000E+00  0.00000000000E+00  0.99999998245E-14  0.12500000000E+03  0.12500000000E+03 0.  0.
        -13    1    3    3    0    0 -0.40313384558E+02  0.16650987065E+01  0.45259621714E+02  0.60633209135E+02  0.10566000000E+00 0.  1.
         23    2    1    0    0    0 -0.10895494908E+02  0.61834794112E+01  0.26152891225E+02  0.96001363026E+02  0.91516887821E+02 0.  0.
         13    1    3    3    0    0  0.29417889650E+02  0.45183807047E+01 -0.19106730489E+02  0.35368153891E+02  0.10566000000E+00 0. -1.
         22    1    1    0    0    0  0.10895494908E+02 -0.61834794112E+01 -0.26152891225E+02  0.28998636974E+02  0.00000000000E+00 0.  1.
</event>
<event>
 5    1  0.1766634E-003  0.9118800E+02  0.7818608E-02  0.1130116E+00
         25   -1    0    0    0    0  0.00000000000E+00  0.00000000000E+00  0.99999998245E-14  0.12500000000E+03  0.12500000000E+03 0.  0.
        -13    1    3    3    0    0 -0.13380195045E+02 -0.20686957996E+02 -0.22939346127E+02  0.33663104660E+02  0.10566000000E+00 0.  1.
         23    2    1    0    0    0  0.98412523094E+01  0.17126578812E+02  0.21040967515E+02  0.96140127117E+02  0.91706225412E+02 0.  0.
         13    1    3    3    0    0  0.23221447354E+02  0.37813536807E+02  0.43980313642E+02  0.62477022458E+02  0.10566000000E+00 0. -1.
         22    1    1    0    0    0 -0.98412523094E+01 -0.17126578812E+02 -0.21040967515E+02  0.28859872883E+02  0.00000000000E+00 0. -1.
</event>
<event>
 5    1  0.1766634E-003  0.9118800E+02  0.7818608E-02  0.1130116E+00
         25   -1    0    0    0    0  0.00000000000E+00  0.00000000000E+00  0.99999998245E-14  0.12500000000E+03  0.12500000000E+03 0.  0.
        -13    1    3    3    0    0 -0.13782694403E+02 -0.32584352495E+02  0.30257691575E+02  0.46553643853E+02  0.10566000000E+00 0.  1.
         23    2    1    0    0    0  0.15548321947E+02  0.81335995221E+01  0.21086894211E+02  0.97567120749E+02  0.93631085581E+02 0.  0.
         13    1    3    3    0    0  0.29331016350E+02  0.40717952017E+02 -0.91707973638E+01  0.51013476895E+02  0.10566000000E+00 0. -1.
         22    1    1    0    0    0 -0.15548321947E+02 -0.81335995221E+01 -0.21086894211E+02  0.27432879251E+02  0.00000000000E+00 0. -1.
</event>
<event>
 5    1  0.1766634E-003  0.9118800E+02  0.7818608E-02  0.1130116E+00
         25   -1    0    0    0    0  0.00000000000E+00  0.00000000000E+00  0.99999998245E-14  0.12500000000E+03  0.12500000000E+03 0.  0.
        -13    1    3    3    0    0  0.29561920734E+02  0.46587634861E+02 -0.28206938271E+02  0.61967389892E+02  0.10566000000E+00 0. -1.
         23    2    1    0    0    0  0.15662272623E+02  0.15331887152E+02 -0.13903569535E+02  0.99044599923E+02  0.95583209722E+02 0.  0.
         13    1    3    3    0    0 -0.13899648111E+02 -0.31255747709E+02  0.14303368736E+02  0.37077210031E+02  0.10566000000E+00 0.  1.
         22    1    1    0    0    0 -0.15662272623E+02 -0.15331887152E+02  0.13903569535E+02  0.25955400077E+02  0.00000000000E+00 0. -1.
</event>
<event>
 5    1  0.1766634E-003  0.9118800E+02  0.7818608E-02  0.1130116E+00
         25   -1    0    0    0    0  0.00000000000E+00  0.00000000000E+00  0.99999998245E-14  0.12500000000E+03  0.12500000000E+03 0.  0.
        -13    1    3    3    0    0  0.42724660654E+02  0.31579698497E+02  0.12039393030E+02  0.54475977584E+02  0.10566000000E+00 0. -1.
         23    2    1    0    0    0  0.29061145069E+01  0.25537278994E+02  0.15643583334E+02  0.94911466977E+02  0.90015924948E+02 0.  0.
         13    1    3    3    0    0 -0.39818546147E+02 -0.60424195026E+01  0.36041903036E+01  0.40435489393E+02  0.10566000000E+00 0.  1.
         22    1    1    0    0    0 -0.29061145069E+01 -0.25537278994E+02 -0.15643583334E+02  0.30088533023E+02  0.00000000000E+00 0. -1.
</event>
<event>
 5    1  0.1766634E-003  0.9118800E+02  0.7818608E-02  0.1130116E+00
         25   -1    0    0    0    0  0.00000000000E+00  0.00000000000E+00  0.99999998245E-14  0.12500000000E+03  0.12500000000E+03 0.  0.
        -13    1    3    3    0    0  0.22035846249E+02  0.25154196904E+01  0.82448770848E+01  0.23662100885E+02  0.10566000000E+00 0. -1.
         23    2    1    0    0    0 -0.30294373439E+02 -0.13387900129E+01 -0.24931732191E+02  0.85742737095E+02  0.76227844477E+02 0.  0.
         13    1    3    3    0    0 -0.52330219688E+02 -0.38542097032E+01 -0.33176609276E+02  0.62080636209E+02  0.10566000000E+00 0.  1.
         22    1    1    0    0    0  0.30294373439E+02  0.13387900129E+01  0.24931732191E+02  0.39257262905E+02  0.00000000000E+00 0.  1.
</event>
<event>
 5    1  0.1766634E-003  0.9118800E+02  0.7818608E-02  0.1130116E+00
         25   -1    0    0    0    0  0.00000000000E+00  0.00000000000E+00  0.99999998245E-14  0.12500000000E+03  0.12500000000E+03 0.  0.
        -13    1    3    3    0    0 -0.31208160213E+02 -0.28517464690E+01 -0.17363882369E+02  0.35827326118E+02  0.10566000000E+00 0.  1.
         23    2    1    0    0    0  0.27520020770E+02  0.31227012304E+01 -0.10993110484E+02  0.95201488557E+02  0.90417764511E+02 0.  0.
         13    1    3    3    0    0  0.58728180982E+02  0.59744476994E+01  0.63707718853E+01  0.59374162438E+02  0.10566000000E+00 0. -1.
         22    1    1    0    0    0 -0.27520020770E+02 -0.31227012304E+01  0.10993110484E+02  0.29798511443E+02  0.00000000000E+00 0. -1.
</event>
<event>
 5    1  0.1766634E-003  0.9118800E+02  0.7818608E-02  0.1130116E+00
         25   -1    0    0    0    0  0.00000000000E+00  0.00000000000E+00  0.99999998245E-14  0.12500000000E+03  0.12500000000E+03 0.  0.
        -13    1    3    3    0    0 -0.33958604132E+02  0.59133356711E+01 -0.51140865252E+00  0.34473570111E+02  0.10566000000E+00 0.  1.
         23    2    1    0    0    0  0.24929926697E+02 -0.13165315456E+02  0.39298510835E+01  0.96534749154E+02  0.92242545978E+02 0.  0.
         13    1    3    3    0    0  0.58888530830E+02 -0.19078651127E+02  0.44412597360E+01  0.62061179043E+02  0.10566000000E+00 0. -1.
         22    1    1    0    0    0 -0.24929926697E+02  0.13165315456E+02 -0.39298510835E+01  0.28465250846E+02  0.00000000000E+00 0. -1.
</event>
<event>
 5    1  0.1766634E-003  0.9118800E+02  0.7818608E-02  0.1130116E+00
         25   -1    0    0    0    0  0.00000000000E+00  0.00000000000E+00  0.99999998245E-14  0.12500000000E+03  0.12500000000E+03 0.  0.
        -13    1    3    3    0    0 -0.35887538275E+02 -0.38593975825E+02 -0.24224385462E+02  0.58002089518E+02  0.10566000000E+00 0.  1.
         23    2    1    0    0    0 -0.24371969550E+02 -0.18356384139E+02  0.35919670067E+01  0.94277826161E+02  0.89131680901E+02 0.  0.
         13    1    3    3    0    0  0.11515568726E+02  0.20237591685E+02  0.27816352469E+02  0.36275736643E+02  0.10566000000E+00 0. -1.
         22    1    1    0    0    0  0.24371969550E+02  0.18356384139E+02 -0.35919670067E+01  0.30722173839E+02  0.00000000000E+00 0.  1.
</event>
<event>
 5    1  0.1766634E-003  0.9118800E+02  0.7818608E-02  0.1130116E+00
         25   -1    0    0    0    0  0.00000000000E+00  0.00000000000E+00  0.99999998245E-14  0.12500000000E+03  0.12500000000E+03 0.  0.
        -13    1    3    3    0    0  0.12140744407E+02  0.32448543512E+02 -0.21482358884E+01  0.34712126588E+02  0.10566000000E+00 0.  1.
         23    2    1    0    0    0 -0.18294771466E+02 -0.20223905873E+02 -0.97927560359E+01  0.96024094449E+02  0.91547930682E+02 0.  0.
         13    1    3    3    0    0 -0.30435515873E+02 -0.52672449385E+02 -0.76445201475E+01  0.61311967861E+02  0.10566000000E+00 0. -1.
         22    1    1    0    0    0  0.18294771466E+02  0.20223905873E+02  0.97927560359E+01  0.28975905551E+02  0.00000000000E+00 0. -1.
</event>
<event>
 5    1  0.1766634E-003  0.9118800E+02  0.7818608E-02  0.1130116E+00
         25   -1    0    0    0    0  0.00000000000E+00  0.00000000000E+00  0.99999998245E-14  0.12500000000E+03  0.12500000000E+03 0.  0.
        -13    1    3    3    0    0 -0.34847993348E+02  0.66280027124E+01  0.85244302795E+01  0.36482737506E+02  0.10566000000E+00 0.  1.
         23    2    1    0    0    0  0.24819818815E+02  0.62180393618E+01  0.12962767586E+02  0.96316890633E+02  0.91946846918E+02 0.  0.
         13    1    3    3    0    0  0.59667812163E+02 -0.40996335062E+00  0.44383373060E+01  0.59834153126E+02  0.10566000000E+00 0. -1.
         22    1    1    0    0    0 -0.24819818815E+02 -0.62180393618E+01 -0.12962767586E+02  0.28683109367E+02  0.00000000000E+00 0. -1.
</event>
<event>
 5    1  0.1766634E-003  0.9118800E+02  0.7818608E-02  0.1130116E+00
         25   -1    0    0    0    0  0.00000000000E+00  0.00000000000E+00  0.99999998245E-14  0.12500000000E+03  0.12500000000E+03 0.  0.
        -13    1    3    3    0    0  0.29482619321E+02  0.42251165677E+01  0.23507886936E+02  0.37943489089E+02  0.10566000000E+00 0. -1.
         23    2    1    0    0    0 -0.16820521912E+02  0.24396067938E+02 -0.34045988460E+01  0.95172338652E+02  0.90377456608E+02 0.  0.
         13    1    3    3    0    0 -0.46303141233E+02  0.20170951370E+02 -0.26912485782E+02  0.57228849562E+02  0.10566000000E+00 0.  1.
         22    1    1    0    0    0  0.16820521912E+02 -0.24396067938E+02  0.34045988460E+01  0.29827661348E+02  0.00000000000E+00 0.  1.
</event>
<event>
 5    1  0.1766634E-003  0.9118800E+02  0.7818608E-02  0.1130116E+00
         25   -1    0    0    0    0  0.00000000000E+00  0.00000000000E+00  0.99999998245E-14  0.12500000000E+03  0.12500000000E+03 0.  0.
        -13    1    3    3    0    0  0.11240082980E+02 -0.55557528652E+02 -0.16247982888E+02  0.58965978048E+02  0.10566000000E+00 0.  1.
         23    2    1    0    0    0  0.19265222457E+02 -0.22057762717E+02 -0.44536641873E+01  0.95376887114E+02  0.90659923773E+02 0.  0.
         13    1    3    3    0    0  0.80251394772E+01  0.33499765935E+02  0.11794318700E+02  0.36410909065E+02  0.10566000000E+00 0. -1.
         22    1    1    0    0    0 -0.19265222457E+02  0.22057762717E+02  0.44536641873E+01  0.29623112886E+02  0.00000000000E+00 0.  1.
</event>
<event>
 5    1  0.1766634E-003  0.9118800E+02  0.7818608E-02  0.1130116E+00
         25   -1    0    0    0    0  0.00000000000E+00  0.00000000000E+00  0.99999998245E-14  0.12500000000E+03  0.12500000000E+03 0.  0.
        -13    1    3    3    0    0  0.10926603611E+02 -0.31168757502E+02 -0.60884886806E+01  0.33585159954E+02  0.10566000000E+00 0. -1.
         23    2    1    0    0    0 -0.32683950812E+02 -0.10105916030E+01  0.12818111913E+02  0.89877842761E+02  0.82731255824E+02 0.  0.
         13    1    3    3    0    0 -0.43610554424E+02  0.30158165899E+02  0.18906600594E+02  0.56292682807E+02  0.10566000000E+00 0.  1.
         22    1    1    0    0    0  0.32683950812E+02  0.10105916030E+01 -0.12818111913E+02  0.35122157239E+02  0.00000000000E+00 0.  1.
</event>
<event>
 5    1  0.1766634E-003  0.9118800E+02  0.7818608E-02  0.1130116E+00
         25   -1    0    0    0    0  0.00000000000E+00  0.00000000000E+00  0.99999998245E-14  0.12500000000E+03  0.12500000000E+03 0.  0.
        -13    1    3    3    0    0  0.38604214502E+02  0.38747913502E+01  0.12918937451E+02  0.40892658195E+02  0.10566000000E+00 0.  1.
         23    2    1    0    0    0 -0.65851131790E+01 -0.77849289826E+00 -0.24419283897E+02  0.99696419367E+02  0.96431866320E+02 0.  0.
         13    1    3    3    0    0 -0.45189327681E+02 -0.46532842484E+01 -0.37338221349E+02  0.58803761173E+02  0.10566000000E+00 0. -1.
         22    1    1    0    0    0  0.65851131790E+01  0.77849289826E+00  0.24419283897E+02  0.25303580633E+02  0.00000000000E+00 0. -1.
</event>
<event>
 5    1  0.1766634E-003  0.9118800E+02  0.7818608E-02  0.1130116E+00
         25   -1    0    0    0    0  0.00000000000E+00  0.00000000000E+00  0.99999998245E-14  0.12500000000E+03  0.12500000000E+03 0.  0.
        -13    1    3    3    0    0 -0.23075302863E+02  0.10485085613E+02  0.21226766325E+02  0.33060450619E+02  0.10566000000E+00 0. -1.
         23    2    1    0    0    0  0.22955334405E+02  0.15796752425E+02 -0.16326842080E+02  0.92703707068E+02  0.86896068767E+02 0.  0.
         13    1    3    3    0    0  0.46030637268E+02  0.53116668123E+01 -0.37553608404E+02  0.59643256449E+02  0.10566000000E+00 0.  1.
         22    1    1    0    0    0 -0.22955334405E+02 -0.15796752425E+02  0.16326842080E+02  0.32296292932E+02  0.00000000000E+00 0.  1.
</event>
<event>
 5    1  0.1766634E-003  0.9118800E+02  0.7818608E-02  0.1130116E+00
         25   -1    0    0    0    0  0.00000000000E+00  0.00000000000E+00  0.99999998245E-14  0.12500000000E+03  0.12500000000E+03 0.  0.
        -13    1    3    3    0    0 -0.36682677358E+02 -0.14187026909E+01  0.49984889668E+02  0.62017190316E+02  0.10566000000E+00 0. -1.
         23    2    1    0    0    0 -0.12466304675E+02 -0.21858205917E+00  0.26212785712E+02  0.95973001099E+02  0.91478140968E+02 0.  0.
         13    1    3    3    0    0  0.24216372683E+02  0.12001206317E+01 -0.23772103956E+02  0.33955810784E+02  0.10566000000E+00 0.  1.
         22    1    1    0    0    0  0.12466304675E+02  0.21858205917E+00 -0.26212785712E+02  0.29026998901E+02  0.00000000000E+00 0. -1.
</event>
<event>
 5    1  0.1766634E-003  0.9118800E+02  0.7818608E-02  0.1130116E+00
         25   -1    0    0    0    0  0.00000000000E+00  0.00000000000E+00  0.99999998245E-14  0.12500000000E+03  0.12500000000E+03 0.  0.
        -13    1    3    3    0    0  0.18941299136E+02  0.29466512426E+02 -0.76446944039E+01  0.35853879624E+02  0.10566000000E+00 0.  1.
         23    2    1    0    0    0  0.66346862397E+01 -0.26366906912E+02  0.10524668139E+02  0.95845215126E+02  0.91303361282E+02 0.  0.
         13    1    3    3    0    0 -0.12306612896E+02 -0.55833419339E+02  0.18169362543E+02  0.59991335502E+02  0.10566000000E+00 0. -1.
         22    1    1    0    0    0 -0.66346862397E+01  0.26366906912E+02 -0.10524668139E+02  0.29154784874E+02  0.00000000000E+00 0. -1.
</event>
<event>
 5    1  0.1766634E-003  0.9118800E+02  0.7818608E-02  0.1130116E+00
         25   -1    0    0    0    0  0.00000000000E+00  0.00000000000E+00  0.99999998245E-14  0.12500000000E+03  0.12500000000E+03 0.  0.
        -13    1    3    3    0    0 -0.27799896540E+02 -0.20780252263E+02  0.50375650927E+01  0.35071945453E+02  0.10566000000E+00 0.  1.
         23    2    1    0    0    0  0.10442153644E+02  0.16546397007E+02 -0.22494787648E+02  0.95186625519E+02  0.90397214447E+02 0.  0.
         13    1    3    3    0    0  0.38242050184E+02  0.37326649269E+02 -0.27532352741E+02  0.60114680066E+02  0.10566000000E+00 0. -1.
         22    1    1    0    0    0 -0.10442153644E+02 -0.16546397007E+02  0.22494787648E+02  0.29813374481E+02  0.00000000000E+00 0. -1.
</event>
<event>
 5    1  0.1766634E-003  0.9118800E+02  0.7818608E-02  0.1130116E+00
         25   -1    0    0    0    0  0.00000000000E+00  0.00000000000E+00  0.99999998245E-14  0.12500000000E+03  0.12500000000E+03 0.  0.
        -13    1    3    3    0    0 -0.25186835588E+02 -0.45277951991E+02 -0.27812014788E+02  0.58804667792E+02  0.10566000000E+00 0. -1.
         23    2    1    0    0    0 -0.21121118736E+02 -0.24104057844E+02 -0.13709604566E+01  0.92922175981E+02  0.87209770068E+02 0.  0.
         13    1    3    3    0    0  0.40657168526E+01  0.21173894147E+02  0.26441054332E+02  0.34117508190E+02  0.10566000000E+00 0.  1.
         22    1    1    0    0    0  0.21121118736E+02  0.24104057844E+02  0.13709604566E+01  0.32077824019E+02  0.00000000000E+00 0. -1.
</event>
<event>
 5    1  0.1766634E-003  0.9118800E+02  0.7818608E-02  0.1130116E+00
         25   -1    0    0    0    0  0.00000000000E+00  0.00000000000E+00  0.99999998245E-14  0.12500000000E+03  0.12500000000E+03 0.  0.
        -13    1    3    3    0    0  0.44271994727E+02 -0.19269201095E+02 -0.27868095290E+02  0.55749022656E+02  0.10566000000E+00 0.  1.
         23    2    1    0    0    0  0.46612735467E+01 -0.78833074381E+01 -0.26473215597E+02  0.96987410843E+02  0.92853932123E+02 0.  0.
         13    1    3    3    0    0 -0.39610721181E+02  0.11385893657E+02  0.13948796928E+01  0.41238388186E+02  0.10566000000E+00 0. -1.
         22    1    1    0    0    0 -0.46612735467E+01  0.78833074381E+01  0.26473215597E+02  0.28012589157E+02  0.00000000000E+00 0.  1.
</event>
<event>
 5    1  0.1766634E-003  0.9118800E+02  0.7818608E-02  0.1130116E+00
         25   -1    0    0    0    0  0.00000000000E+00  0.00000000000E+00  0.99999998245E-14  0.12500000000E+03  0.12500000000E+03 0.  0.
        -13    1    3    3    0    0  0.37796102300E+02  0.36655711295E+01  0.14820912419E+02  0.40763370442E+02  0.10566000000E+00 0. -1.
         23    2    1    0    0    0  0.28245351537E+01  0.18054409063E+02 -0.23918062737E+02  0.94899943347E+02  0.89999921315E+02 0.  0.
         13    1    3    3    0    0 -0.34971567147E+02  0.14388837934E+02 -0.38738975156E+02  0.54136572905E+02  0.10566000000E+00 0.  1.
         22    1    1    0    0    0 -0.28245351537E+01 -0.18054409063E+02  0.23918062737E+02  0.30100056653E+02  0.00000000000E+00 0.  1.
</event>
<event>
 5    1  0.1766634E-003  0.9118800E+02  0.7818608E-02  0.1130116E+00
         25   -1    0    0    0    0  0.00000000000E+00  0.00000000000E+00  0.99999998245E-14  0.12500000000E+03  0.12500000000E+03 0.  0.
        -13    1    3    3    0    0 -0.42558135207E+02  0.36020121189E+02  0.24548048728E+02  0.60920126913E+02  0.10566000000E+00 0. -1.
         23    2    1    0    0    0 -0.24097975257E+02  0.81730477879E+01  0.72595553726E+01  0.98538475746E+02  0.94919012514E+02 0.  0.
         13    1    3    3    0    0  0.18460159950E+02 -0.27847073401E+02 -0.17288493355E+02  0.37618348833E+02  0.10566000000E+00 0.  1.
         22    1    1    0    0    0  0.24097975257E+02 -0.81730477879E+01 -0.72595553726E+01  0.26461524254E+02  0.00000000000E+00 0. -1.
</event>
<event>
 5    1  0.1766634E-003  0.9118800E+02  0.7818608E-02  0.1130116E+00
         25   -1    0    0    0    0  0.00000000000E+00  0.00000000000E+00  0.99999998245E-14  0.12500000000E+03  0.12500000000E+03 0.  0.
        -13    1    3    3    0    0 -0.16939398322E+02  0.48624746329E+02 -0.11308322296E+02  0.52718103989E+02  0.10566000000E+00 0. -1.
         23    2    1    0    0    0  0.13895338153E+02  0.13222345556E+02 -0.16163741591E+02  0.99916591407E+02  0.96716843682E+02 0.  0.
         13    1    3    3    0    0  0.30834736475E+02 -0.35402400773E+02 -0.48554192955E+01  0.47198487418E+02  0.10566000000E+00 0.  1.
         22    1    1    0    0    0 -0.13895338153E+02 -0.13222345556E+02  0.16163741591E+02  0.25083408593E+02  0.00000000000E+00 0.  1.
</event>
<event>
 5    1  0.1766634E-003  0.9118800E+02  0.7818608E-02  0.1130116E+00
         25   -1    0    0    0    0  0.00000000000E+00  0.00000000000E+00  0.99999998245E-14  0.12500000000E+03  0.12500000000E+03 0.  0.
        -13    1    3    3    0    0 -0.30115125708E+02  0.11931427867E+02  0.10828529777E+02  0.34154765239E+02  0.10566000000E+00 0. -1.
         23    2    1    0    0    0  0.23036742177E+02 -0.13976604945E+02 -0.91110153382E+01  0.96556238357E+02  0.92271661897E+02 0.  0.
         13    1    3    3    0    0  0.53151867885E+02 -0.25908032812E+02 -0.19939545115E+02  0.62401473118E+02  0.10566000000E+00 0.  1.
         22    1    1    0    0    0 -0.23036742177E+02  0.13976604945E+02  0.91110153382E+01  0.28443761643E+02  0.00000000000E+00 0.  1.
</event>
<event>
 5    1  0.1766634E-003  0.9118800E+02  0.7818608E-02  0.1130116E+00
         25   -1    0    0    0    0  0.00000000000E+00  0.00000000000E+00  0.99999998245E-14  0.12500000000E+03  0.12500000000E+03 0.  0.
        -13    1    3    3    0    0  0.58668077105E+02  0.53460242379E+00 -0.15126406053E+02  0.60589177211E+02  0.10566000000E+00 0.  1.
         23    2    1    0    0    0  0.27913241715E+02  0.75589486145E+01  0.10915572506E+01  0.96060783278E+02  0.91598012094E+02 0.  0.
         13    1    3    3    0    0 -0.30754835390E+02  0.70243461907E+01  0.16217963303E+02  0.35471606068E+02  0.10566000000E+00 0. -1.
         22    1    1    0    0    0 -0.27913241715E+02 -0.75589486145E+01 -0.10915572506E+01  0.28939216722E+02  0.00000000000E+00 0.  1.
</event>
<event>
 5    1  0.1766634E-003  0.9118800E+02  0.7818608E-02  0.1130116E+00
         25   -1    0    0    0    0  0.00000000000E+00  0.00000000000E+00  0.99999998245E-14  0.12500000000E+03  0.12500000000E+03 0.  0.
        -13    1    3    3    0    0 -0.25228518883E+02  0.33464008263E+02  0.14493139830E+02  0.44343886616E+02  0.10566000000E+00 0.  1.
         23    2    1    0    0    0  0.15268060685E+02  0.18931858671E+02 -0.14924523357E+02  0.96464577325E+02  0.92147405450E+02 0.  0.
         13    1    3    3    0    0  0.40496579568E+02 -0.14532149592E+02 -0.29417663188E+02  0.52120690708E+02  0.10566000000E+00 0. -1.
         22    1    1    0    0    0 -0.15268060685E+02 -0.18931858671E+02  0.14924523357E+02  0.28535422675E+02  0.00000000000E+00 0. -1.
</event>
<event>
 5    1  0.1766634E-003  0.9118800E+02  0.7818608E-02  0.1130116E+00
         25   -1    0    0    0    0  0.00000000000E+00  0.00000000000E+00  0.99999998245E-14  0.12500000000E+03  0.12500000000E+03 0.  0.
        -13    1    3    3    0    0 -0.24970803986E+02 -0.49054955408E+02 -0.25894216424E+02  0.60831334935E+02  0.10566000000E+00 0.  1.
         23    2    1    0    0    0 -0.11025945663E+02 -0.17153209422E+02 -0.20539748817E+02  0.96057205514E+02  0.91593129537E+02 0.  0.
         13    1    3    3    0    0  0.13944858323E+02  0.31901745986E+02  0.53544676069E+01  0.35225870578E+02  0.10566000000E+00 0. -1.
         22    1    1    0    0    0  0.11025945663E+02  0.17153209422E+02  0.20539748817E+02  0.28942794486E+02  0.00000000000E+00 0.  1.
</event>
<event>
 5    1  0.1766634E-003  0.9118800E+02  0.7818608E-02  0.1130116E+00
         25   -1    0    0    0    0  0.00000000000E+00  0.00000000000E+00  0.99999998245E-14  0.12500000000E+03  0.12500000000E+03 0.  0.
        -13    1    3    3    0    0 -0.20765067805E+02  0.47781271272E+02  0.27271853204E+02  0.58804787786E+02  0.10566000000E+00 0. -1.
         23    2    1    0    0    0  0.27576691204E+01  0.29316757635E+02  0.76350719355E+01  0.94580083159E+02  0.89554568782E+02 0.  0.
         13    1    3    3    0    0  0.23522736926E+02 -0.18464513638E+02 -0.19636781269E+02  0.35775295372E+02  0.10566000000E+00 0.  1.
         22    1    1    0    0    0 -0.27576691204E+01 -0.29316757635E+02 -0.76350719355E+01  0.30419916841E+02  0.00000000000E+00 0. -1.
</event>
<event>
 5    1  0.1766634E-003  0.9118800E+02  0.7818608E-02  0.1130116E+00
         25   -1    0    0    0    0  0.00000000000E+00  0.00000000000E+00  0.99999998245E-14  0.12500000000E+03  0.12500000000E+03 0.  0.
        -13    1    3    3    0    0  0.38173374919E+02  0.96128131710E+01  0.26395043084E+01  0.39453654797E+02  0.10566000000E+00 0. -1.
         23    2    1    0    0    0 -0.44395890763E+01 -0.24327372121E+02 -0.14211732913E+02  0.96478002562E+02  0.92165615283E+02 0.  0.
         13    1    3    3    0    0 -0.42612963996E+02 -0.33940185292E+02 -0.16851237221E+02  0.57024347765E+02  0.10566000000E+00 0.  1.
         22    1    1    0    0    0  0.44395890763E+01  0.24327372121E+02  0.14211732913E+02  0.28521997438E+02  0.00000000000E+00 0.  1.
</event>
<event>
 5    1  0.1766634E-003  0.9118800E+02  0.7818608E-02  0.1130116E+00
         25   -1    0    0    0    0  0.00000000000E+00  0.00000000000E+00  0.99999998245E-14  0.12500000000E+03  0.12500000000E+03 0.  0.
        -13    1    3    3    0    0 -0.37239591523E+02 -0.14249513137E+02 -0.37088125669E+02  0.54455266330E+02  0.10566000000E+00 0.  1.
         23    2    1    0    0    0 -0.21789576857E+02 -0.18566521396E+02  0.15906922176E+01  0.96328905181E+02  0.91963179019E+02 0.  0.
         13    1    3    3    0    0  0.15450014666E+02 -0.43170082590E+01  0.38678817887E+02  0.41873638851E+02  0.10566000000E+00 0. -1.
         22    1    1    0    0    0  0.21789576857E+02  0.18566521396E+02 -0.15906922176E+01  0.28671094819E+02  0.00000000000E+00 0.  1.
</event>
<event>
 5    1  0.1766634E-003  0.9118800E+02  0.7818608E-02  0.1130116E+00
         25   -1    0    0    0    0  0.00000000000E+00  0.00000000000E+00  0.99999998245E-14  0.12500000000E+03  0.12500000000E+03 0.  0.
        -13    1    3    3    0    0 -0.24640869035E+01  0.36623355469E+02 -0.40512635309E+01  0.36929199698E+02  0.10566000000E+00 0. -1.
         23    2    1    0    0    0 -0.20516147710E+02 -0.16889736625E+02  0.12289763096E+02  0.95721786306E+02  0.91134222862E+02 0.  0.
         13    1    3    3    0    0 -0.18052060807E+02 -0.53513092094E+02  0.16341026627E+02  0.58792586608E+02  0.10566000000E+00 0.  1.
         22    1    1    0    0    0  0.20516147710E+02  0.16889736625E+02 -0.12289763096E+02  0.29278213694E+02  0.00000000000E+00 0.  1.
</event>
<event>
 4    1  0.1766634E-003  0.9118800E+02  0.7818608E-02  0.1130116E+00
         25   -1    0    0    0    0  0.00000000000E+00  0.00000000000E+00  0.99999998245E-14  0.12500000000E+03  0.12500000000E+03 0.  0.
        -13    1    1    0    0    0 -0.85298980258E+00  0.10393594140E+02  0.17398417858E+02  0.20284735610E+02  0.10566000000E+00 0.  1.
         13    1    1    0    0    0 -0.11878146609E+02 -0.48840171759E+02  0.15432766331E+02  0.52579788750E+02  0.10566000000E+00 0. -1.
         22    1    1    0    0    0  0.12731136412E+02  0.38446577619E+02 -0.32831184189E+02  0.52135475640E+02  0.00000000000E+00 0. -1.
</event>
<event>
 5    1  0.1766634E-003  0.9118800E+02  0.7818608E-02  0.1130116E+00
         25   -1    0    0    0    0  0.00000000000E+00  0.00000000000E+00  0.99999998245E-14  0.12500000000E+03  0.12500000000E+03 0.  0.
        -13    1    3    3    0    0 -0.18972513806E+02  0.39166722117E+02  0.34600428125E+02  0.55598463935E+02  0.10566000000E+00 0.  1.
         23    2    1    0    0    0 -0.23589671867E+02  0.16730041183E+02  0.12565887813E+01  0.96052704580E+02  0.91586986766E+02 0.  0.
         13    1    3    3    0    0 -0.46171580617E+01 -0.22436680935E+02 -0.33343839343E+02  0.40454240644E+02  0.10566000000E+00 0. -1.
         22    1    1    0    0    0  0.23589671867E+02 -0.16730041183E+02 -0.12565887813E+01  0.28947295420E+02  0.00000000000E+00 0.  1.
</event>
<event>
 5    1  0.1766634E-003  0.9118800E+02  0.7818608E-02  0.1130116E+00
         25   -1    0    0    0    0  0.00000000000E+00  0.00000000000E+00  0.99999998245E-14  0.12500000000E+03  0.12500000000E+03 0.  0.
        -13    1    3    3    0    0  0.35779478374E+02  0.90269246795E+01  0.99411009630E+01  0.38216398238E+02  0.10566000000E+00 0.  1.
         23    2    1    0    0    0 -0.64469409820E+01  0.23080303619E+02  0.29639619346E+02  0.86884773409E+02  0.78078123391E+02 0.  0.
         13    1    3    3    0    0 -0.42226419356E+02  0.14053378939E+02  0.19698518383E+02  0.48668375171E+02  0.10566000000E+00 0. -1.
         22    1    1    0    0    0  0.64469409820E+01 -0.23080303619E+02 -0.29639619346E+02  0.38115226591E+02  0.00000000000E+00 0. -1.
</event>
<event>
 5    1  0.1766634E-003  0.9118800E+02  0.7818608E-02  0.1130116E+00
         25   -1    0    0    0    0  0.00000000000E+00  0.00000000000E+00  0.99999998245E-14  0.12500000000E+03  0.12500000000E+03 0.  0.
        -13    1    3    3    0    0 -0.27499736258E+02  0.81045359996E+01 -0.51314347775E+02  0.58780034447E+02  0.10566000000E+00 0.  1.
         23    2    1    0    0    0 -0.12515137228E+02  0.19167278725E+02 -0.24070208043E+02  0.91782713103E+02  0.85560962335E+02 0.  0.
         13    1    3    3    0    0  0.14984599030E+02  0.11062742726E+02  0.27244139731E+02  0.33002678656E+02  0.10566000000E+00 0. -1.
         22    1    1    0    0    0  0.12515137228E+02 -0.19167278725E+02  0.24070208043E+02  0.33217286897E+02  0.00000000000E+00 0.  1.
</event>
<event>
 5    1  0.1766634E-003  0.9118800E+02  0.7818608E-02  0.1130116E+00
         25   -1    0    0    0    0  0.00000000000E+00  0.00000000000E+00  0.99999998245E-14  0.12500000000E+03  0.12500000000E+03 0.  0.
        -13    1    3    3    0    0  0.24776985266E+02 -0.29759537943E+02 -0.20015931411E+01  0.38775593311E+02  0.10566000000E+00 0. -1.
         23    2    1    0    0    0 -0.24649464089E+02 -0.85735222083E+01 -0.16057273171E+02  0.94357914813E+02  0.89243928103E+02 0.  0.
         13    1    3    3    0    0 -0.49426449354E+02  0.21186015735E+02 -0.14055680030E+02  0.55582321503E+02  0.10566000000E+00 0.  1.
         22    1    1    0    0    0  0.24649464089E+02  0.85735222083E+01  0.16057273171E+02  0.30642085187E+02  0.00000000000E+00 0.  1.
</event>
<event>
 5    1  0.1766634E-003  0.9118800E+02  0.7818608E-02  0.1130116E+00
         25   -1    0    0    0    0  0.00000000000E+00  0.00000000000E+00  0.99999998245E-14  0.12500000000E+03  0.12500000000E+03 0.  0.
        -13    1    3    3    0    0  0.35591667150E+02  0.19875096514E+02 -0.21294803140E+02  0.45992021447E+02  0.10566000000E+00 0.  1.
         23    2    1    0    0    0  0.17665286632E+02 -0.23213875577E+02 -0.51312455961E+01  0.95381153762E+02  0.90665806347E+02 0.  0.
         13    1    3    3    0    0 -0.17926380518E+02 -0.43088972091E+02  0.16163557544E+02  0.49389132315E+02  0.10566000000E+00 0. -1.
         22    1    1    0    0    0 -0.17665286632E+02  0.23213875577E+02  0.51312455961E+01  0.29618846238E+02  0.00000000000E+00 0.  1.
</event>
<event>
 5    1  0.1766634E-003  0.9118800E+02  0.7818608E-02  0.1130116E+00
         25   -1    0    0    0    0  0.00000000000E+00  0.00000000000E+00  0.99999998245E-14  0.12500000000E+03  0.12500000000E+03 0.  0.
        -13    1    3    3    0    0 -0.75242143263E+01  0.43404272103E+02 -0.31516078166E+01  0.44164334410E+02  0.10566000000E+00 0. -1.
         23    2    1    0    0    0 -0.14363820461E+02  0.29737624912E+01 -0.28905084318E+02  0.92586013805E+02  0.86726601751E+02 0.  0.
         13    1    3    3    0    0 -0.68396061342E+01 -0.40430509612E+02 -0.25753476502E+02  0.48421679395E+02  0.10566000000E+00 0.  1.
         22    1    1    0    0    0  0.14363820461E+02 -0.29737624912E+01  0.28905084318E+02  0.32413986195E+02  0.00000000000E+00 0. -1.
</event>
<event>
 5    1  0.1766634E-003  0.9118800E+02  0.7818608E-02  0.1130116E+00
         25   -1    0    0    0    0  0.00000000000E+00  0.00000000000E+00  0.99999998245E-14  0.12500000000E+03  0.12500000000E+03 0.  0.
        -13    1    3    3    0    0  0.90711999075E+01 -0.11059649964E+02  0.52044334843E+02  0.53974313134E+02  0.10566000000E+00 0. -1.
         23    2    1    0    0    0 -0.18912284685E+02 -0.62446324509E+01  0.22491536134E+02  0.94957710738E+02  0.90080118142E+02 0.  0.
         13    1    3    3    0    0 -0.27983484592E+02  0.48150175130E+01 -0.29552798709E+02  0.40983397604E+02  0.10566000000E+00 0.  1.
         22    1    1    0    0    0  0.18912284685E+02  0.62446324509E+01 -0.22491536134E+02  0.30042289262E+02  0.00000000000E+00 0. -1.
</event>
<event>
 5    1  0.1766634E-003  0.9118800E+02  0.7818608E-02  0.1130116E+00
         25   -1    0    0    0    0  0.00000000000E+00  0.00000000000E+00  0.99999998245E-14  0.12500000000E+03  0.12500000000E+03 0.  0.
        -13    1    3    3    0    0 -0.13154128001E+02 -0.13522045999E+02 -0.33176536742E+02  0.38165043766E+02  0.10566000000E+00 0. -1.
         23    2    1    0    0    0  0.14073005521E+02 -0.10232782600E+02  0.20299582545E+02  0.98263650667E+02  0.94556399397E+02 0.  0.
         13    1    3    3    0    0  0.27227133522E+02  0.32892633993E+01  0.53476119287E+02  0.60098606902E+02  0.10566000000E+00 0.  1.
         22    1    1    0    0    0 -0.14073005521E+02  0.10232782600E+02 -0.20299582545E+02  0.26736349333E+02  0.00000000000E+00 0.  1.
</event>
<event>
 5    1  0.1766634E-003  0.9118800E+02  0.7818608E-02  0.1130116E+00
         25   -1    0    0    0    0  0.00000000000E+00  0.00000000000E+00  0.99999998245E-14  0.12500000000E+03  0.12500000000E+03 0.  0.
        -13    1    3    3    0    0 -0.18506289024E+02  0.23166256198E+02 -0.48779545246E+02  0.57084265417E+02  0.10566000000E+00 0.  1.
         23    2    1    0    0    0 -0.19614976700E+01  0.26530633227E+02 -0.16000894177E+02  0.93955667393E+02  0.88678728273E+02 0.  0.
         13    1    3    3    0    0  0.16544791354E+02  0.33643770291E+01  0.32778651069E+02  0.36871401976E+02  0.10566000000E+00 0. -1.
         22    1    1    0    0    0  0.19614976700E+01 -0.26530633227E+02  0.16000894177E+02  0.31044332607E+02  0.00000000000E+00 0.  1.
</event>
<event>
 5    1  0.1766634E-003  0.9118800E+02  0.7818608E-02  0.1130116E+00
         25   -1    0    0    0    0  0.00000000000E+00  0.00000000000E+00  0.99999998245E-14  0.12500000000E+03  0.12500000000E+03 0.  0.
        -13    1    3    3    0    0  0.15254091255E+02  0.22198638578E+02  0.38859414406E+02  0.47281413967E+02  0.10566000000E+00 0. -1.
         23    2    1    0    0    0 -0.12996579222E+02 -0.12929407669E+02  0.24110189601E+02  0.94711687126E+02  0.89738073200E+02 0.  0.
         13    1    3    3    0    0 -0.28250670477E+02 -0.35128046247E+02 -0.14749224805E+02  0.47430273159E+02  0.10566000000E+00 0.  1.
         22    1    1    0    0    0  0.12996579222E+02  0.12929407669E+02 -0.24110189601E+02  0.30288312874E+02  0.00000000000E+00 0.  1.
</event>
<event>
 5    1  0.1766634E-003  0.9118800E+02  0.7818608E-02  0.1130116E+00
         25   -1    0    0    0    0  0.00000000000E+00  0.00000000000E+00  0.99999998245E-14  0.12500000000E+03  0.12500000000E+03 0.  0.
        -13    1    3    3    0    0 -0.38374054658E+02 -0.26640940725E+02 -0.12035477213E+02  0.48240767711E+02  0.10566000000E+00 0. -1.
         23    2    1    0    0    0  0.10208219157E+02 -0.22528059108E+02  0.47685759425E+01  0.99811500600E+02  0.96580925394E+02 0.  0.
         13    1    3    3    0    0  0.48582273815E+02  0.41128816168E+01  0.16804053155E+02  0.51570732889E+02  0.10566000000E+00 0.  1.
         22    1    1    0    0    0 -0.10208219157E+02  0.22528059108E+02 -0.47685759425E+01  0.25188499400E+02  0.00000000000E+00 0. -1.
</event>
<event>
 4    1  0.1766634E-003  0.9118800E+02  0.7818608E-02  0.1130116E+00
         25   -1    0    0    0    0  0.00000000000E+00  0.00000000000E+00  0.99999998245E-14  0.12500000000E+03  0.12500000000E+03 0.  0.
        -13    1    1    0    0    0  0.85720338126E+01 -0.66143430995E+01  0.25656247647E+01  0.11127573536E+02  0.10566000000E+00 0. -1.
         13    1    1    0    0    0  0.32009514214E+01  0.34972959039E+02 -0.47730525148E+02  0.59258485881E+02  0.10566000000E+00 0.  1.
         22    1    1    0    0    0 -0.11772985234E+02 -0.28358615940E+02  0.45164900384E+02  0.54613940583E+02  0.00000000000E+00 0.  1.
</event>
<event>
 5    1  0.1766634E-003  0.9118800E+02  0.7818608E-02  0.1130116E+00
         25   -1    0    0    0    0  0.00000000000E+00  0.00000000000E+00  0.99999998245E-14  0.12500000000E+03  0.12500000000E+03 0.  0.
        -13    1    3    3    0    0  0.45185047214E+02  0.19046510985E+02  0.17468456989E+02  0.52053974162E+02  0.10566000000E+00 0.  1.
         23    2    1    0    0    0  0.23633297641E+02  0.27470100405E+02 -0.94496689277E+01  0.87550895652E+02  0.79137373680E+02 0.  0.
         13    1    3    3    0    0 -0.21551749573E+02  0.84235894200E+01 -0.26918125916E+02  0.35496921490E+02  0.10566000000E+00 0. -1.
         22    1    1    0    0    0 -0.23633297641E+02 -0.27470100405E+02  0.94496689277E+01  0.37449104348E+02  0.00000000000E+00 0.  1.
</event>
<event>
 5    1  0.1766634E-003  0.9118800E+02  0.7818608E-02  0.1130116E+00
         25   -1    0    0    0    0  0.00000000000E+00  0.00000000000E+00  0.99999998245E-14  0.12500000000E+03  0.12500000000E+03 0.  0.
        -13    1    3    3    0    0 -0.16723355256E+02 -0.47618842780E+01 -0.30259770074E+02  0.34900014354E+02  0.10566000000E+00 0.  1.
         23    2    1    0    0    0  0.45905093150E+01 -0.37980118639E+01  0.27702289017E+02  0.96664254259E+02  0.92417874704E+02 0.  0.
         13    1    3    3    0    0  0.21313864571E+02  0.96387241413E+00  0.57962059091E+02  0.61764239906E+02  0.10566000000E+00 0. -1.
         22    1    1    0    0    0 -0.45905093150E+01  0.37980118639E+01 -0.27702289017E+02  0.28335745741E+02  0.00000000000E+00 0. -1.
</event>
<event>
 5    1  0.1766634E-003  0.9118800E+02  0.7818608E-02  0.1130116E+00
         25   -1    0    0    0    0  0.00000000000E+00  0.00000000000E+00  0.99999998245E-14  0.12500000000E+03  0.12500000000E+03 0.  0.
        -13    1    3    3    0    0  0.11276079728E+02  0.22283214527E+02 -0.22823850060E+02  0.33832394525E+02  0.10566000000E+00 0.  1.
         23    2    1    0    0    0  0.55959475406E+01 -0.24580157561E+02  0.16160944526E+02  0.95055469572E+02  0.90215671548E+02 0.  0.
         13    1    3    3    0    0 -0.56801321876E+01 -0.46863372088E+02  0.38984794586E+02  0.61223075046E+02  0.10566000000E+00 0. -1.
         22    1    1    0    0    0 -0.55959475406E+01  0.24580157561E+02 -0.16160944526E+02  0.29944530428E+02  0.00000000000E+00 0. -1.
</event>
<event>
 5    1  0.1766634E-003  0.9118800E+02  0.7818608E-02  0.1130116E+00
         25   -1    0    0    0    0  0.00000000000E+00  0.00000000000E+00  0.99999998245E-14  0.12500000000E+03  0.12500000000E+03 0.  0.
        -13    1    3    3    0    0  0.11702765297E+01  0.53456511424E+01  0.55843278730E+02  0.56110858812E+02  0.10566000000E+00 0.  1.
         23    2    1    0    0    0 -0.98405043208E+01  0.18123147001E+02  0.17677089741E+02  0.97838198068E+02  0.93992284348E+02 0.  0.
         13    1    3    3    0    0 -0.11010780851E+02  0.12777495859E+02 -0.38166188989E+02  0.41727339256E+02  0.10566000000E+00 0. -1.
         22    1    1    0    0    0  0.98405043208E+01 -0.18123147001E+02 -0.17677089741E+02  0.27161801932E+02  0.00000000000E+00 0. -1.
</event>
<event>
 5    1  0.1766634E-003  0.9118800E+02  0.7818608E-02  0.1130116E+00
         25   -1    0    0    0    0  0.00000000000E+00  0.00000000000E+00  0.99999998245E-14  0.12500000000E+03  0.12500000000E+03 0.  0.
        -13    1    3    3    0    0 -0.17060569139E+01 -0.29423032940E+02 -0.15496110473E+02  0.33298139609E+02  0.10566000000E+00 0.  1.
         23    2    1    0    0    0  0.30100028537E+01  0.28341132247E+02  0.73045144400E+01  0.95578310289E+02  0.90937217751E+02 0.  0.
         13    1    3    3    0    0  0.47160597676E+01  0.57764165187E+02  0.22800624913E+02  0.62280170680E+02  0.10566000000E+00 0. -1.
         22    1    1    0    0    0 -0.30100028537E+01 -0.28341132247E+02 -0.73045144400E+01  0.29421689711E+02  0.00000000000E+00 0. -1.
</event>
<event>
 5    1  0.1766634E-003  0.9118800E+02  0.7818608E-02  0.1130116E+00
         25   -1    0    0    0    0  0.00000000000E+00  0.00000000000E+00  0.99999998245E-14  0.12500000000E+03  0.12500000000E+03 0.  0.
        -13    1    3    3    0    0 -0.28701343934E+02  0.42136313299E+01  0.35182235636E+02  0.45599591017E+02  0.10566000000E+00 0.  1.
         23    2    1    0    0    0 -0.14689053877E+02  0.25133301838E+02 -0.73041463507E+01  0.94986640992E+02  0.90120254371E+02 0.  0.
         13    1    3    3    0    0  0.14012290057E+02  0.20919670508E+02 -0.42486381987E+02  0.49387049974E+02  0.10566000000E+00 0. -1.
         22    1    1    0    0    0  0.14689053877E+02 -0.25133301838E+02  0.73041463507E+01  0.30013359008E+02  0.00000000000E+00 0.  1.
</event>
<event>
 5    1  0.1766634E-003  0.9118800E+02  0.7818608E-02  0.1130116E+00
         25   -1    0    0    0    0  0.00000000000E+00  0.00000000000E+00  0.99999998245E-14  0.12500000000E+03  0.12500000000E+03 0.  0.
        -13    1    3    3    0    0  0.21503155004E+02 -0.95963555218E+01 -0.27822853503E+02  0.36449939033E+02  0.10566000000E+00 0. -1.
         23    2    1    0    0    0  0.10630998901E+02  0.11043802602E+02  0.25834873909E+02  0.94959620119E+02  0.90082767662E+02 0.  0.
         13    1    3    3    0    0 -0.10872156104E+02  0.20640158124E+02  0.53657727412E+02  0.58509681085E+02  0.10566000000E+00 0.  1.
         22    1    1    0    0    0 -0.10630998901E+02 -0.11043802602E+02 -0.25834873909E+02  0.30040379881E+02  0.00000000000E+00 0.  1.
</event>
<event>
 5    1  0.1766634E-003  0.9118800E+02  0.7818608E-02  0.1130116E+00
         25   -1    0    0    0    0  0.00000000000E+00  0.00000000000E+00  0.99999998245E-14  0.12500000000E+03  0.12500000000E+03 0.  0.
        -13    1    3    3    0    0  0.43320117903E+02  0.12187777508E+02  0.22204888173E+02  0.50182095996E+02  0.10566000000E+00 0. -1.
         23    2    1    0    0    0  0.18278252330E+02 -0.22278687427E+02  0.79645310599E+01  0.95102371721E+02  0.90280634304E+02 0.  0.
         13    1    3    3    0    0 -0.25041865573E+02 -0.34466464934E+02 -0.14240357114E+02  0.44920275725E+02  0.10566000000E+00 0.  1.
         22    1    1    0    0    0 -0.18278252330E+02  0.22278687427E+02 -0.79645310599E+01  0.29897628279E+02  0.00000000000E+00 0. -1.
</event>
<event>
 5    1  0.1766634E-003  0.9118800E+02  0.7818608E-02  0.1130116E+00
         25   -1    0    0    0    0  0.00000000000E+00  0.00000000000E+00  0.99999998245E-14  0.12500000000E+03  0.12500000000E+03 0.  0.
        -13    1    3    3    0    0  0.34711959127E+02  0.50724672779E+02  0.10420535703E+01  0.61473649433E+02  0.10566000000E+00 0. -1.
         23    2    1    0    0    0  0.20381060801E+02  0.20661949505E+02  0.65957283335E+01  0.95237482818E+02  0.90467511873E+02 0.  0.
         13    1    3    3    0    0 -0.14330898325E+02 -0.30062723274E+02  0.55536747632E+01  0.33763833385E+02  0.10566000000E+00 0.  1.
         22    1    1    0    0    0 -0.20381060801E+02 -0.20661949505E+02 -0.65957283335E+01  0.29762517182E+02  0.00000000000E+00 0. -1.
</event>
<event>
 5    1  0.1766634E-003  0.9118800E+02  0.7818608E-02  0.1130116E+00
         25   -1    0    0    0    0  0.00000000000E+00  0.00000000000E+00  0.99999998245E-14  0.12500000000E+03  0.12500000000E+03 0.  0.
        -13    1    3    3    0    0 -0.12259234985E+02 -0.28206935951E+02 -0.34679674092E+02  0.46353112488E+02  0.10566000000E+00 0. -1.
         23    2    1    0    0    0 -0.72641345589E+01 -0.19401847302E+02  0.16494163465E+02  0.98518747046E+02  0.94893027992E+02 0.  0.
         13    1    3    3    0    0  0.49951004260E+01  0.88050886493E+01  0.51173837557E+02  0.52165634557E+02  0.10566000000E+00 0.  1.
         22    1    1    0    0    0  0.72641345589E+01  0.19401847302E+02 -0.16494163465E+02  0.26481252954E+02  0.00000000000E+00 0.  1.
</event>
<event>
 5    1  0.1766634E-003  0.9118800E+02  0.7818608E-02  0.1130116E+00
         25   -1    0    0    0    0  0.00000000000E+00  0.00000000000E+00  0.99999998245E-14  0.12500000000E+03  0.12500000000E+03 0.  0.
        -13    1    3    3    0    0 -0.35719913816E+02  0.35630572333E+02 -0.29154481455E+02  0.58270446032E+02  0.10566000000E+00 0.  1.
         23    2    1    0    0    0 -0.24647585815E+02  0.17452088928E+02  0.52650818681E+00  0.94794766922E+02  0.89853724076E+02 0.  0.
         13    1    3    3    0    0  0.11072328001E+02 -0.18178483405E+02  0.29680989642E+02  0.36524320890E+02  0.10566000000E+00 0. -1.
         22    1    1    0    0    0  0.24647585815E+02 -0.17452088928E+02 -0.52650818681E+00  0.30205233078E+02  0.00000000000E+00 0.  1.
</event>
<event>
 5    1  0.1766634E-003  0.9118800E+02  0.7818608E-02  0.1130116E+00
         25   -1    0    0    0    0  0.00000000000E+00  0.00000000000E+00  0.99999998245E-14  0.12500000000E+03  0.12500000000E+03 0.  0.
        -13    1    3    3    0    0  0.33665101634E+02 -0.48490462344E+02 -0.74395343333E+01  0.59498082671E+02  0.10566000000E+00 0.  1.
         23    2    1    0    0    0  0.23074368063E+02 -0.16450216449E+02  0.63619762613E+01  0.95956742182E+02  0.91455921326E+02 0.  0.
         13    1    3    3    0    0 -0.10590733571E+02  0.32040245896E+02  0.13801510595E+02  0.36458659511E+02  0.10566000000E+00 0. -1.
         22    1    1    0    0    0 -0.23074368063E+02  0.16450216449E+02 -0.63619762613E+01  0.29043257818E+02  0.00000000000E+00 0.  1.
</event>
<event>
 5    1  0.1766634E-003  0.9118800E+02  0.7818608E-02  0.1130116E+00
         25   -1    0    0    0    0  0.00000000000E+00  0.00000000000E+00  0.99999998245E-14  0.12500000000E+03  0.12500000000E+03 0.  0.
        -13    1    3    3    0    0  0.13559376612E+02 -0.19207260854E+02  0.39795487683E+02  0.46221938164E+02  0.10566000000E+00 0. -1.
         23    2    1    0    0    0 -0.24597911862E+02 -0.13771116869E+02  0.94803337368E+01  0.95258149762E+02  0.90496063122E+02 0.  0.
         13    1    3    3    0    0 -0.38157288474E+02  0.54361439844E+01 -0.30315153946E+02  0.49036211599E+02  0.10566000000E+00 0.  1.
         22    1    1    0    0    0  0.24597911862E+02  0.13771116869E+02 -0.94803337368E+01  0.29741850238E+02  0.00000000000E+00 0. -1.
</event>
<event>
 5    1  0.1766634E-003  0.9118800E+02  0.7818608E-02  0.1130116E+00
         25   -1    0    0    0    0  0.00000000000E+00  0.00000000000E+00  0.99999998245E-14  0.12500000000E+03  0.12500000000E+03 0.  0.
        -13    1    3    3    0    0  0.20908657313E+01 -0.38160931853E+02 -0.37614470411E+02  0.53623576790E+02  0.10566000000E+00 0.  1.
         23    2    1    0    0    0  0.20155257977E+01 -0.13261354566E+02 -0.43726238308E+02  0.79262599705E+02  0.64735229407E+02 0.  0.
         13    1    3    3    0    0 -0.75339933598E-01  0.24899577287E+02 -0.61117678969E+01  0.25639022915E+02  0.10566000000E+00 0. -1.
         22    1    1    0    0    0 -0.20155257977E+01  0.13261354566E+02  0.43726238308E+02  0.45737400295E+02  0.00000000000E+00 0.  1.
</event>
<event>
 5    1  0.1766634E-003  0.9118800E+02  0.7818608E-02  0.1130116E+00
         25   -1    0    0    0    0  0.00000000000E+00  0.00000000000E+00  0.99999998245E-14  0.12500000000E+03  0.12500000000E+03 0.  0.
        -13    1    3    3    0    0 -0.20847799458E+02  0.11877843086E+02  0.26003440477E+02  0.35382255147E+02  0.10566000000E+00 0.  1.
         23    2    1    0    0    0  0.12520053212E+02 -0.43512780761E+01 -0.23960714729E+02  0.97617501873E+02  0.93698321587E+02 0.  0.
         13    1    3    3    0    0  0.33367852670E+02 -0.16229121162E+02 -0.49964155206E+02  0.62235246726E+02  0.10566000000E+00 0. -1.
         22    1    1    0    0    0 -0.12520053212E+02  0.43512780761E+01  0.23960714729E+02  0.27382498127E+02  0.00000000000E+00 0. -1.
</event>
<event>
 5    1  0.1766634E-003  0.9118800E+02  0.7818608E-02  0.1130116E+00
         25   -1    0    0    0    0  0.00000000000E+00  0.00000000000E+00  0.99999998245E-14  0.12500000000E+03  0.12500000000E+03 0.  0.
        -13    1    3    3    0    0 -0.11520588941E+02 -0.12965382269E+01 -0.30524262766E+02  0.32651902890E+02  0.10566000000E+00 0.  1.
         23    2    1    0    0    0  0.27347634568E+02 -0.28297113803E+02 -0.90608710261E+01  0.84617836242E+02  0.74360332574E+02 0.  0.
         13    1    3    3    0    0  0.38868223509E+02 -0.27000575576E+02  0.21463391740E+02  0.51965933352E+02  0.10566000000E+00 0. -1.
         22    1    1    0    0    0 -0.27347634568E+02  0.28297113803E+02  0.90608710261E+01  0.40382163758E+02  0.00000000000E+00 0. -1.
</event>
<event>
 5    1  0.1766634E-003  0.9118800E+02  0.7818608E-02  0.1130116E+00
         25   -1    0    0    0    0  0.00000000000E+00  0.00000000000E+00  0.99999998245E-14  0.12500000000E+03  0.12500000000E+03 0.  0.
        -13    1    3    3    0    0  0.38817520370E+02  0.38076893985E+02  0.12597265282E+02  0.55815338392E+02  0.10566000000E+00 0.  1.
         23    2    1    0    0    0  0.10982822001E+01  0.26098334154E+02  0.13895997389E+02  0.95412367232E+02  0.90708829823E+02 0.  0.
         13    1    3    3    0    0 -0.37719238170E+02 -0.11978559831E+02  0.12987321075E+01  0.39597028839E+02  0.10566000000E+00 0. -1.
         22    1    1    0    0    0 -0.10982822001E+01 -0.26098334154E+02 -0.13895997389E+02  0.29587632768E+02  0.00000000000E+00 0.  1.
</event>
<event>
 5    1  0.1766634E-003  0.9118800E+02  0.7818608E-02  0.1130116E+00
         25   -1    0    0    0    0  0.00000000000E+00  0.00000000000E+00  0.99999998245E-14  0.12500000000E+03  0.12500000000E+03 0.  0.
        -13    1    3    3    0    0 -0.24919489642E+02  0.13518072824E+02 -0.51271005091E+02  0.58587083764E+02  0.10566000000E+00 0. -1.
         23    2    1    0    0    0 -0.26487234932E+02  0.22651246009E+01 -0.20375136234E+02  0.91505962018E+02  0.85155683923E+02 0.  0.
         13    1    3    3    0    0 -0.15677452903E+01 -0.11252948223E+02  0.30895868857E+02  0.32918878254E+02  0.10566000000E+00 0.  1.
         22    1    1    0    0    0  0.26487234932E+02 -0.22651246009E+01  0.20375136234E+02  0.33494037982E+02  0.00000000000E+00 0. -1.
</event>
<event>
 5    1  0.1766634E-003  0.9118800E+02  0.7818608E-02  0.1130116E+00
         25   -1    0    0    0    0  0.00000000000E+00  0.00000000000E+00  0.99999998245E-14  0.12500000000E+03  0.12500000000E+03 0.  0.
        -13    1    3    3    0    0  0.80005960321E+01 -0.38483505253E+02  0.23294482028E+02  0.45690631101E+02  0.10566000000E+00 0.  1.
         23    2    1    0    0    0  0.25100869433E+02  0.54126017645E+01 -0.21498995017E+01  0.99232346401E+02  0.95828422715E+02 0.  0.
         13    1    3    3    0    0  0.17100273401E+02  0.43896107018E+02 -0.25444381529E+02  0.53541715299E+02  0.10566000000E+00 0. -1.
         22    1    1    0    0    0 -0.25100869433E+02 -0.54126017645E+01  0.21498995017E+01  0.25767653599E+02  0.00000000000E+00 0. -1.
</event>
<event>
 5    1  0.1766634E-003  0.9118800E+02  0.7818608E-02  0.1130116E+00
         25   -1    0    0    0    0  0.00000000000E+00  0.00000000000E+00  0.99999998245E-14  0.12500000000E+03  0.12500000000E+03 0.  0.
        -13    1    3    3    0    0 -0.41126261088E+02  0.15168766552E+01 -0.15117885177E+02  0.43843264958E+02  0.10566000000E+00 0.  1.
         23    2    1    0    0    0  0.35770535063E+01 -0.23837294018E+02 -0.17375963507E+02  0.95285760893E+02  0.90534193669E+02 0.  0.
         13    1    3    3    0    0  0.44703314594E+02 -0.25354170674E+02 -0.22580783294E+01  0.51442495935E+02  0.10566000000E+00 0. -1.
         22    1    1    0    0    0 -0.35770535063E+01  0.23837294018E+02  0.17375963507E+02  0.29714239107E+02  0.00000000000E+00 0. -1.
</event>
<event>
 5    1  0.1766634E-003  0.9118800E+02  0.7818608E-02  0.1130116E+00
         25   -1    0    0    0    0  0.00000000000E+00  0.00000000000E+00  0.99999998245E-14  0.12500000000E+03  0.12500000000E+03 0.  0.
        -13    1    3    3    0    0  0.54306036491E+02  0.17536109085E+02 -0.28508646422E+01  0.57138422401E+02  0.10566000000E+00 0. -1.
         23    2    1    0    0    0  0.19590226031E+02  0.24896228635E+02  0.32774398576E+01  0.93151283099E+02  0.87537539232E+02 0.  0.
         13    1    3    3    0    0 -0.34715810459E+02  0.73601195495E+01  0.61283044999E+01  0.36012860699E+02  0.10566000000E+00 0.  1.
         22    1    1    0    0    0 -0.19590226031E+02 -0.24896228635E+02 -0.32774398576E+01  0.31848716901E+02  0.00000000000E+00 0. -1.
</event>
<event>
 5    1  0.1766634E-003  0.9118800E+02  0.7818608E-02  0.1130116E+00
         25   -1    0    0    0    0  0.00000000000E+00  0.00000000000E+00  0.99999998245E-14  0.12500000000E+03  0.12500000000E+03 0.  0.
        -13    1    3    3    0    0  0.14517993988E+02 -0.38022208873E+02 -0.16965207740E+02  0.44094103400E+02  0.10566000000E+00 0.  1.
         23    2    1    0    0    0  0.18662926948E+02  0.84012452986E+00  0.19818340355E+02  0.97764411776E+02  0.93894104948E+02 0.  0.
         13    1    3    3    0    0  0.41449329606E+01  0.38862333403E+02  0.36783548094E+02  0.53670308376E+02  0.10566000000E+00 0. -1.
         22    1    1    0    0    0 -0.18662926948E+02 -0.84012452986E+00 -0.19818340355E+02  0.27235588224E+02  0.00000000000E+00 0. -1.
</event>
<event>
 5    1  0.1766634E-003  0.9118800E+02  0.7818608E-02  0.1130116E+00
         25   -1    0    0    0    0  0.00000000000E+00  0.00000000000E+00  0.99999998245E-14  0.12500000000E+03  0.12500000000E+03 0.  0.
        -13    1    3    3    0    0 -0.42938279475E+02 -0.26360329243E+02 -0.33867925797E+01  0.50497963623E+02  0.10566000000E+00 0.  1.
         23    2    1    0    0    0 -0.25047650953E+02  0.14797441190E+02 -0.53546891509E+01  0.95419232938E+02  0.90718290518E+02 0.  0.
         13    1    3    3    0    0  0.17890628522E+02  0.41157770433E+02 -0.19678965711E+01  0.44921269315E+02  0.10566000000E+00 0. -1.
         22    1    1    0    0    0  0.25047650953E+02 -0.14797441190E+02  0.53546891509E+01  0.29580767062E+02  0.00000000000E+00 0.  1.
</event>
<event>
 5    1  0.1766634E-003  0.9118800E+02  0.7818608E-02  0.1130116E+00
         25   -1    0    0    0    0  0.00000000000E+00  0.00000000000E+00  0.99999998245E-14  0.12500000000E+03  0.12500000000E+03 0.  0.
        -13    1    3    3    0    0  0.16900502581E+01  0.46250176090E+02  0.33290476225E+02  0.57010543144E+02  0.10566000000E+00 0. -1.
         23    2    1    0    0    0  0.18242447854E+02  0.20066035372E+02  0.88338654686E+01  0.96478607006E+02  0.92166435059E+02 0.  0.
         13    1    3    3    0    0  0.16552397595E+02 -0.26184140718E+02 -0.24456610756E+02  0.39468063862E+02  0.10566000000E+00 0.  1.
         22    1    1    0    0    0 -0.18242447854E+02 -0.20066035372E+02 -0.88338654686E+01  0.28521392994E+02  0.00000000000E+00 0. -1.
</event>
<event>
 5    1  0.1766634E-003  0.9118800E+02  0.7818608E-02  0.1130116E+00
         25   -1    0    0    0    0  0.00000000000E+00  0.00000000000E+00  0.99999998245E-14  0.12500000000E+03  0.12500000000E+03 0.  0.
        -13    1    3    3    0    0 -0.40631581393E+01  0.46207005091E+02  0.84452438352E+00  0.46393113272E+02  0.10566000000E+00 0.  1.
         23    2    1    0    0    0  0.15878943303E+02  0.39010342073E+01  0.21887263884E+02  0.97679472395E+02  0.93780958081E+02 0.  0.
         13    1    3    3    0    0  0.19942101442E+02 -0.42305970884E+02  0.21042739500E+02  0.51286359123E+02  0.10566000000E+00 0. -1.
         22    1    1    0    0    0 -0.15878943303E+02 -0.39010342073E+01 -0.21887263884E+02  0.27320527605E+02  0.00000000000E+00 0.  1.
</event>
<event>
 5    1  0.1766634E-003  0.9118800E+02  0.7818608E-02  0.1130116E+00
         25   -1    0    0    0    0  0.00000000000E+00  0.00000000000E+00  0.99999998245E-14  0.12500000000E+03  0.12500000000E+03 0.  0.
        -13    1    3    3    0    0 -0.10133197518E+01 -0.41970702000E+01  0.40100202119E+02  0.40332116101E+02  0.10566000000E+00 0. -1.
         23    2    1    0    0    0 -0.17460538947E+02 -0.20548244029E+02 -0.10554071510E+02  0.96043322386E+02  0.91574180840E+02 0.  0.
         13    1    3    3    0    0 -0.16447219195E+02 -0.16351173829E+02 -0.50654273629E+02  0.55711206285E+02  0.10566000000E+00 0.  1.
         22    1    1    0    0    0  0.17460538947E+02  0.20548244029E+02  0.10554071510E+02  0.28956677614E+02  0.00000000000E+00 0.  1.
</event>
<event>
 5    1  0.1766634E-003  0.9118800E+02  0.7818608E-02  0.1130116E+00
         25   -1    0    0    0    0  0.00000000000E+00  0.00000000000E+00  0.99999998245E-14  0.12500000000E+03  0.12500000000E+03 0.  0.
        -13    1    3    3    0    0 -0.12562058793E+02  0.90297046418E+01  0.30719109207E+02  0.34394995588E+02  0.10566000000E+00 0.  1.
         23    2    1    0    0    0  0.60966682882E+01 -0.17289972345E+02 -0.22098464872E+02  0.96286681529E+02  0.91905769037E+02 0.  0.
         13    1    3    3    0    0  0.18658727081E+02 -0.26319676987E+02 -0.52817574079E+02  0.61891685941E+02  0.10566000000E+00 0. -1.
         22    1    1    0    0    0 -0.60966682882E+01  0.17289972345E+02  0.22098464872E+02  0.28713318471E+02  0.00000000000E+00 0. -1.
</event>
<event>
 5    1  0.1766634E-003  0.9118800E+02  0.7818608E-02  0.1130116E+00
         25   -1    0    0    0    0  0.00000000000E+00  0.00000000000E+00  0.99999998245E-14  0.12500000000E+03  0.12500000000E+03 0.  0.
        -13    1    3    3    0    0 -0.25710829177E+02 -0.28678491370E+02 -0.48043275966E+01  0.38814885442E+02  0.10566000000E+00 0.  1.
         23    2    1    0    0    0  0.20621183533E+02 -0.41284411539E+01  0.19237274112E+02  0.96498246511E+02  0.92193067135E+02 0.  0.
         13    1    3    3    0    0  0.46332012711E+02  0.24550050216E+02  0.24041601709E+02  0.57683361069E+02  0.10566000000E+00 0. -1.
         22    1    1    0    0    0 -0.20621183533E+02  0.41284411539E+01 -0.19237274112E+02  0.28501753489E+02  0.00000000000E+00 0. -1.
</event>
<event>
 5    1  0.1766634E-003  0.9118800E+02  0.7818608E-02  0.1130116E+00
         25   -1    0    0    0    0  0.00000000000E+00  0.00000000000E+00  0.99999998245E-14  0.12500000000E+03  0.12500000000E+03 0.  0.
        -13    1    3    3    0    0  0.59778038794E+01 -0.24278571421E+02 -0.56204981372E+02  0.61515804998E+02  0.10566000000E+00 0. -1.
         23    2    1    0    0    0  0.94701056264E+01 -0.14915511977E+02 -0.24254793961E+02  0.94992493802E+02  0.90128372062E+02 0.  0.
         13    1    3    3    0    0  0.34923017470E+01  0.93630594435E+01  0.31950187411E+02  0.33476688804E+02  0.10566000000E+00 0.  1.
         22    1    1    0    0    0 -0.94701056264E+01  0.14915511977E+02  0.24254793961E+02  0.30007506198E+02  0.00000000000E+00 0. -1.
</event>
<event>
 5    1  0.1766634E-003  0.9118800E+02  0.7818608E-02  0.1130116E+00
         25   -1    0    0    0    0  0.00000000000E+00  0.00000000000E+00  0.99999998245E-14  0.12500000000E+03  0.12500000000E+03 0.  0.
        -13    1    3    3    0    0 -0.90469568639E+01 -0.28583946322E+02  0.13679172238E+02  0.32954822606E+02  0.10566000000E+00 0.  1.
         23    2    1    0    0    0  0.12564986809E+02  0.25900330036E+02 -0.74556119605E+01  0.95262950059E+02  0.90502693412E+02 0.  0.
         13    1    3    3    0    0  0.21611943673E+02  0.54484276358E+02 -0.21134784198E+02  0.62308127453E+02  0.10566000000E+00 0. -1.
         22    1    1    0    0    0 -0.12564986809E+02 -0.25900330036E+02  0.74556119605E+01  0.29737049941E+02  0.00000000000E+00 0. -1.
</event>
<event>
 5    1  0.1766634E-003  0.9118800E+02  0.7818608E-02  0.1130116E+00
         25   -1    0    0    0    0  0.00000000000E+00  0.00000000000E+00  0.99999998245E-14  0.12500000000E+03  0.12500000000E+03 0.  0.
        -13    1    3    3    0    0 -0.18418845082E+02 -0.32063025463E+02  0.99776289973E+01  0.38299552222E+02  0.10566000000E+00 0.  1.
         23    2    1    0    0    0  0.21013641716E+02  0.10688583472E+02  0.15598715812E+02  0.96730955273E+02  0.92508047317E+02 0.  0.
         13    1    3    3    0    0  0.39432486798E+02  0.42751608934E+02  0.56210868144E+01  0.58431403051E+02  0.10566000000E+00 0. -1.
         22    1    1    0    0    0 -0.21013641716E+02 -0.10688583472E+02 -0.15598715812E+02  0.28269044727E+02  0.00000000000E+00 0. -1.
</event>
<event>
 5    1  0.1766634E-003  0.9118800E+02  0.7818608E-02  0.1130116E+00
         25   -1    0    0    0    0  0.00000000000E+00  0.00000000000E+00  0.99999998245E-14  0.12500000000E+03  0.12500000000E+03 0.  0.
        -13    1    3    3    0    0  0.51320691548E+02 -0.20741762304E+02  0.11213171279E+02  0.56478141423E+02  0.10566000000E+00 0.  1.
         23    2    1    0    0    0  0.13204043913E+02 -0.22078955695E+02  0.15669086754E+02  0.94877793243E+02  0.89969151995E+02 0.  0.
         13    1    3    3    0    0 -0.38116647635E+02 -0.13371933910E+01  0.44559154756E+01  0.38399651819E+02  0.10566000000E+00 0. -1.
         22    1    1    0    0    0 -0.13204043913E+02  0.22078955695E+02 -0.15669086754E+02  0.30122206757E+02  0.00000000000E+00 0.  1.
</event>
<event>
 5    1  0.1766634E-003  0.9118800E+02  0.7818608E-02  0.1130116E+00
         25   -1    0    0    0    0  0.00000000000E+00  0.00000000000E+00  0.99999998245E-14  0.12500000000E+03  0.12500000000E+03 0.  0.
        -13    1    3    3    0    0  0.29386857046E+02 -0.20131268349E+02  0.18185577751E+02  0.39994771340E+02  0.10566000000E+00 0.  1.
         23    2    1    0    0    0  0.92520792755E+01  0.28379116146E+02  0.14661089552E+01  0.95114808356E+02  0.90297852073E+02 0.  0.
         13    1    3    3    0    0 -0.20134777771E+02  0.48510384495E+02 -0.16719468795E+02  0.55120037015E+02  0.10566000000E+00 0. -1.
         22    1    1    0    0    0 -0.92520792755E+01 -0.28379116146E+02 -0.14661089552E+01  0.29885191644E+02  0.00000000000E+00 0.  1.
</event>
<event>
 5    1  0.1766634E-003  0.9118800E+02  0.7818608E-02  0.1130116E+00
         25   -1    0    0    0    0  0.00000000000E+00  0.00000000000E+00  0.99999998245E-14  0.12500000000E+03  0.12500000000E+03 0.  0.
        -13    1    3    3    0    0 -0.82082486942E+01  0.18088077529E+02  0.30989645336E+02  0.36809281131E+02  0.10566000000E+00 0.  1.
         23    2    1    0    0    0  0.20113502659E+02  0.95152202339E+01 -0.19554173541E+02  0.95378080613E+02  0.90661569329E+02 0.  0.
         13    1    3    3    0    0  0.28321751353E+02 -0.85728572955E+01 -0.50543818877E+02  0.58568799481E+02  0.10566000000E+00 0. -1.
         22    1    1    0    0    0 -0.20113502659E+02 -0.95152202339E+01  0.19554173541E+02  0.29621919387E+02  0.00000000000E+00 0.  1.
</event>
<event>
 5    1  0.1766634E-003  0.9118800E+02  0.7818608E-02  0.1130116E+00
         25   -1    0    0    0    0  0.00000000000E+00  0.00000000000E+00  0.99999998245E-14  0.12500000000E+03  0.12500000000E+03 0.  0.
        -13    1    3    3    0    0  0.21521546634E+02  0.16762753938E+02 -0.55738477089E+02  0.62056070463E+02  0.10566000000E+00 0.  1.
         23    2    1    0    0    0  0.14258554189E+02  0.92398013479E+01 -0.23130781471E+02  0.96299593244E+02  0.91923328437E+02 0.  0.
         13    1    3    3    0    0 -0.72629924450E+01 -0.75229525896E+01  0.32607695618E+02  0.34243522781E+02  0.10566000000E+00 0. -1.
         22    1    1    0    0    0 -0.14258554189E+02 -0.92398013479E+01  0.23130781471E+02  0.28700406756E+02  0.00000000000E+00 0.  1.
</event>
<event>
 5    1  0.1766634E-003  0.9118800E+02  0.7818608E-02  0.1130116E+00
         25   -1    0    0    0    0  0.00000000000E+00  0.00000000000E+00  0.99999998245E-14  0.12500000000E+03  0.12500000000E+03 0.  0.
        -13    1    3    3    0    0 -0.14854753668E+02  0.27437468640E+02  0.11987988333E+02  0.33424563127E+02  0.10566000000E+00 0. -1.
         23    2    1    0    0    0 -0.28747793847E+02 -0.51250063277E+01  0.37797599487E+02  0.77236416927E+02  0.60696822255E+02 0.  0.
         13    1    3    3    0    0 -0.13893040179E+02 -0.32562474968E+02  0.25809611154E+02  0.43811853800E+02  0.10566000000E+00 0.  1.
         22    1    1    0    0    0  0.28747793847E+02  0.51250063277E+01 -0.37797599487E+02  0.47763583073E+02  0.00000000000E+00 0.  1.
</event>
<event>
 5    1  0.1766634E-003  0.9118800E+02  0.7818608E-02  0.1130116E+00
         25   -1    0    0    0    0  0.00000000000E+00  0.00000000000E+00  0.99999998245E-14  0.12500000000E+03  0.12500000000E+03 0.  0.
        -13    1    3    3    0    0 -0.37164811807E+02  0.29391062137E+02  0.39764681520E+02  0.61857083916E+02  0.10566000000E+00 0. -1.
         23    2    1    0    0    0 -0.11244574011E+02  0.15720855137E+02  0.19891310035E+02  0.97264644480E+02  0.93226397120E+02 0.  0.
         13    1    3    3    0    0  0.25920237796E+02 -0.13670207000E+02 -0.19873371485E+02  0.35407560563E+02  0.10566000000E+00 0.  1.
         22    1    1    0    0    0  0.11244574011E+02 -0.15720855137E+02 -0.19891310035E+02  0.27735355520E+02  0.00000000000E+00 0. -1.
</event>
<event>
 5    1  0.1766634E-003  0.9118800E+02  0.7818608E-02  0.1130116E+00
         25   -1    0    0    0    0  0.00000000000E+00  0.00000000000E+00  0.99999998245E-14  0.12500000000E+03  0.12500000000E+03 0.  0.
        -13    1    3    3    0    0  0.11930288886E+02 -0.38311739720E+02 -0.68288272309E+01  0.40703381170E+02  0.10566000000E+00 0.  1.
         23    2    1    0    0    0 -0.78567313326E+01  0.85846779425E+01 -0.27112096825E+02  0.95495920335E+02  0.90823895995E+02 0.  0.
         13    1    3    3    0    0 -0.19787020219E+02  0.46896417662E+02 -0.20283269594E+02  0.54792539165E+02  0.10566000000E+00 0. -1.
         22    1    1    0    0    0  0.78567313326E+01 -0.85846779425E+01  0.27112096825E+02  0.29504079665E+02  0.00000000000E+00 0. -1.
</event>
<event>
 5    1  0.1766634E-003  0.9118800E+02  0.7818608E-02  0.1130116E+00
         25   -1    0    0    0    0  0.00000000000E+00  0.00000000000E+00  0.99999998245E-14  0.12500000000E+03  0.12500000000E+03 0.  0.
        -13    1    3    3    0    0  0.26826494675E+02  0.68055735975E+01  0.43925386696E+02  0.51917505805E+02  0.10566000000E+00 0.  1.
         23    2    1    0    0    0  0.20156624683E+02 -0.19229443896E+02  0.95533475802E+01  0.95549575875E+02  0.90897711570E+02 0.  0.
         13    1    3    3    0    0 -0.66698699917E+01 -0.26035017493E+02 -0.34372039116E+02  0.43632070070E+02  0.10566000000E+00 0. -1.
         22    1    1    0    0    0 -0.20156624683E+02  0.19229443896E+02 -0.95533475802E+01  0.29450424125E+02  0.00000000000E+00 0.  1.
</event>
<event>
 5    1  0.1766634E-003  0.9118800E+02  0.7818608E-02  0.1130116E+00
         25   -1    0    0    0    0  0.00000000000E+00  0.00000000000E+00  0.99999998245E-14  0.12500000000E+03  0.12500000000E+03 0.  0.
        -13    1    3    3    0    0 -0.33183554619E+02  0.30699219461E+01  0.19584632320E+02  0.38654129211E+02  0.10566000000E+00 0.  1.
         23    2    1    0    0    0 -0.40428344387E+01  0.63078771119E+00 -0.29190689528E+02  0.95523929051E+02  0.90862435928E+02 0.  0.
         13    1    3    3    0    0  0.29140720181E+02 -0.24391342349E+01 -0.48775321848E+02  0.56869799840E+02  0.10566000000E+00 0. -1.
         22    1    1    0    0    0  0.40428344387E+01 -0.63078771119E+00  0.29190689528E+02  0.29476070949E+02  0.00000000000E+00 0. -1.
</event>
<event>
 5    1  0.1766634E-003  0.9118800E+02  0.7818608E-02  0.1130116E+00
         25   -1    0    0    0    0  0.00000000000E+00  0.00000000000E+00  0.99999998245E-14  0.12500000000E+03  0.12500000000E+03 0.  0.
        -13    1    3    3    0    0  0.22130913619E+02  0.12790089887E+02 -0.28991637162E+02  0.38650872258E+02  0.10566000000E+00 0. -1.
         23    2    1    0    0    0  0.60243753854E+01 -0.26188590515E+01  0.26102584144E+02  0.98083528825E+02  0.94317984533E+02 0.  0.
         13    1    3    3    0    0 -0.16106538234E+02 -0.15408948939E+02  0.55094221306E+02  0.59432656567E+02  0.10566000000E+00 0.  1.
         22    1    1    0    0    0 -0.60243753854E+01  0.26188590515E+01 -0.26102584144E+02  0.26916471175E+02  0.00000000000E+00 0.  1.
</event>
<event>
 5    1  0.1766634E-003  0.9118800E+02  0.7818608E-02  0.1130116E+00
         25   -1    0    0    0    0  0.00000000000E+00  0.00000000000E+00  0.99999998245E-14  0.12500000000E+03  0.12500000000E+03 0.  0.
        -13    1    3    3    0    0  0.24513576971E+02 -0.22013439792E+02  0.18735679549E+02  0.37901765653E+02  0.10566000000E+00 0.  1.
         23    2    1    0    0    0 -0.14089662588E+02  0.21153766617E+02  0.13942849562E+02  0.96010286517E+02  0.91529075322E+02 0.  0.
         13    1    3    3    0    0 -0.38603239559E+02  0.43167206410E+02 -0.47928299875E+01  0.58108520864E+02  0.10566000000E+00 0. -1.
         22    1    1    0    0    0  0.14089662588E+02 -0.21153766617E+02 -0.13942849562E+02  0.28989713483E+02  0.00000000000E+00 0. -1.
</event>
<event>
 5    1  0.1766634E-003  0.9118800E+02  0.7818608E-02  0.1130116E+00
         25   -1    0    0    0    0  0.00000000000E+00  0.00000000000E+00  0.99999998245E-14  0.12500000000E+03  0.12500000000E+03 0.  0.
        -13    1    3    3    0    0 -0.11184275519E+02 -0.39284878248E+02  0.30125562979E+02  0.50753821400E+02  0.10566000000E+00 0.  1.
         23    2    1    0    0    0  0.13408677553E+01  0.41629631055E+01  0.28673943080E+02  0.95994428123E+02  0.91507415168E+02 0.  0.
         13    1    3    3    0    0  0.12525143274E+02  0.43447841353E+02 -0.14516198991E+01  0.45240606723E+02  0.10566000000E+00 0. -1.
         22    1    1    0    0    0 -0.13408677553E+01 -0.41629631055E+01 -0.28673943080E+02  0.29005571877E+02  0.00000000000E+00 0. -1.
</event>
<event>
 5    1  0.1766634E-003  0.9118800E+02  0.7818608E-02  0.1130116E+00
         25   -1    0    0    0    0  0.00000000000E+00  0.00000000000E+00  0.99999998245E-14  0.12500000000E+03  0.12500000000E+03 0.  0.
        -13    1    3    3    0    0 -0.38076672191E+02  0.42779313837E+00 -0.38390911675E+01  0.38272258323E+02  0.10566000000E+00 0.  1.
         23    2    1    0    0    0  0.95016593350E+01 -0.98858347048E+00  0.27917797165E+02  0.95493013947E+02  0.90819895875E+02 0.  0.
         13    1    3    3    0    0  0.47578331526E+02 -0.14163766088E+01  0.31756888333E+02  0.57220755624E+02  0.10566000000E+00 0. -1.
         22    1    1    0    0    0 -0.95016593350E+01  0.98858347048E+00 -0.27917797165E+02  0.29506986053E+02  0.00000000000E+00 0. -1.
</event>
<event>
 5    1  0.1766634E-003  0.9118800E+02  0.7818608E-02  0.1130116E+00
         25   -1    0    0    0    0  0.00000000000E+00  0.00000000000E+00  0.99999998245E-14  0.12500000000E+03  0.12500000000E+03 0.  0.
        -13    1    3    3    0    0 -0.38817105783E+02 -0.50627343160E+00 -0.27394753776E+02  0.47513237236E+02  0.10566000000E+00 0. -1.
         23    2    1    0    0    0  0.47556130437E+01  0.13550030705E+02 -0.28254826897E+02  0.93305293336E+02  0.87757183945E+02 0.  0.
         13    1    3    3    0    0  0.43572718827E+02  0.14056304137E+02 -0.86007312131E+00  0.45792056099E+02  0.10566000000E+00 0.  1.
         22    1    1    0    0    0 -0.47556130437E+01 -0.13550030705E+02  0.28254826897E+02  0.31694706664E+02  0.00000000000E+00 0. -1.
</event>
<event>
 5    1  0.1766634E-003  0.9118800E+02  0.7818608E-02  0.1130116E+00
         25   -1    0    0    0    0  0.00000000000E+00  0.00000000000E+00  0.99999998245E-14  0.12500000000E+03  0.12500000000E+03 0.  0.
        -13    1    3    3    0    0 -0.29845776980E+02  0.43600771043E+02 -0.10491625338E+02  0.53869128500E+02  0.10566000000E+00 0.  1.
         23    2    1    0    0    0 -0.76786238387E+01  0.20677963947E+02  0.17921762266E+02  0.96579426118E+02  0.92303068906E+02 0.  0.
         13    1    3    3    0    0  0.22167153141E+02 -0.22922807095E+02  0.28413387604E+02  0.42710297618E+02  0.10566000000E+00 0. -1.
         22    1    1    0    0    0  0.76786238387E+01 -0.20677963947E+02 -0.17921762266E+02  0.28420573882E+02  0.00000000000E+00 0. -1.
</event>
<event>
 5    1  0.1766634E-003  0.9118800E+02  0.7818608E-02  0.1130116E+00
         25   -1    0    0    0    0  0.00000000000E+00  0.00000000000E+00  0.99999998245E-14  0.12500000000E+03  0.12500000000E+03 0.  0.
        -13    1    3    3    0    0  0.21964925634E+02 -0.28688211671E+02 -0.41136217444E+01  0.36364879965E+02  0.10566000000E+00 0.  1.
         23    2    1    0    0    0 -0.20397446334E+02 -0.39812028169E+02 -0.26679871288E+01  0.80187372771E+02  0.66496941228E+02 0.  0.
         13    1    3    3    0    0 -0.42362371968E+02 -0.11123816498E+02  0.14456346156E+01  0.43822492806E+02  0.10566000000E+00 0. -1.
         22    1    1    0    0    0  0.20397446334E+02  0.39812028169E+02  0.26679871288E+01  0.44812627229E+02  0.00000000000E+00 0. -1.
</event>
<event>
 5    1  0.1766634E-003  0.9118800E+02  0.7818608E-02  0.1130116E+00
         25   -1    0    0    0    0  0.00000000000E+00  0.00000000000E+00  0.99999998245E-14  0.12500000000E+03  0.12500000000E+03 0.  0.
        -13    1    3    3    0    0  0.27187010159E+02 -0.20248705760E+02  0.32332752475E+02  0.46846148753E+02  0.10566000000E+00 0.  1.
         23    2    1    0    0    0 -0.27970804131E+01 -0.27410247486E+02 -0.67587099986E+01  0.96630553637E+02  0.92372281607E+02 0.  0.
         13    1    3    3    0    0 -0.29984090572E+02 -0.71615417258E+01 -0.39091462473E+02  0.49784404884E+02  0.10566000000E+00 0. -1.
         22    1    1    0    0    0  0.27970804131E+01  0.27410247486E+02  0.67587099986E+01  0.28369446363E+02  0.00000000000E+00 0.  1.
</event>
<event>
 5    1  0.1766634E-003  0.9118800E+02  0.7818608E-02  0.1130116E+00
         25   -1    0    0    0    0  0.00000000000E+00  0.00000000000E+00  0.99999998245E-14  0.12500000000E+03  0.12500000000E+03 0.  0.
        -13    1    3    3    0    0 -0.13136026451E+02  0.48430698814E+02  0.15393045195E+01  0.50204266760E+02  0.10566000000E+00 0.  1.
         23    2    1    0    0    0  0.33796268517E+01  0.15667495445E+02  0.26110572046E+02  0.94362534966E+02  0.89250399111E+02 0.  0.
         13    1    3    3    0    0  0.16515653303E+02 -0.32763203369E+02  0.24571267526E+02  0.44158268205E+02  0.10566000000E+00 0. -1.
         22    1    1    0    0    0 -0.33796268517E+01 -0.15667495445E+02 -0.26110572046E+02  0.30637465034E+02  0.00000000000E+00 0.  1.
</event>
<event>
 5    1  0.1766634E-003  0.9118800E+02  0.7818608E-02  0.1130116E+00
         25   -1    0    0    0    0  0.00000000000E+00  0.00000000000E+00  0.99999998245E-14  0.12500000000E+03  0.12500000000E+03 0.  0.
        -13    1    3    3    0    0 -0.24844429946E+02 -0.43865661952E+02 -0.47099090300E+01  0.50632365192E+02  0.10566000000E+00 0.  1.
         23    2    1    0    0    0 -0.29044300552E+02 -0.16738187726E+01  0.78739104582E+01  0.94860797460E+02  0.89945535548E+02 0.  0.
         13    1    3    3    0    0 -0.41998706067E+01  0.42191843179E+02  0.12583819488E+02  0.44228432268E+02  0.10566000000E+00 0. -1.
         22    1    1    0    0    0  0.29044300552E+02  0.16738187726E+01 -0.78739104582E+01  0.30139202540E+02  0.00000000000E+00 0.  1.
</event>
<event>
 5    1  0.1766634E-003  0.9118800E+02  0.7818608E-02  0.1130116E+00
         25   -1    0    0    0    0  0.00000000000E+00  0.00000000000E+00  0.99999998245E-14  0.12500000000E+03  0.12500000000E+03 0.  0.
        -13    1    3    3    0    0  0.41091710932E+02  0.19226229059E+02 -0.23485176134E+02  0.51085626679E+02  0.10566000000E+00 0. -1.
         23    2    1    0    0    0  0.79086007275E+01 -0.11446200622E+02 -0.25099887367E+02  0.96302163497E+02  0.91926823475E+02 0.  0.
         13    1    3    3    0    0 -0.33183110205E+02 -0.30672429680E+02 -0.16147112335E+01  0.45216536817E+02  0.10566000000E+00 0.  1.
         22    1    1    0    0    0 -0.79086007275E+01  0.11446200622E+02  0.25099887367E+02  0.28697836503E+02  0.00000000000E+00 0. -1.
</event>
<event>
 5    1  0.1766634E-003  0.9118800E+02  0.7818608E-02  0.1130116E+00
         25   -1    0    0    0    0  0.00000000000E+00  0.00000000000E+00  0.99999998245E-14  0.12500000000E+03  0.12500000000E+03 0.  0.
        -13    1    3    3    0    0  0.46734927770E+02  0.17158366048E+02 -0.26270269879E+02  0.56291218166E+02  0.10566000000E+00 0. -1.
         23    2    1    0    0    0  0.20394129906E+02 -0.11885010423E+02 -0.14782323271E+02  0.97148768633E+02  0.93070898557E+02 0.  0.
         13    1    3    3    0    0 -0.26340797863E+02 -0.29043376470E+02  0.11487946608E+02  0.40857550467E+02  0.10566000000E+00 0.  1.
         22    1    1    0    0    0 -0.20394129906E+02  0.11885010423E+02  0.14782323271E+02  0.27851231367E+02  0.00000000000E+00 0. -1.
</event>
<event>
 5    1  0.1766634E-003  0.9118800E+02  0.7818608E-02  0.1130116E+00
         25   -1    0    0    0    0  0.00000000000E+00  0.00000000000E+00  0.99999998245E-14  0.12500000000E+03  0.12500000000E+03 0.  0.
        -13    1    3    3    0    0 -0.16132227537E+02  0.11977595698E+02  0.53925619091E+02  0.57547329412E+02  0.10566000000E+00 0.  1.
         23    2    1    0    0    0 -0.19072137435E+02  0.14957097718E+02  0.15435047369E+02  0.96264971102E+02  0.91876236185E+02 0.  0.
         13    1    3    3    0    0 -0.29399098974E+01  0.29795020199E+01 -0.38490571723E+02  0.38717641691E+02  0.10566000000E+00 0. -1.
         22    1    1    0    0    0  0.19072137435E+02 -0.14957097718E+02 -0.15435047369E+02  0.28735028898E+02  0.00000000000E+00 0.  1.
</event>
<event>
 5    1  0.1766634E-003  0.9118800E+02  0.7818608E-02  0.1130116E+00
         25   -1    0    0    0    0  0.00000000000E+00  0.00000000000E+00  0.99999998245E-14  0.12500000000E+03  0.12500000000E+03 0.  0.
        -13    1    3    3    0    0 -0.26577930710E+02  0.10390472290E+01  0.31133703662E+02  0.40948561485E+02  0.10566000000E+00 0. -1.
         23    2    1    0    0    0  0.76126656360E+01 -0.27783869879E+02 -0.12554561367E+01  0.96164739057E+02  0.91739766537E+02 0.  0.
         13    1    3    3    0    0  0.34190596346E+02 -0.28822917108E+02 -0.32389159798E+02  0.55216177572E+02  0.10566000000E+00 0.  1.
         22    1    1    0    0    0 -0.76126656360E+01  0.27783869879E+02  0.12554561367E+01  0.28835260943E+02  0.00000000000E+00 0.  1.
</event>
<event>
 5    1  0.1766634E-003  0.9118800E+02  0.7818608E-02  0.1130116E+00
         25   -1    0    0    0    0  0.00000000000E+00  0.00000000000E+00  0.99999998245E-14  0.12500000000E+03  0.12500000000E+03 0.  0.
        -13    1    3    3    0    0  0.20496418402E+01  0.49086064284E+02  0.74925656407E+01  0.49697006373E+02  0.10566000000E+00 0. -1.
         23    2    1    0    0    0  0.47390367757E+01  0.15159502163E+02 -0.24102253755E+02  0.96135010628E+02  0.91699251125E+02 0.  0.
         13    1    3    3    0    0  0.26893949354E+01 -0.33926562121E+02 -0.31594819396E+02  0.46438004255E+02  0.10566000000E+00 0.  1.
         22    1    1    0    0    0 -0.47390367757E+01 -0.15159502163E+02  0.24102253755E+02  0.28864989372E+02  0.00000000000E+00 0.  1.
</event>
<event>
 5    1  0.1766634E-003  0.9118800E+02  0.7818608E-02  0.1130116E+00
         25   -1    0    0    0    0  0.00000000000E+00  0.00000000000E+00  0.99999998245E-14  0.12500000000E+03  0.12500000000E+03 0.  0.
        -13    1    3    3    0    0  0.11019256849E+02 -0.33390197469E+01  0.32920377735E+02  0.34876001901E+02  0.10566000000E+00 0.  1.
         23    2    1    0    0    0  0.71198020786E+01  0.19462721567E+02 -0.22185642526E+02  0.94640621766E+02  0.89639028562E+02 0.  0.
         13    1    3    3    0    0 -0.38994547700E+01  0.22801741314E+02 -0.55106020261E+02  0.59764619865E+02  0.10566000000E+00 0. -1.
         22    1    1    0    0    0 -0.71198020786E+01 -0.19462721567E+02  0.22185642526E+02  0.30359378234E+02  0.00000000000E+00 0. -1.
</event>
<event>
 5    1  0.1766634E-003  0.9118800E+02  0.7818608E-02  0.1130116E+00
         25   -1    0    0    0    0  0.00000000000E+00  0.00000000000E+00  0.99999998245E-14  0.12500000000E+03  0.12500000000E+03 0.  0.
        -13    1    3    3    0    0 -0.47778605156E+01  0.35299971729E+02  0.76223218035E+01  0.36428380542E+02  0.10566000000E+00 0.  1.
         23    2    1    0    0    0  0.20559767262E+02  0.43890836800E+01 -0.28012731555E+02  0.89975990883E+02  0.82879416750E+02 0.  0.
         13    1    3    3    0    0  0.25337627778E+02 -0.30910888049E+02 -0.35635053359E+02  0.53547610342E+02  0.10566000000E+00 0. -1.
         22    1    1    0    0    0 -0.20559767262E+02 -0.43890836800E+01  0.28012731555E+02  0.35024009117E+02  0.00000000000E+00 0. -1.
</event>
<event>
 5    1  0.1766634E-003  0.9118800E+02  0.7818608E-02  0.1130116E+00
         25   -1    0    0    0    0  0.00000000000E+00  0.00000000000E+00  0.99999998245E-14  0.12500000000E+03  0.12500000000E+03 0.  0.
        -13    1    3    3    0    0  0.23882665199E+02  0.35972500019E+02 -0.11663113199E+01  0.43194604996E+02  0.10566000000E+00 0. -1.
         23    2    1    0    0    0 -0.23462906565E+02  0.44388234484E+01 -0.62776531742E+01  0.10030951464E+03  0.97223344209E+02 0.  0.
         13    1    3    3    0    0 -0.47345571764E+02 -0.31533676570E+02 -0.51113418543E+01  0.57114909641E+02  0.10566000000E+00 0.  1.
         22    1    1    0    0    0  0.23462906565E+02 -0.44388234484E+01  0.62776531742E+01  0.24690485363E+02  0.00000000000E+00 0.  1.
</event>
<event>
 5    1  0.1766634E-003  0.9118800E+02  0.7818608E-02  0.1130116E+00
         25   -1    0    0    0    0  0.00000000000E+00  0.00000000000E+00  0.99999998245E-14  0.12500000000E+03  0.12500000000E+03 0.  0.
        -13    1    3    3    0    0  0.19478279396E+02  0.44793487200E+02 -0.27978355534E+00  0.48846180062E+02  0.10566000000E+00 0. -1.
         23    2    1    0    0    0 -0.15083172818E+02  0.22079297170E+02  0.16612334454E+02  0.93520369732E+02  0.88063002635E+02 0.  0.
         13    1    3    3    0    0 -0.34561452214E+02 -0.22714190030E+02  0.16892118009E+02  0.44674189670E+02  0.10566000000E+00 0.  1.
         22    1    1    0    0    0  0.15083172818E+02 -0.22079297170E+02 -0.16612334454E+02  0.31479630268E+02  0.00000000000E+00 0. -1.
</event>
<event>
 5    1  0.1766634E-003  0.9118800E+02  0.7818608E-02  0.1130116E+00
         25   -1    0    0    0    0  0.00000000000E+00  0.00000000000E+00  0.99999998245E-14  0.12500000000E+03  0.12500000000E+03 0.  0.
        -13    1    3    3    0    0  0.32958372016E+02  0.17206988612E+02  0.74718351269E+01  0.37923267623E+02  0.10566000000E+00 0. -1.
         23    2    1    0    0    0  0.40110638668E+01 -0.26089787066E+02 -0.14991764411E+02  0.94643474793E+02  0.89643006968E+02 0.  0.
         13    1    3    3    0    0 -0.28947308149E+02 -0.43296775677E+02 -0.22463599538E+02  0.56720207170E+02  0.10566000000E+00 0.  1.
         22    1    1    0    0    0 -0.40110638668E+01  0.26089787066E+02  0.14991764411E+02  0.30356525207E+02  0.00000000000E+00 0.  1.
</event>
<event>
 5    1  0.1766634E-003  0.9118800E+02  0.7818608E-02  0.1130116E+00
         25   -1    0    0    0    0  0.00000000000E+00  0.00000000000E+00  0.99999998245E-14  0.12500000000E+03  0.12500000000E+03 0.  0.
        -13    1    3    3    0    0  0.18276417590E+02  0.20313835279E+02  0.37930079782E+02  0.46748063703E+02  0.10566000000E+00 0.  1.
         23    2    1    0    0    0  0.16416733624E+02  0.25929542728E+02 -0.81822345017E+01  0.93238399121E+02  0.87661849057E+02 0.  0.
         13    1    3    3    0    0 -0.18596839659E+01  0.56157074488E+01 -0.46112314284E+02  0.46490335418E+02  0.10566000000E+00 0. -1.
         22    1    1    0    0    0 -0.16416733624E+02 -0.25929542728E+02  0.81822345017E+01  0.31761600879E+02  0.00000000000E+00 0. -1.
</event>
<event>
 5    1  0.1766634E-003  0.9118800E+02  0.7818608E-02  0.1130116E+00
         25   -1    0    0    0    0  0.00000000000E+00  0.00000000000E+00  0.99999998245E-14  0.12500000000E+03  0.12500000000E+03 0.  0.
        -13    1    3    3    0    0  0.43487389150E+00 -0.45112159445E+02 -0.73799095290E+01  0.45714005226E+02  0.10566000000E+00 0.  1.
         23    2    1    0    0    0 -0.23574030444E+02 -0.31477314070E+01 -0.17950096616E+02  0.95203203311E+02  0.90420135079E+02 0.  0.
         13    1    3    3    0    0 -0.24008904336E+02  0.41964428038E+02 -0.10570187087E+02  0.49489198085E+02  0.10566000000E+00 0. -1.
         22    1    1    0    0    0  0.23574030444E+02  0.31477314070E+01  0.17950096616E+02  0.29796796689E+02  0.00000000000E+00 0. -1.
</event>
<event>
 5    1  0.1766634E-003  0.9118800E+02  0.7818608E-02  0.1130116E+00
         25   -1    0    0    0    0  0.00000000000E+00  0.00000000000E+00  0.99999998245E-14  0.12500000000E+03  0.12500000000E+03 0.  0.
        -13    1    3    3    0    0  0.23124204293E+02  0.13764183058E+02 -0.50294647659E+02  0.57041601543E+02  0.10566000000E+00 0.  1.
         23    2    1    0    0    0 -0.55288499205E+01  0.30991850844E+00 -0.29658771314E+02  0.94828706578E+02  0.89900926827E+02 0.  0.
         13    1    3    3    0    0 -0.28653054214E+02 -0.13454264549E+02  0.20635876345E+02  0.37787105035E+02  0.10566000000E+00 0. -1.
         22    1    1    0    0    0  0.55288499205E+01 -0.30991850844E+00  0.29658771314E+02  0.30171293422E+02  0.00000000000E+00 0.  1.
</event>
<event>
 5    1  0.1766634E-003  0.9118800E+02  0.7818608E-02  0.1130116E+00
         25   -1    0    0    0    0  0.00000000000E+00  0.00000000000E+00  0.99999998245E-14  0.12500000000E+03  0.12500000000E+03 0.  0.
        -13    1    3    3    0    0  0.17604826693E+02  0.19734978559E+02 -0.43460507555E+02  0.50874612358E+02  0.10566000000E+00 0.  1.
         23    2    1    0    0    0  0.28882043797E+02  0.10605241993E+01 -0.41920173127E+01  0.95796058919E+02  0.91236038548E+02 0.  0.
         13    1    3    3    0    0  0.11277217104E+02 -0.18674454360E+02  0.39268490242E+02  0.44921446561E+02  0.10566000000E+00 0. -1.
         22    1    1    0    0    0 -0.28882043797E+02 -0.10605241993E+01  0.41920173127E+01  0.29203941081E+02  0.00000000000E+00 0.  1.
</event>
<event>
 5    1  0.1766634E-003  0.9118800E+02  0.7818608E-02  0.1130116E+00
         25   -1    0    0    0    0  0.00000000000E+00  0.00000000000E+00  0.99999998245E-14  0.12500000000E+03  0.12500000000E+03 0.  0.
        -13    1    3    3    0    0 -0.23763772583E+01  0.87707969139E+01 -0.58944172447E+02  0.59640595879E+02  0.10566000000E+00 0.  1.
         23    2    1    0    0    0  0.11495287492E+02  0.83583078425E+01 -0.26478927701E+02  0.94947769522E+02  0.90066322121E+02 0.  0.
         13    1    3    3    0    0  0.13871664750E+02 -0.41248907137E+00  0.32465244746E+02  0.35307173642E+02  0.10566000000E+00 0. -1.
         22    1    1    0    0    0 -0.11495287492E+02 -0.83583078425E+01  0.26478927701E+02  0.30052230478E+02  0.00000000000E+00 0.  1.
</event>
<event>
 5    1  0.1766634E-003  0.9118800E+02  0.7818608E-02  0.1130116E+00
         25   -1    0    0    0    0  0.00000000000E+00  0.00000000000E+00  0.99999998245E-14  0.12500000000E+03  0.12500000000E+03 0.  0.
        -13    1    3    3    0    0  0.55069859508E+02 -0.82543445661E+01 -0.19885129730E+02  0.59129122933E+02  0.10566000000E+00 0. -1.
         23    2    1    0    0    0  0.21471776615E+02  0.84948334538E+01 -0.16076861859E+02  0.96863460169E+02  0.92686919478E+02 0.  0.
         13    1    3    3    0    0 -0.33598082893E+02  0.16749178020E+02  0.38082678709E+01  0.37734337236E+02  0.10566000000E+00 0.  1.
         22    1    1    0    0    0 -0.21471776615E+02 -0.84948334538E+01  0.16076861859E+02  0.28136539831E+02  0.00000000000E+00 0. -1.
</event>
<event>
 5    1  0.1766634E-003  0.9118800E+02  0.7818608E-02  0.1130116E+00
         25   -1    0    0    0    0  0.00000000000E+00  0.00000000000E+00  0.99999998245E-14  0.12500000000E+03  0.12500000000E+03 0.  0.
        -13    1    3    3    0    0 -0.36884485260E+02  0.16294523018E+02  0.86702605881E+01  0.41245136877E+02  0.10566000000E+00 0.  1.
         23    2    1    0    0    0 -0.86333089639E+01 -0.20575516650E+02 -0.19327433566E+02  0.95479911969E+02  0.90801861172E+02 0.  0.
         13    1    3    3    0    0  0.28251176296E+02 -0.36870039669E+02 -0.27997694154E+02  0.54234775092E+02  0.10566000000E+00 0. -1.
         22    1    1    0    0    0  0.86333089639E+01  0.20575516650E+02  0.19327433566E+02  0.29520088031E+02  0.00000000000E+00 0. -1.
</event>
<event>
 5    1  0.1766634E-003  0.9118800E+02  0.7818608E-02  0.1130116E+00
         25   -1    0    0    0    0  0.00000000000E+00  0.00000000000E+00  0.99999998245E-14  0.12500000000E+03  0.12500000000E+03 0.  0.
        -13    1    3    3    0    0 -0.14410755867E+02  0.55536607068E+01  0.30621487970E+02  0.34295768273E+02  0.10566000000E+00 0. -1.
         23    2    1    0    0    0  0.37979462897E+00  0.22963418781E+01 -0.29048783516E+02  0.95858118562E+02  0.91321025183E+02 0.  0.
         13    1    3    3    0    0  0.14790550496E+02 -0.32573188287E+01 -0.59670271486E+02  0.61562350289E+02  0.10566000000E+00 0.  1.
         22    1    1    0    0    0 -0.37979462897E+00 -0.22963418781E+01  0.29048783516E+02  0.29141881438E+02  0.00000000000E+00 0.  1.
</event>
<event>
 5    1  0.1766634E-003  0.9118800E+02  0.7818608E-02  0.1130116E+00
         25   -1    0    0    0    0  0.00000000000E+00  0.00000000000E+00  0.99999998245E-14  0.12500000000E+03  0.12500000000E+03 0.  0.
        -13    1    3    3    0    0  0.40109451011E+02 -0.12423293577E+02  0.25401591451E+02  0.49075027213E+02  0.10566000000E+00 0. -1.
         23    2    1    0    0    0 -0.16689941328E+01 -0.26401031293E+02  0.15876257751E+02  0.94147843594E+02  0.88949204035E+02 0.  0.
         13    1    3    3    0    0 -0.41778445144E+02 -0.13977737716E+02 -0.95253337000E+01  0.45072816380E+02  0.10566000000E+00 0.  1.
         22    1    1    0    0    0  0.16689941328E+01  0.26401031293E+02 -0.15876257751E+02  0.30852156406E+02  0.00000000000E+00 0. -1.
</event>
<event>
 5    1  0.1766634E-003  0.9118800E+02  0.7818608E-02  0.1130116E+00
         25   -1    0    0    0    0  0.00000000000E+00  0.00000000000E+00  0.99999998245E-14  0.12500000000E+03  0.12500000000E+03 0.  0.
        -13    1    3    3    0    0 -0.23277380769E+02 -0.20313588596E+02 -0.49175465168E+02  0.58075088253E+02  0.10566000000E+00 0. -1.
         23    2    1    0    0    0 -0.82749000391E+01  0.24203880582E+01 -0.35335823708E+02  0.88627583444E+02  0.80820145143E+02 0.  0.
         13    1    3    3    0    0  0.15002480730E+02  0.22733976654E+02  0.13839641460E+02  0.30552495190E+02  0.10566000000E+00 0.  1.
         22    1    1    0    0    0  0.82749000391E+01 -0.24203880582E+01  0.35335823708E+02  0.36372416556E+02  0.00000000000E+00 0. -1.
</event>
<event>
 5    1  0.1766634E-003  0.9118800E+02  0.7818608E-02  0.1130116E+00
         25   -1    0    0    0    0  0.00000000000E+00  0.00000000000E+00  0.99999998245E-14  0.12500000000E+03  0.12500000000E+03 0.  0.
        -13    1    3    3    0    0  0.32927982000E+02 -0.48388923241E+02  0.72905097008E+01  0.58982222633E+02  0.10566000000E+00 0. -1.
         23    2    1    0    0    0  0.25721873083E+02 -0.13768718838E+02 -0.26208441005E+01  0.95707318369E+02  0.91114376430E+02 0.  0.
         13    1    3    3    0    0 -0.72061089165E+01  0.34620204403E+02 -0.99113538013E+01  0.36725095736E+02  0.10566000000E+00 0.  1.
         22    1    1    0    0    0 -0.25721873083E+02  0.13768718838E+02  0.26208441005E+01  0.29292681631E+02  0.00000000000E+00 0. -1.
</event>
<event>
 5    1  0.1766634E-003  0.9118800E+02  0.7818608E-02  0.1130116E+00
         25   -1    0    0    0    0  0.00000000000E+00  0.00000000000E+00  0.99999998245E-14  0.12500000000E+03  0.12500000000E+03 0.  0.
        -13    1    3    3    0    0  0.38106231485E+02 -0.12170207621E+02 -0.45917296962E+02  0.60898342801E+02  0.10566000000E+00 0.  1.
         23    2    1    0    0    0  0.23999382688E+02 -0.69111426057E+01 -0.13572237145E+02  0.96575716673E+02  0.92298045311E+02 0.  0.
         13    1    3    3    0    0 -0.14106848798E+02  0.52590650157E+01  0.32345059817E+02  0.35677373872E+02  0.10566000000E+00 0. -1.
         22    1    1    0    0    0 -0.23999382688E+02  0.69111426057E+01  0.13572237145E+02  0.28424283327E+02  0.00000000000E+00 0.  1.
</event>
<event>
 5    1  0.1766634E-003  0.9118800E+02  0.7818608E-02  0.1130116E+00
         25   -1    0    0    0    0  0.00000000000E+00  0.00000000000E+00  0.99999998245E-14  0.12500000000E+03  0.12500000000E+03 0.  0.
        -13    1    3    3    0    0 -0.39696477580E+02  0.37129865064E+02 -0.23320347999E+01  0.54404841349E+02  0.10566000000E+00 0. -1.
         23    2    1    0    0    0 -0.33536797720E+02  0.50953535760E+01 -0.12919334889E+02  0.88701396124E+02  0.80934226574E+02 0.  0.
         13    1    3    3    0    0  0.61596798600E+01 -0.32034511488E+02 -0.10587300089E+02  0.34296554775E+02  0.10566000000E+00 0.  1.
         22    1    1    0    0    0  0.33536797720E+02 -0.50953535760E+01  0.12919334889E+02  0.36298603876E+02  0.00000000000E+00 0. -1.
</event>
<event>
 5    1  0.1766634E-003  0.9118800E+02  0.7818608E-02  0.1130116E+00
         25   -1    0    0    0    0  0.00000000000E+00  0.00000000000E+00  0.99999998245E-14  0.12500000000E+03  0.12500000000E+03 0.  0.
        -13    1    3    3    0    0 -0.51932801475E+02 -0.12067820386E+02  0.66565695589E+01  0.53730524287E+02  0.10566000000E+00 0. -1.
         23    2    1    0    0    0 -0.14805030647E+02 -0.57692183629E+01  0.24811535079E+02  0.95536716307E+02  0.90880025730E+02 0.  0.
         13    1    3    3    0    0  0.37127770828E+02  0.62986020229E+01  0.18154965521E+02  0.41806192020E+02  0.10566000000E+00 0.  1.
         22    1    1    0    0    0  0.14805030647E+02  0.57692183629E+01 -0.24811535079E+02  0.29463283693E+02  0.00000000000E+00 0. -1.
</event>
<event>
 5    1  0.1766634E-003  0.9118800E+02  0.7818608E-02  0.1130116E+00
         25   -1    0    0    0    0  0.00000000000E+00  0.00000000000E+00  0.99999998245E-14  0.12500000000E+03  0.12500000000E+03 0.  0.
        -13    1    3    3    0    0 -0.16236120292E+01  0.39670970411E+02 -0.17063758424E+02  0.43215796012E+02  0.10566000000E+00 0. -1.
         23    2    1    0    0    0 -0.15538365457E+02  0.10540410435E+02  0.23411702977E+02  0.94989187123E+02  0.90123785877E+02 0.  0.
         13    1    3    3    0    0 -0.13914753428E+02 -0.29130559976E+02  0.40475461401E+02  0.51773391111E+02  0.10566000000E+00 0.  1.
         22    1    1    0    0    0  0.15538365457E+02 -0.10540410435E+02 -0.23411702977E+02  0.30010812877E+02  0.00000000000E+00 0.  1.
</event>
<event>
 5    1  0.1766634E-003  0.9118800E+02  0.7818608E-02  0.1130116E+00
         25   -1    0    0    0    0  0.00000000000E+00  0.00000000000E+00  0.99999998245E-14  0.12500000000E+03  0.12500000000E+03 0.  0.
        -13    1    3    3    0    0  0.16982621366E+02  0.58812036468E+02  0.38976752070E-01  0.61215012417E+02  0.10566000000E+00 0.  1.
         23    2    1    0    0    0  0.49715437999E+01  0.28011055196E+02 -0.84031465753E+01  0.95336076906E+02  0.90603638043E+02 0.  0.
         13    1    3    3    0    0 -0.12011077566E+02 -0.30800981272E+02 -0.84421233274E+01  0.34121064490E+02  0.10566000000E+00 0. -1.
         22    1    1    0    0    0 -0.49715437999E+01 -0.28011055196E+02  0.84031465753E+01  0.29663923094E+02  0.00000000000E+00 0.  1.
</event>
<event>
 5    1  0.1766634E-003  0.9118800E+02  0.7818608E-02  0.1130116E+00
         25   -1    0    0    0    0  0.00000000000E+00  0.00000000000E+00  0.99999998245E-14  0.12500000000E+03  0.12500000000E+03 0.  0.
        -13    1    3    3    0    0 -0.17369924506E+02  0.11607003658E+02  0.28588249536E+02  0.35408134473E+02  0.10566000000E+00 0.  1.
         23    2    1    0    0    0  0.11079029955E+02 -0.20710820485E+02 -0.15362447435E+02  0.96934224025E+02  0.92782304381E+02 0.  0.
         13    1    3    3    0    0  0.28448954461E+02 -0.32317824143E+02 -0.43950696971E+02  0.61526089552E+02  0.10566000000E+00 0. -1.
         22    1    1    0    0    0 -0.11079029955E+02  0.20710820485E+02  0.15362447435E+02  0.28065775975E+02  0.00000000000E+00 0. -1.
</event>
<event>
 5    1  0.1766634E-003  0.9118800E+02  0.7818608E-02  0.1130116E+00
         25   -1    0    0    0    0  0.00000000000E+00  0.00000000000E+00  0.99999998245E-14  0.12500000000E+03  0.12500000000E+03 0.  0.
        -13    1    3    3    0    0 -0.25973769225E+02 -0.20121271071E+02  0.52425580851E+02  0.61870468956E+02  0.10566000000E+00 0. -1.
         23    2    1    0    0    0 -0.14196064243E+02 -0.14844357017E+02  0.22096096151E+02  0.94831794214E+02  0.89905219834E+02 0.  0.
         13    1    3    3    0    0  0.11777704982E+02  0.52769140532E+01 -0.30329484700E+02  0.32961325258E+02  0.10566000000E+00 0.  1.
         22    1    1    0    0    0  0.14196064243E+02  0.14844357017E+02 -0.22096096151E+02  0.30168205786E+02  0.00000000000E+00 0. -1.
</event>
<event>
 5    1  0.1766634E-003  0.9118800E+02  0.7818608E-02  0.1130116E+00
         25   -1    0    0    0    0  0.00000000000E+00  0.00000000000E+00  0.99999998245E-14  0.12500000000E+03  0.12500000000E+03 0.  0.
        -13    1    3    3    0    0 -0.38666525906E+02 -0.13850344261E+02  0.14104650249E+02  0.43426772669E+02  0.10566000000E+00 0.  1.
         23    2    1    0    0    0  0.81650497731E+01 -0.27380054810E+02 -0.53849374768E+01  0.95925389240E+02  0.91413058750E+02 0.  0.
         13    1    3    3    0    0  0.46831575679E+02 -0.13529710549E+02 -0.19489587726E+02  0.52498616571E+02  0.10566000000E+00 0. -1.
         22    1    1    0    0    0 -0.81650497731E+01  0.27380054810E+02  0.53849374768E+01  0.29074610760E+02  0.00000000000E+00 0. -1.
</event>
<event>
 5    1  0.1766634E-003  0.9118800E+02  0.7818608E-02  0.1130116E+00
         25   -1    0    0    0    0  0.00000000000E+00  0.00000000000E+00  0.99999998245E-14  0.12500000000E+03  0.12500000000E+03 0.  0.
        -13    1    3    3    0    0 -0.29279873193E+02 -0.26426922407E+02  0.19372390181E+01  0.39489964056E+02  0.10566000000E+00 0. -1.
         23    2    1    0    0    0  0.80089511642E+00  0.13047510106E+02  0.26935684727E+02  0.95059892040E+02  0.90221798974E+02 0.  0.
         13    1    3    3    0    0  0.30080768309E+02  0.39474432513E+02  0.24998445709E+02  0.55569927984E+02  0.10566000000E+00 0.  1.
         22    1    1    0    0    0 -0.80089511642E+00 -0.13047510106E+02 -0.26935684727E+02  0.29940107960E+02  0.00000000000E+00 0. -1.
</event>
<event>
 5    1  0.1766634E-003  0.9118800E+02  0.7818608E-02  0.1130116E+00
         25   -1    0    0    0    0  0.00000000000E+00  0.00000000000E+00  0.99999998245E-14  0.12500000000E+03  0.12500000000E+03 0.  0.
        -13    1    3    3    0    0  0.48306325688E+01  0.31316470735E+02  0.41697805459E+02  0.52371504603E+02  0.10566000000E+00 0.  1.
         23    2    1    0    0    0  0.14942906044E+02  0.37376421135E+02  0.14155921859E+02  0.82330603220E+02  0.70410587307E+02 0.  0.
         13    1    3    3    0    0  0.10112273475E+02  0.60599504004E+01 -0.27541883599E+02  0.29959098616E+02  0.10566000000E+00 0. -1.
         22    1    1    0    0    0 -0.14942906044E+02 -0.37376421135E+02 -0.14155921859E+02  0.42669396780E+02  0.00000000000E+00 0.  1.
</event>
<event>
 5    1  0.1766634E-003  0.9118800E+02  0.7818608E-02  0.1130116E+00
         25   -1    0    0    0    0  0.00000000000E+00  0.00000000000E+00  0.99999998245E-14  0.12500000000E+03  0.12500000000E+03 0.  0.
        -13    1    3    3    0    0 -0.36346135968E+02  0.76509408538E+01 -0.22220322810E+02  0.43282010184E+02  0.10566000000E+00 0.  1.
         23    2    1    0    0    0  0.11604708667E+02  0.25037065180E+02 -0.65977073725E+01  0.96626532841E+02  0.92366840425E+02 0.  0.
         13    1    3    3    0    0  0.47950844636E+02  0.17386124326E+02  0.15622615437E+02  0.53344522657E+02  0.10566000000E+00 0. -1.
         22    1    1    0    0    0 -0.11604708667E+02 -0.25037065180E+02  0.65977073725E+01  0.28373467159E+02  0.00000000000E+00 0. -1.
</event>
<event>
 5    1  0.1766634E-003  0.9118800E+02  0.7818608E-02  0.1130116E+00
         25   -1    0    0    0    0  0.00000000000E+00  0.00000000000E+00  0.99999998245E-14  0.12500000000E+03  0.12500000000E+03 0.  0.
        -13    1    3    3    0    0 -0.38256020824E+02  0.10001718400E+02 -0.12555304575E+02  0.41487399740E+02  0.10566000000E+00 0. -1.
         23    2    1    0    0    0 -0.10579002986E+01 -0.28669472279E+02 -0.15035632818E+01  0.96271642993E+02  0.91885313017E+02 0.  0.
         13    1    3    3    0    0  0.37198120525E+02 -0.38671190679E+02  0.11051741293E+02  0.54784243253E+02  0.10566000000E+00 0.  1.
         22    1    1    0    0    0  0.10579002986E+01  0.28669472279E+02  0.15035632818E+01  0.28728357007E+02  0.00000000000E+00 0.  1.
</event>
<event>
 5    1  0.1766634E-003  0.9118800E+02  0.7818608E-02  0.1130116E+00
         25   -1    0    0    0    0  0.00000000000E+00  0.00000000000E+00  0.99999998245E-14  0.12500000000E+03  0.12500000000E+03 0.  0.
        -13    1    3    3    0    0 -0.16863455785E+02  0.16039282418E+02 -0.57803359162E+02  0.62312713116E+02  0.10566000000E+00 0.  1.
         23    2    1    0    0    0 -0.72453336939E+01  0.39716012686E+01 -0.26976562985E+02  0.96786467299E+02  0.92583026656E+02 0.  0.
         13    1    3    3    0    0  0.96181220911E+01 -0.12067681149E+02  0.30826796177E+02  0.34473754183E+02  0.10566000000E+00 0. -1.
         22    1    1    0    0    0  0.72453336939E+01 -0.39716012686E+01  0.26976562985E+02  0.28213532701E+02  0.00000000000E+00 0.  1.
</event>
<event>
 5    1  0.1766634E-003  0.9118800E+02  0.7818608E-02  0.1130116E+00
         25   -1    0    0    0    0  0.00000000000E+00  0.00000000000E+00  0.99999998245E-14  0.12500000000E+03  0.12500000000E+03 0.  0.
        -13    1    3    3    0    0 -0.26655883622E+02  0.46326375145E+02 -0.80426383031E+01  0.54049647183E+02  0.10566000000E+00 0. -1.
         23    2    1    0    0    0 -0.28135004039E+02  0.48285552316E+01  0.52599922806E+00  0.96448816608E+02  0.92126023207E+02 0.  0.
         13    1    3    3    0    0 -0.14791204173E+01 -0.41497819913E+02  0.85686375312E+01  0.42399169425E+02  0.10566000000E+00 0.  1.
         22    1    1    0    0    0  0.28135004039E+02 -0.48285552316E+01 -0.52599922806E+00  0.28551183392E+02  0.00000000000E+00 0. -1.
</event>
<event>
 5    1  0.1766634E-003  0.9118800E+02  0.7818608E-02  0.1130116E+00
         25   -1    0    0    0    0  0.00000000000E+00  0.00000000000E+00  0.99999998245E-14  0.12500000000E+03  0.12500000000E+03 0.  0.
        -13    1    3    3    0    0  0.37139219459E+02  0.60692787602E+01  0.28087919353E+02  0.46958493846E+02  0.10566000000E+00 0. -1.
         23    2    1    0    0    0  0.28227138593E+02 -0.32497170798E+01 -0.15652669797E+02  0.92560239119E+02  0.86689444455E+02 0.  0.
         13    1    3    3    0    0 -0.89120808662E+01 -0.93189958399E+01 -0.43740589149E+02  0.45601745274E+02  0.10566000000E+00 0.  1.
         22    1    1    0    0    0 -0.28227138593E+02  0.32497170798E+01  0.15652669797E+02  0.32439760881E+02  0.00000000000E+00 0.  1.
</event>
<event>
 5    1  0.1766634E-003  0.9118800E+02  0.7818608E-02  0.1130116E+00
         25   -1    0    0    0    0  0.00000000000E+00  0.00000000000E+00  0.99999998245E-14  0.12500000000E+03  0.12500000000E+03 0.  0.
        -13    1    3    3    0    0 -0.19174017749E+02  0.47063239255E+02 -0.43768426867E+00  0.50821198111E+02  0.10566000000E+00 0.  1.
         23    2    1    0    0    0  0.16835391443E+02  0.20335047643E+02 -0.10168077311E+02  0.96709818596E+02  0.92479482314E+02 0.  0.
         13    1    3    3    0    0  0.36009409192E+02 -0.26728191613E+02 -0.97303930422E+01  0.45888620485E+02  0.10566000000E+00 0. -1.
         22    1    1    0    0    0 -0.16835391443E+02 -0.20335047643E+02  0.10168077311E+02  0.28290181404E+02  0.00000000000E+00 0.  1.
</event>
<event>
 5    1  0.1766634E-003  0.9118800E+02  0.7818608E-02  0.1130116E+00
         25   -1    0    0    0    0  0.00000000000E+00  0.00000000000E+00  0.99999998245E-14  0.12500000000E+03  0.12500000000E+03 0.  0.
        -13    1    3    3    0    0 -0.29432913102E+02  0.28189740598E+02  0.32939458082E+02  0.52402069724E+02  0.10566000000E+00 0.  1.
         23    2    1    0    0    0  0.54194797596E+01  0.28705527896E+02  0.10028427445E+02  0.94113960279E+02  0.88901575181E+02 0.  0.
         13    1    3    3    0    0  0.34852392861E+02  0.51578729834E+00 -0.22911030638E+02  0.41711890554E+02  0.10566000000E+00 0. -1.
         22    1    1    0    0    0 -0.54194797596E+01 -0.28705527896E+02 -0.10028427445E+02  0.30886039721E+02  0.00000000000E+00 0.  1.
</event>
<event>
 5    1  0.1766634E-003  0.9118800E+02  0.7818608E-02  0.1130116E+00
         25   -1    0    0    0    0  0.00000000000E+00  0.00000000000E+00  0.99999998245E-14  0.12500000000E+03  0.12500000000E+03 0.  0.
        -13    1    3    3    0    0  0.12044944642E+02  0.29527425076E+02  0.38121352869E+01  0.32116865702E+02  0.10566000000E+00 0. -1.
         23    2    1    0    0    0  0.13491894709E+02 -0.30187090097E+02  0.78263836913E+00  0.91925778102E+02  0.85769717998E+02 0.  0.
         13    1    3    3    0    0  0.14469500671E+01 -0.59714515173E+02 -0.30294969177E+01  0.59808912400E+02  0.10566000000E+00 0.  1.
         22    1    1    0    0    0 -0.13491894709E+02  0.30187090097E+02 -0.78263836913E+00  0.33074221898E+02  0.00000000000E+00 0.  1.
</event>
<event>
 5    1  0.1766634E-003  0.9118800E+02  0.7818608E-02  0.1130116E+00
         25   -1    0    0    0    0  0.00000000000E+00  0.00000000000E+00  0.99999998245E-14  0.12500000000E+03  0.12500000000E+03 0.  0.
        -13    1    3    3    0    0  0.45778930210E+02 -0.11983661022E+02  0.27903056454E+02  0.54935510430E+02  0.10566000000E+00 0.  1.
         23    2    1    0    0    0  0.15305055263E+02  0.14674694611E+02  0.19299809263E+02  0.96328166851E+02  0.91962175446E+02 0.  0.
         13    1    3    3    0    0 -0.30473874947E+02  0.26658355633E+02 -0.86032471901E+01  0.41392656421E+02  0.10566000000E+00 0. -1.
         22    1    1    0    0    0 -0.15305055263E+02 -0.14674694611E+02 -0.19299809263E+02  0.28671833149E+02  0.00000000000E+00 0.  1.
</event>
<event>
 5    1  0.1766634E-003  0.9118800E+02  0.7818608E-02  0.1130116E+00
         25   -1    0    0    0    0  0.00000000000E+00  0.00000000000E+00  0.99999998245E-14  0.12500000000E+03  0.12500000000E+03 0.  0.
        -13    1    3    3    0    0  0.20874314243E+01  0.46521177174E+02 -0.10811318842E+02  0.47806621662E+02  0.10566000000E+00 0.  1.
         23    2    1    0    0    0  0.53408869207E+01 -0.34195185362E+01 -0.24500766403E+02  0.99691785238E+02  0.96425859132E+02 0.  0.
         13    1    3    3    0    0  0.32534554964E+01 -0.49940695710E+02 -0.13689447561E+02  0.51885163576E+02  0.10566000000E+00 0. -1.
         22    1    1    0    0    0 -0.53408869207E+01  0.34195185362E+01  0.24500766403E+02  0.25308214762E+02  0.00000000000E+00 0. -1.
</event>
<event>
 5    1  0.1766634E-003  0.9118800E+02  0.7818608E-02  0.1130116E+00
         25   -1    0    0    0    0  0.00000000000E+00  0.00000000000E+00  0.99999998245E-14  0.12500000000E+03  0.12500000000E+03 0.  0.
        -13    1    3    3    0    0  0.37140808895E+02  0.13261419996E+02 -0.17376870407E+02  0.43096075631E+02  0.10566000000E+00 0. -1.
         23    2    1    0    0    0 -0.11071069080E+02  0.27547417906E+02 -0.48427132074E+01  0.94918765400E+02  0.90026059283E+02 0.  0.
         13    1    3    3    0    0 -0.48211877974E+02  0.14285997910E+02  0.12534157200E+02  0.51822689769E+02  0.10566000000E+00 0.  1.
         22    1    1    0    0    0  0.11071069080E+02 -0.27547417906E+02  0.48427132074E+01  0.30081234600E+02  0.00000000000E+00 0.  1.
</event>
<event>
 5    1  0.1766634E-003  0.9118800E+02  0.7818608E-02  0.1130116E+00
         25   -1    0    0    0    0  0.00000000000E+00  0.00000000000E+00  0.99999998245E-14  0.12500000000E+03  0.12500000000E+03 0.  0.
        -13    1    3    3    0    0 -0.51220560647E+02  0.27281065161E+02  0.10558891427E+02  0.58985622837E+02  0.10566000000E+00 0. -1.
         23    2    1    0    0    0 -0.28705427396E+02 -0.75557241340E+00  0.87156673116E+01  0.94991079521E+02  0.90126410559E+02 0.  0.
         13    1    3    3    0    0  0.22515133251E+02 -0.28036637575E+02 -0.18432241156E+01  0.36005456684E+02  0.10566000000E+00 0.  1.
         22    1    1    0    0    0  0.28705427396E+02  0.75557241340E+00 -0.87156673116E+01  0.30008920479E+02  0.00000000000E+00 0.  1.
</event>
<event>
 5    1  0.1766634E-003  0.9118800E+02  0.7818608E-02  0.1130116E+00
         25   -1    0    0    0    0  0.00000000000E+00  0.00000000000E+00  0.99999998245E-14  0.12500000000E+03  0.12500000000E+03 0.  0.
        -13    1    3    3    0    0  0.47959863569E+02 -0.12030039446E+02  0.11109571225E+01  0.49458222293E+02  0.10566000000E+00 0.  1.
         23    2    1    0    0    0  0.93790614730E+01 -0.66897074219E+01  0.26604359535E+02  0.96008433540E+02  0.91526544702E+02 0.  0.
         13    1    3    3    0    0 -0.38580802096E+02  0.53403320242E+01  0.25493402413E+02  0.46550211247E+02  0.10566000000E+00 0. -1.
         22    1    1    0    0    0 -0.93790614730E+01  0.66897074219E+01 -0.26604359535E+02  0.28991566460E+02  0.00000000000E+00 0.  1.
</event>
<event>
 5    1  0.1766634E-003  0.9118800E+02  0.7818608E-02  0.1130116E+00
         25   -1    0    0    0    0  0.00000000000E+00  0.00000000000E+00  0.99999998245E-14  0.12500000000E+03  0.12500000000E+03 0.  0.
        -13    1    3    3    0    0 -0.49024550475E+02  0.19841886063E+02 -0.14243766132E+02  0.54772283406E+02  0.10566000000E+00 0. -1.
         23    2    1    0    0    0 -0.22681359065E+02  0.52523795512E+01  0.15445908879E+02  0.97060643509E+02  0.92952465687E+02 0.  0.
         13    1    3    3    0    0  0.26343191410E+02 -0.14589506512E+02  0.29689675011E+02  0.42288360103E+02  0.10566000000E+00 0.  1.
         22    1    1    0    0    0  0.22681359065E+02 -0.52523795512E+01 -0.15445908879E+02  0.27939356491E+02  0.00000000000E+00 0. -1.
</event>
<event>
 5    1  0.1766634E-003  0.9118800E+02  0.7818608E-02  0.1130116E+00
         25   -1    0    0    0    0  0.00000000000E+00  0.00000000000E+00  0.99999998245E-14  0.12500000000E+03  0.12500000000E+03 0.  0.
        -13    1    3    3    0    0  0.11020369618E+02  0.91877718029E+01  0.49194948778E+02  0.51244686032E+02  0.10566000000E+00 0. -1.
         23    2    1    0    0    0  0.79718447352E+00  0.28023100993E+02  0.11312325622E+02  0.94769247391E+02  0.89818215567E+02 0.  0.
         13    1    3    3    0    0 -0.10223185144E+02  0.18835329190E+02 -0.37882623156E+02  0.43524561358E+02  0.10566000000E+00 0.  1.
         22    1    1    0    0    0 -0.79718447352E+00 -0.28023100993E+02 -0.11312325622E+02  0.30230752609E+02  0.00000000000E+00 0. -1.
</event>
<event>
 5    1  0.1766634E-003  0.9118800E+02  0.7818608E-02  0.1130116E+00
         25   -1    0    0    0    0  0.00000000000E+00  0.00000000000E+00  0.99999998245E-14  0.12500000000E+03  0.12500000000E+03 0.  0.
        -13    1    3    3    0    0 -0.21479415088E+01  0.37586506278E+02  0.74717175110E+01  0.38382246333E+02  0.10566000000E+00 0.  1.
         23    2    1    0    0    0 -0.32999512682E+02  0.30215969939E+01 -0.13473862676E+02  0.89227903877E+02  0.81743354282E+02 0.  0.
         13    1    3    3    0    0 -0.30851571173E+02 -0.34564909285E+02 -0.20945580187E+02  0.50845657544E+02  0.10566000000E+00 0. -1.
         22    1    1    0    0    0  0.32999512682E+02 -0.30215969939E+01  0.13473862676E+02  0.35772096123E+02  0.00000000000E+00 0. -1.
</event>
<event>
 5    1  0.1766634E-003  0.9118800E+02  0.7818608E-02  0.1130116E+00
         25   -1    0    0    0    0  0.00000000000E+00  0.00000000000E+00  0.99999998245E-14  0.12500000000E+03  0.12500000000E+03 0.  0.
        -13    1    3    3    0    0 -0.10727893096E+02 -0.19870186527E+02  0.41344678414E+02  0.47109506472E+02  0.10566000000E+00 0. -1.
         23    2    1    0    0    0 -0.22655620920E+02  0.15600304310E+02  0.10675176761E+02  0.95493965825E+02  0.90821205984E+02 0.  0.
         13    1    3    3    0    0 -0.11927727824E+02  0.35470490837E+02 -0.30669501652E+02  0.48384459353E+02  0.10566000000E+00 0.  1.
         22    1    1    0    0    0  0.22655620920E+02 -0.15600304310E+02 -0.10675176761E+02  0.29506034175E+02  0.00000000000E+00 0.  1.
</event>
<event>
 5    1  0.1766634E-003  0.9118800E+02  0.7818608E-02  0.1130116E+00
         25   -1    0    0    0    0  0.00000000000E+00  0.00000000000E+00  0.99999998245E-14  0.12500000000E+03  0.12500000000E+03 0.  0.
        -13    1    3    3    0    0  0.33252687247E+02 -0.27374190210E+02  0.31277750583E+02  0.53229656625E+02  0.10566000000E+00 0.  1.
         23    2    1    0    0    0  0.22807906127E+02 -0.19689558257E+02 -0.73580141153E+01  0.93983558263E+02  0.88718034051E+02 0.  0.
         13    1    3    3    0    0 -0.10444781120E+02  0.76846319523E+01 -0.38635764699E+02  0.40753901639E+02  0.10566000000E+00 0. -1.
         22    1    1    0    0    0 -0.22807906127E+02  0.19689558257E+02  0.73580141153E+01  0.31016441737E+02  0.00000000000E+00 0.  1.
</event>
<event>
 5    1  0.1766634E-003  0.9118800E+02  0.7818608E-02  0.1130116E+00
         25   -1    0    0    0    0  0.00000000000E+00  0.00000000000E+00  0.99999998245E-14  0.12500000000E+03  0.12500000000E+03 0.  0.
        -13    1    3    3    0    0 -0.13967247940E+02 -0.27094971551E+02 -0.39462299232E+02  0.49864874642E+02  0.10566000000E+00 0.  1.
         23    2    1    0    0    0  0.57445372516E+01  0.11569220651E+02 -0.27081985432E+02  0.94995325203E+02  0.90132298877E+02 0.  0.
         13    1    3    3    0    0  0.19711785191E+02  0.38664192202E+02  0.12380313800E+02  0.45130450561E+02  0.10566000000E+00 0. -1.
         22    1    1    0    0    0 -0.57445372516E+01 -0.11569220651E+02  0.27081985432E+02  0.30004674797E+02  0.00000000000E+00 0.  1.
</event>
<event>
 5    1  0.1766634E-003  0.9118800E+02  0.7818608E-02  0.1130116E+00
         25   -1    0    0    0    0  0.00000000000E+00  0.00000000000E+00  0.99999998245E-14  0.12500000000E+03  0.12500000000E+03 0.  0.
        -13    1    3    3    0    0 -0.10236533103E+02  0.35815941391E+02 -0.23483424488E+02  0.44034652916E+02  0.10566000000E+00 0. -1.
         23    2    1    0    0    0  0.21748235122E+02  0.15011435588E+02  0.11851022927E+02  0.96038375844E+02  0.91567428494E+02 0.  0.
         13    1    3    3    0    0  0.31984768225E+02 -0.20804505803E+02  0.35334447415E+02  0.52003722928E+02  0.10566000000E+00 0.  1.
         22    1    1    0    0    0 -0.21748235122E+02 -0.15011435588E+02 -0.11851022927E+02  0.28961624156E+02  0.00000000000E+00 0. -1.
</event>
<event>
 5    1  0.1766634E-003  0.9118800E+02  0.7818608E-02  0.1130116E+00
         25   -1    0    0    0    0  0.00000000000E+00  0.00000000000E+00  0.99999998245E-14  0.12500000000E+03  0.12500000000E+03 0.  0.
        -13    1    3    3    0    0 -0.49583568088E+00  0.37630056027E+02 -0.29008324408E+01  0.37745105146E+02  0.10566000000E+00 0.  1.
         23    2    1    0    0    0  0.20625274739E+02 -0.14324416296E+02  0.13908877001E+02  0.96293768626E+02  0.91915407612E+02 0.  0.
         13    1    3    3    0    0  0.21121110420E+02 -0.51954472323E+02  0.16809709442E+02  0.58548663480E+02  0.10566000000E+00 0. -1.
         22    1    1    0    0    0 -0.20625274739E+02  0.14324416296E+02 -0.13908877001E+02  0.28706231374E+02  0.00000000000E+00 0. -1.
</event>
<event>
 5    1  0.1766634E-003  0.9118800E+02  0.7818608E-02  0.1130116E+00
         25   -1    0    0    0    0  0.00000000000E+00  0.00000000000E+00  0.99999998245E-14  0.12500000000E+03  0.12500000000E+03 0.  0.
        -13    1    3    3    0    0 -0.49724768493E+02  0.16038324178E+02  0.25882018939E+01  0.52311474814E+02  0.10566000000E+00 0.  1.
         23    2    1    0    0    0 -0.17592530098E+02  0.24528003266E+02 -0.16460904070E+02  0.90618589002E+02  0.83842991660E+02 0.  0.
         13    1    3    3    0    0  0.32132238396E+02  0.84896790879E+01 -0.19049105964E+02  0.38307114188E+02  0.10566000000E+00 0. -1.
         22    1    1    0    0    0  0.17592530098E+02 -0.24528003266E+02  0.16460904070E+02  0.34381410998E+02  0.00000000000E+00 0.  1.
</event>
<event>
 5    1  0.1766634E-003  0.9118800E+02  0.7818608E-02  0.1130116E+00
         25   -1    0    0    0    0  0.00000000000E+00  0.00000000000E+00  0.99999998245E-14  0.12500000000E+03  0.12500000000E+03 0.  0.
        -13    1    3    3    0    0  0.10590424822E+02  0.30871597430E+02 -0.37412715594E+02  0.49648112531E+02  0.10566000000E+00 0.  1.
         23    2    1    0    0    0 -0.21327724328E+02  0.19034038374E+02 -0.63844506394E+01  0.95709597957E+02  0.91117503749E+02 0.  0.
         13    1    3    3    0    0 -0.31918149150E+02 -0.11837559056E+02  0.31028264954E+02  0.46061485426E+02  0.10566000000E+00 0. -1.
         22    1    1    0    0    0  0.21327724328E+02 -0.19034038374E+02  0.63844506394E+01  0.29290402043E+02  0.00000000000E+00 0.  1.
</event>
<event>
 5    1  0.1766634E-003  0.9118800E+02  0.7818608E-02  0.1130116E+00
         25   -1    0    0    0    0  0.00000000000E+00  0.00000000000E+00  0.99999998245E-14  0.12500000000E+03  0.12500000000E+03 0.  0.
        -13    1    3    3    0    0 -0.14977535728E+02  0.29468017531E+02 -0.30815224465E+02  0.45191590551E+02  0.10566000000E+00 0. -1.
         23    2    1    0    0    0 -0.26678627366E+02 -0.40121506556E+01  0.70937003625E+01  0.97104353461E+02  0.93011227092E+02 0.  0.
         13    1    3    3    0    0 -0.11701091637E+02 -0.33480168187E+02  0.37908924827E+02  0.51912762910E+02  0.10566000000E+00 0.  1.
         22    1    1    0    0    0  0.26678627366E+02  0.40121506556E+01 -0.70937003625E+01  0.27895646539E+02  0.00000000000E+00 0.  1.
</event>
<event>
 5    1  0.1766634E-003  0.9118800E+02  0.7818608E-02  0.1130116E+00
         25   -1    0    0    0    0  0.00000000000E+00  0.00000000000E+00  0.99999998245E-14  0.12500000000E+03  0.12500000000E+03 0.  0.
        -13    1    3    3    0    0  0.22074315007E+02  0.23196536435E+02 -0.23987537743E+02  0.40009596557E+02  0.10566000000E+00 0. -1.
         23    2    1    0    0    0  0.69076818580E+01 -0.27490992059E+02 -0.50292236658E+01  0.96211741912E+02  0.91803787929E+02 0.  0.
         13    1    3    3    0    0 -0.15166633149E+02 -0.50687528494E+02  0.18958314078E+02  0.56202145356E+02  0.10566000000E+00 0.  1.
         22    1    1    0    0    0 -0.69076818580E+01  0.27490992059E+02  0.50292236658E+01  0.28788258088E+02  0.00000000000E+00 0.  1.
</event>
<event>
 5    1  0.1766634E-003  0.9118800E+02  0.7818608E-02  0.1130116E+00
         25   -1    0    0    0    0  0.00000000000E+00  0.00000000000E+00  0.99999998245E-14  0.12500000000E+03  0.12500000000E+03 0.  0.
        -13    1    3    3    0    0 -0.25106581354E+02 -0.11171862277E+02 -0.30114730117E+02  0.40768358662E+02  0.10566000000E+00 0.  1.
         23    2    1    0    0    0 -0.20150354511E+02  0.57968075646E+01  0.21284345601E+02  0.95122531357E+02  0.90308542449E+02 0.  0.
         13    1    3    3    0    0  0.49562268430E+01  0.16968669841E+02  0.51399075717E+02  0.54354172695E+02  0.10566000000E+00 0. -1.
         22    1    1    0    0    0  0.20150354511E+02 -0.57968075646E+01 -0.21284345601E+02  0.29877468643E+02  0.00000000000E+00 0. -1.
</event>
<event>
 5    1  0.1766634E-003  0.9118800E+02  0.7818608E-02  0.1130116E+00
         25   -1    0    0    0    0  0.00000000000E+00  0.00000000000E+00  0.99999998245E-14  0.12500000000E+03  0.12500000000E+03 0.  0.
        -13    1    3    3    0    0 -0.20252565334E+02  0.18909075388E+02 -0.23997014481E+02  0.36654977870E+02  0.10566000000E+00 0.  1.
         23    2    1    0    0    0 -0.11295614161E+02 -0.19036166134E+02  0.19806908706E+02  0.95296798946E+02  0.90549432558E+02 0.  0.
         13    1    3    3    0    0  0.89569511734E+01 -0.37945241521E+02  0.43803923187E+02  0.58641821076E+02  0.10566000000E+00 0. -1.
         22    1    1    0    0    0  0.11295614161E+02  0.19036166134E+02 -0.19806908706E+02  0.29703201054E+02  0.00000000000E+00 0. -1.
</event>
<event>
 5    1  0.1766634E-003  0.9118800E+02  0.7818608E-02  0.1130116E+00
         25   -1    0    0    0    0  0.00000000000E+00  0.00000000000E+00  0.99999998245E-14  0.12500000000E+03  0.12500000000E+03 0.  0.
        -13    1    3    3    0    0 -0.23350806657E+02 -0.10727641569E+02 -0.27686041883E+02  0.37773940016E+02  0.10566000000E+00 0. -1.
         23    2    1    0    0    0  0.28640330334E+02  0.28444969102E+01 -0.67814956670E+01  0.95430617731E+02  0.90733976176E+02 0.  0.
         13    1    3    3    0    0  0.51991136991E+02  0.13572138479E+02  0.20904546216E+02  0.57656677714E+02  0.10566000000E+00 0.  1.
         22    1    1    0    0    0 -0.28640330334E+02 -0.28444969102E+01  0.67814956670E+01  0.29569382269E+02  0.00000000000E+00 0.  1.
</event>
<event>
 5    1  0.1766634E-003  0.9118800E+02  0.7818608E-02  0.1130116E+00
         25   -1    0    0    0    0  0.00000000000E+00  0.00000000000E+00  0.99999998245E-14  0.12500000000E+03  0.12500000000E+03 0.  0.
        -13    1    3    3    0    0 -0.48209001725E+02  0.24127899078E+02  0.24917747794E+01  0.53967429685E+02  0.10566000000E+00 0. -1.
         23    2    1    0    0    0 -0.99615744368E+01  0.15308423358E+02  0.20834713884E+02  0.97293212138E+02  0.93264693398E+02 0.  0.
         13    1    3    3    0    0  0.38247427288E+02 -0.88194757196E+01  0.18342939105E+02  0.43325782453E+02  0.10566000000E+00 0.  1.
         22    1    1    0    0    0  0.99615744368E+01 -0.15308423358E+02 -0.20834713884E+02  0.27706787862E+02  0.00000000000E+00 0.  1.
</event>
<event>
 5    1  0.1766634E-003  0.9118800E+02  0.7818608E-02  0.1130116E+00
         25   -1    0    0    0    0  0.00000000000E+00  0.00000000000E+00  0.99999998245E-14  0.12500000000E+03  0.12500000000E+03 0.  0.
        -13    1    3    3    0    0 -0.14305568543E+02 -0.16933226170E+02 -0.54830372712E+02  0.59141900338E+02  0.10566000000E+00 0. -1.
         23    2    1    0    0    0 -0.54473118377E+01  0.78437615006E+00 -0.41770406531E+02  0.82868594683E+02  0.71359292813E+02 0.  0.
         13    1    3    3    0    0  0.88582567056E+01  0.17717602320E+02  0.13059966181E+02  0.23726694345E+02  0.10566000000E+00 0.  1.
         22    1    1    0    0    0  0.54473118377E+01 -0.78437615006E+00  0.41770406531E+02  0.42131405317E+02  0.00000000000E+00 0. -1.
</event>
<event>
 5    1  0.1766634E-003  0.9118800E+02  0.7818608E-02  0.1130116E+00
         25   -1    0    0    0    0  0.00000000000E+00  0.00000000000E+00  0.99999998245E-14  0.12500000000E+03  0.12500000000E+03 0.  0.
        -13    1    3    3    0    0  0.16760943812E+01  0.28553300702E+02  0.39298885382E+02  0.48605697502E+02  0.10566000000E+00 0. -1.
         23    2    1    0    0    0  0.66859304340E+01 -0.16187370317E+02  0.22105304421E+02  0.96797569128E+02  0.92598014461E+02 0.  0.
         13    1    3    3    0    0  0.50098360528E+01 -0.44740671019E+02 -0.17193580962E+02  0.48191871626E+02  0.10566000000E+00 0.  1.
         22    1    1    0    0    0 -0.66859304340E+01  0.16187370317E+02 -0.22105304421E+02  0.28202430872E+02  0.00000000000E+00 0. -1.
</event>
<event>
 5    1  0.1766634E-003  0.9118800E+02  0.7818608E-02  0.1130116E+00
         25   -1    0    0    0    0  0.00000000000E+00  0.00000000000E+00  0.99999998245E-14  0.12500000000E+03  0.12500000000E+03 0.  0.
        -13    1    3    3    0    0  0.19958240408E+02  0.23235072769E+02  0.45622735505E+02  0.54951297762E+02  0.10566000000E+00 0.  1.
         23    2    1    0    0    0  0.17893648944E+02 -0.95350875394E+01  0.18801495474E+02  0.97348656470E+02  0.93338974269E+02 0.  0.
         13    1    3    3    0    0 -0.20645914635E+01 -0.32770160309E+02 -0.26821240031E+02  0.42397358708E+02  0.10566000000E+00 0. -1.
         22    1    1    0    0    0 -0.17893648944E+02  0.95350875394E+01 -0.18801495474E+02  0.27651343530E+02  0.00000000000E+00 0.  1.
</event>
<event>
 5    1  0.1766634E-003  0.9118800E+02  0.7818608E-02  0.1130116E+00
         25   -1    0    0    0    0  0.00000000000E+00  0.00000000000E+00  0.99999998245E-14  0.12500000000E+03  0.12500000000E+03 0.  0.
        -13    1    3    3    0    0  0.10958918270E+01  0.23703794630E+02 -0.22623864648E+02  0.32785992046E+02  0.10566000000E+00 0. -1.
         23    2    1    0    0    0 -0.23015979867E+02 -0.22553262613E+02  0.59012793591E+01  0.92240114747E+02  0.86226612404E+02 0.  0.
         13    1    3    3    0    0 -0.24111871694E+02 -0.46257057243E+02  0.28525144008E+02  0.59454122701E+02  0.10566000000E+00 0.  1.
         22    1    1    0    0    0  0.23015979867E+02  0.22553262613E+02 -0.59012793591E+01  0.32759885253E+02  0.00000000000E+00 0.  1.
</event>
<event>
 5    1  0.1766634E-003  0.9118800E+02  0.7818608E-02  0.1130116E+00
         25   -1    0    0    0    0  0.00000000000E+00  0.00000000000E+00  0.99999998245E-14  0.12500000000E+03  0.12500000000E+03 0.  0.
        -13    1    3    3    0    0  0.20687837115E+02  0.27771179748E+02  0.28882323631E+02  0.45093511855E+02  0.10566000000E+00 0. -1.
         23    2    1    0    0    0 -0.10721822072E+02 -0.68034732245E+01  0.30634431997E+02  0.91838076952E+02  0.85641807770E+02 0.  0.
         13    1    3    3    0    0 -0.31409659186E+02 -0.34574652972E+02  0.17521083661E+01  0.46744565097E+02  0.10566000000E+00 0.  1.
         22    1    1    0    0    0  0.10721822072E+02  0.68034732245E+01 -0.30634431997E+02  0.33161923048E+02  0.00000000000E+00 0.  1.
</event>
<event>
 5    1  0.1766634E-003  0.9118800E+02  0.7818608E-02  0.1130116E+00
         25   -1    0    0    0    0  0.00000000000E+00  0.00000000000E+00  0.99999998245E-14  0.12500000000E+03  0.12500000000E+03 0.  0.
        -13    1    3    3    0    0 -0.29900723586E+02  0.21092515445E+02 -0.22364081467E+02  0.42884854934E+02  0.10566000000E+00 0.  1.
         23    2    1    0    0    0  0.14472160458E+02 -0.74156868545E+01 -0.24413709441E+02  0.95666315463E+02  0.91058107084E+02 0.  0.
         13    1    3    3    0    0  0.44372884044E+02 -0.28508202299E+02 -0.20496279733E+01  0.52781460529E+02  0.10566000000E+00 0. -1.
         22    1    1    0    0    0 -0.14472160458E+02  0.74156868545E+01  0.24413709441E+02  0.29333684537E+02  0.00000000000E+00 0. -1.
</event>
<event>
 5    1  0.1766634E-003  0.9118800E+02  0.7818608E-02  0.1130116E+00
         25   -1    0    0    0    0  0.00000000000E+00  0.00000000000E+00  0.99999998245E-14  0.12500000000E+03  0.12500000000E+03 0.  0.
        -13    1    3    3    0    0 -0.50462765138E+02 -0.27123735265E+02  0.15995070422E+02  0.59481435103E+02  0.10566000000E+00 0.  1.
         23    2    1    0    0    0 -0.29122404004E+02 -0.12760173447E+02 -0.51620535616E+01  0.92788461100E+02  0.87017902037E+02 0.  0.
         13    1    3    3    0    0  0.21340361134E+02  0.14363561818E+02 -0.21157123984E+02  0.33307025996E+02  0.10566000000E+00 0. -1.
         22    1    1    0    0    0  0.29122404004E+02  0.12760173447E+02  0.51620535616E+01  0.32211538900E+02  0.00000000000E+00 0.  1.
</event>
<event>
 5    1  0.1766634E-003  0.9118800E+02  0.7818608E-02  0.1130116E+00
         25   -1    0    0    0    0  0.00000000000E+00  0.00000000000E+00  0.99999998245E-14  0.12500000000E+03  0.12500000000E+03 0.  0.
        -13    1    3    3    0    0  0.27158362233E+02 -0.31860283938E+02  0.71704610944E+01  0.42474474784E+02  0.10566000000E+00 0. -1.
         23    2    1    0    0    0  0.13278663349E+02  0.21274523764E+02  0.11188192616E+02  0.97539047436E+02  0.93593599455E+02 0.  0.
         13    1    3    3    0    0 -0.13879698885E+02  0.53134807703E+02  0.40177315215E+01  0.55064572652E+02  0.10566000000E+00 0.  1.
         22    1    1    0    0    0 -0.13278663349E+02 -0.21274523764E+02 -0.11188192616E+02  0.27460952564E+02  0.00000000000E+00 0.  1.
</event>
<event>
 5    1  0.1766634E-003  0.9118800E+02  0.7818608E-02  0.1130116E+00
         25   -1    0    0    0    0  0.00000000000E+00  0.00000000000E+00  0.99999998245E-14  0.12500000000E+03  0.12500000000E+03 0.  0.
        -13    1    3    3    0    0  0.34513837878E+02 -0.31109305300E+02 -0.92076424673E+01  0.47368615402E+02  0.10566000000E+00 0. -1.
         23    2    1    0    0    0 -0.23807699447E-03 -0.19183434162E+02  0.22289303258E+02  0.95592225755E+02  0.90956343588E+02 0.  0.
         13    1    3    3    0    0 -0.34514075955E+02  0.11925871138E+02  0.31496945725E+02  0.48223610353E+02  0.10566000000E+00 0.  1.
         22    1    1    0    0    0  0.23807699447E-03  0.19183434162E+02 -0.22289303258E+02  0.29407774245E+02  0.00000000000E+00 0. -1.
</event>
<event>
 5    1  0.1766634E-003  0.9118800E+02  0.7818608E-02  0.1130116E+00
         25   -1    0    0    0    0  0.00000000000E+00  0.00000000000E+00  0.99999998245E-14  0.12500000000E+03  0.12500000000E+03 0.  0.
        -13    1    3    3    0    0 -0.22126065383E+02  0.23551428996E+02 -0.40128118199E+02  0.51521933303E+02  0.10566000000E+00 0.  1.
         23    2    1    0    0    0 -0.11682779387E+02  0.27251869568E+02  0.21921222719E+01  0.95268583465E+02  0.90510473793E+02 0.  0.
         13    1    3    3    0    0  0.10443285996E+02  0.37004405714E+01  0.42320240471E+02  0.43746650162E+02  0.10566000000E+00 0. -1.
         22    1    1    0    0    0  0.11682779387E+02 -0.27251869568E+02 -0.21921222719E+01  0.29731416535E+02  0.00000000000E+00 0.  1.
</event>
<event>
 5    1  0.1766634E-003  0.9118800E+02  0.7818608E-02  0.1130116E+00
         25   -1    0    0    0    0  0.00000000000E+00  0.00000000000E+00  0.99999998245E-14  0.12500000000E+03  0.12500000000E+03 0.  0.
        -13    1    3    3    0    0 -0.20683240108E+02  0.22719193155E+02 -0.11721437575E+02  0.32884060301E+02  0.10566000000E+00 0. -1.
         23    2    1    0    0    0  0.19882007259E+02 -0.20406560553E+02  0.82011716408E+01  0.95352383864E+02  0.90626132909E+02 0.  0.
         13    1    3    3    0    0  0.40565247367E+02 -0.43125753709E+02  0.19922609216E+02  0.62468323564E+02  0.10566000000E+00 0.  1.
         22    1    1    0    0    0 -0.19882007259E+02  0.20406560553E+02 -0.82011716408E+01  0.29647616136E+02  0.00000000000E+00 0.  1.
</event>
<event>
 5    1  0.1766634E-003  0.9118800E+02  0.7818608E-02  0.1130116E+00
         25   -1    0    0    0    0  0.00000000000E+00  0.00000000000E+00  0.99999998245E-14  0.12500000000E+03  0.12500000000E+03 0.  0.
        -13    1    3    3    0    0  0.20685646846E+02  0.45272110475E+02 -0.76488468679E+01  0.50358474905E+02  0.10566000000E+00 0.  1.
         23    2    1    0    0    0  0.23863782949E+02  0.81415730437E+01  0.16592873486E+02  0.94815752473E+02  0.89882913383E+02 0.  0.
         13    1    3    3    0    0  0.31781361025E+01 -0.37130537431E+02  0.24241720354E+02  0.44457277568E+02  0.10566000000E+00 0. -1.
         22    1    1    0    0    0 -0.23863782949E+02 -0.81415730437E+01 -0.16592873486E+02  0.30184247527E+02  0.00000000000E+00 0. -1.
</event>
<event>
 5    1  0.1766634E-003  0.9118800E+02  0.7818608E-02  0.1130116E+00
         25   -1    0    0    0    0  0.00000000000E+00  0.00000000000E+00  0.99999998245E-14  0.12500000000E+03  0.12500000000E+03 0.  0.
        -13    1    3    3    0    0  0.28917832771E+02 -0.21802382148E+02 -0.24650444780E+02  0.43809137305E+02  0.10566000000E+00 0.  1.
         23    2    1    0    0    0 -0.18366706958E+02 -0.18537445601E+02  0.30814785029E+01  0.98723236051E+02  0.95162014547E+02 0.  0.
         13    1    3    3    0    0 -0.47284539729E+02  0.32649365469E+01  0.27731923283E+02  0.54914098746E+02  0.10566000000E+00 0. -1.
         22    1    1    0    0    0  0.18366706958E+02  0.18537445601E+02 -0.30814785029E+01  0.26276763949E+02  0.00000000000E+00 0. -1.
</event>
<event>
 5    1  0.1766634E-003  0.9118800E+02  0.7818608E-02  0.1130116E+00
         25   -1    0    0    0    0  0.00000000000E+00  0.00000000000E+00  0.99999998245E-14  0.12500000000E+03  0.12500000000E+03 0.  0.
        -13    1    3    3    0    0  0.12777381941E+02  0.74076774237E+01 -0.47296156754E+02  0.49548691020E+02  0.10566000000E+00 0.  1.
         23    2    1    0    0    0  0.18368643989E+02 -0.19750669567E+02 -0.95451573470E+01  0.96388707489E+02  0.92044428796E+02 0.  0.
         13    1    3    3    0    0  0.55912620483E+01 -0.27158346991E+02  0.37750999407E+02  0.46840016469E+02  0.10566000000E+00 0. -1.
         22    1    1    0    0    0 -0.18368643989E+02  0.19750669567E+02  0.95451573470E+01  0.28611292511E+02  0.00000000000E+00 0.  1.
</event>
<event>
 5    1  0.1766634E-003  0.9118800E+02  0.7818608E-02  0.1130116E+00
         25   -1    0    0    0    0  0.00000000000E+00  0.00000000000E+00  0.99999998245E-14  0.12500000000E+03  0.12500000000E+03 0.  0.
        -13    1    3    3    0    0  0.45810713339E+00  0.25578225997E+02  0.42324024484E+02  0.49454926143E+02  0.10566000000E+00 0.  1.
         23    2    1    0    0    0 -0.24401948014E+02  0.97173687412E+01  0.30641048426E+01  0.98556266137E+02  0.94942438004E+02 0.  0.
         13    1    3    3    0    0 -0.24860055148E+02 -0.15860857256E+02 -0.39259919642E+02  0.49101339993E+02  0.10566000000E+00 0. -1.
         22    1    1    0    0    0  0.24401948014E+02 -0.97173687412E+01 -0.30641048426E+01  0.26443733863E+02  0.00000000000E+00 0. -1.
</event>
<event>
 5    1  0.1766634E-003  0.9118800E+02  0.7818608E-02  0.1130116E+00
         25   -1    0    0    0    0  0.00000000000E+00  0.00000000000E+00  0.99999998245E-14  0.12500000000E+03  0.12500000000E+03 0.  0.
        -13    1    3    3    0    0 -0.42293068108E+02  0.10843360801E+02 -0.12357523150E+02  0.45376223134E+02  0.10566000000E+00 0.  1.
         23    2    1    0    0    0  0.71540514188E+01  0.46038601139E+01 -0.26487452461E+02  0.97179843323E+02  0.93112624444E+02 0.  0.
         13    1    3    3    0    0  0.49447119527E+02 -0.62395006866E+01 -0.14129929310E+02  0.51803620189E+02  0.10566000000E+00 0. -1.
         22    1    1    0    0    0 -0.71540514188E+01 -0.46038601139E+01  0.26487452461E+02  0.27820156677E+02  0.00000000000E+00 0.  1.
</event>
<event>
 5    1  0.1766634E-003  0.9118800E+02  0.7818608E-02  0.1130116E+00
         25   -1    0    0    0    0  0.00000000000E+00  0.00000000000E+00  0.99999998245E-14  0.12500000000E+03  0.12500000000E+03 0.  0.
        -13    1    3    3    0    0 -0.30349023546E+02 -0.34182150301E+01 -0.25415265423E+02  0.39732786269E+02  0.10566000000E+00 0.  1.
         23    2    1    0    0    0  0.10341920667E+02 -0.28917083579E+02  0.47012848986E+00  0.94285604896E+02  0.89142589283E+02 0.  0.
         13    1    3    3    0    0  0.40690944213E+02 -0.25498868549E+02  0.25885393912E+02  0.54552818627E+02  0.10566000000E+00 0. -1.
         22    1    1    0    0    0 -0.10341920667E+02  0.28917083579E+02 -0.47012848986E+00  0.30714395104E+02  0.00000000000E+00 0. -1.
</event>
<event>
 5    1  0.1766634E-003  0.9118800E+02  0.7818608E-02  0.1130116E+00
         25   -1    0    0    0    0  0.00000000000E+00  0.00000000000E+00  0.99999998245E-14  0.12500000000E+03  0.12500000000E+03 0.  0.
        -13    1    3    3    0    0 -0.11900053291E+02  0.31614845921E+02  0.16058543045E+01  0.33818629230E+02  0.10566000000E+00 0. -1.
         23    2    1    0    0    0 -0.23185996905E+01 -0.27418195686E+02 -0.11721679248E+02  0.95091286828E+02  0.90265285171E+02 0.  0.
         13    1    3    3    0    0  0.95814536010E+01 -0.59033041607E+02 -0.13327533553E+02  0.61272657598E+02  0.10566000000E+00 0.  1.
         22    1    1    0    0    0  0.23185996905E+01  0.27418195686E+02  0.11721679248E+02  0.29908713172E+02  0.00000000000E+00 0.  1.
</event>
<event>
 5    1  0.1766634E-003  0.9118800E+02  0.7818608E-02  0.1130116E+00
         25   -1    0    0    0    0  0.00000000000E+00  0.00000000000E+00  0.99999998245E-14  0.12500000000E+03  0.12500000000E+03 0.  0.
        -13    1    3    3    0    0 -0.40374784839E+02 -0.12607268863E+02  0.37032352262E+01  0.42459293378E+02  0.10566000000E+00 0. -1.
         23    2    1    0    0    0  0.42580391611E+01 -0.19649485446E+02 -0.22606766182E+02  0.94746090285E+02  0.89785982042E+02 0.  0.
         13    1    3    3    0    0  0.44632824000E+02 -0.70422165838E+01 -0.26310001408E+02  0.52286796907E+02  0.10566000000E+00 0.  1.
         22    1    1    0    0    0 -0.42580391611E+01  0.19649485446E+02  0.22606766182E+02  0.30253909715E+02  0.00000000000E+00 0.  1.
</event>
<event>
 5    1  0.1766634E-003  0.9118800E+02  0.7818608E-02  0.1130116E+00
         25   -1    0    0    0    0  0.00000000000E+00  0.00000000000E+00  0.99999998245E-14  0.12500000000E+03  0.12500000000E+03 0.  0.
        -13    1    3    3    0    0 -0.69117594409E+01 -0.11557195430E+01 -0.30027424751E+02  0.30834485685E+02  0.10566000000E+00 0.  1.
         23    2    1    0    0    0 -0.52147686749E+01 -0.89716369675E+01  0.30961541797E+02  0.92345733010E+02  0.86379588171E+02 0.  0.
         13    1    3    3    0    0  0.16969907661E+01 -0.78159174245E+01  0.60988966548E+02  0.61511247325E+02  0.10566000000E+00 0. -1.
         22    1    1    0    0    0  0.52147686749E+01  0.89716369675E+01 -0.30961541797E+02  0.32654266990E+02  0.00000000000E+00 0. -1.
</event>
<event>
 5    1  0.1766634E-003  0.9118800E+02  0.7818608E-02  0.1130116E+00
         25   -1    0    0    0    0  0.00000000000E+00  0.00000000000E+00  0.99999998245E-14  0.12500000000E+03  0.12500000000E+03 0.  0.
        -13    1    3    3    0    0 -0.41595899001E+02 -0.40237229341E+01  0.40315122656E+02  0.58066594861E+02  0.10566000000E+00 0.  1.
         23    2    1    0    0    0 -0.10254481014E+02  0.10988141977E+02  0.24522662951E+02  0.96237965246E+02  0.91839486668E+02 0.  0.
         13    1    3    3    0    0  0.31341417987E+02  0.15011864911E+02 -0.15792459704E+02  0.38171370385E+02  0.10566000000E+00 0. -1.
         22    1    1    0    0    0  0.10254481014E+02 -0.10988141977E+02 -0.24522662951E+02  0.28762034754E+02  0.00000000000E+00 0.  1.
</event>
<event>
 5    1  0.1766634E-003  0.9118800E+02  0.7818608E-02  0.1130116E+00
         25   -1    0    0    0    0  0.00000000000E+00  0.00000000000E+00  0.99999998245E-14  0.12500000000E+03  0.12500000000E+03 0.  0.
        -13    1    3    3    0    0  0.92941212092E+01  0.37535803395E+02 -0.63865027501E+01  0.39193313294E+02  0.10566000000E+00 0. -1.
         23    2    1    0    0    0 -0.28569284617E+02 -0.31098538478E+01  0.48168837108E+01  0.95861064138E+02  0.91325056992E+02 0.  0.
         13    1    3    3    0    0 -0.37863405826E+02 -0.40645657243E+02  0.11203386461E+02  0.56667750844E+02  0.10566000000E+00 0.  1.
         22    1    1    0    0    0  0.28569284617E+02  0.31098538478E+01 -0.48168837108E+01  0.29138935862E+02  0.00000000000E+00 0.  1.
</event>
<event>
 5    1  0.1766634E-003  0.9118800E+02  0.7818608E-02  0.1130116E+00
         25   -1    0    0    0    0  0.00000000000E+00  0.00000000000E+00  0.99999998245E-14  0.12500000000E+03  0.12500000000E+03 0.  0.
        -13    1    3    3    0    0  0.17091402857E+02  0.52698269101E+02 -0.17282222343E+02  0.58033697030E+02  0.10566000000E+00 0.  1.
         23    2    1    0    0    0  0.12623381616E+02  0.22354466811E+02  0.83483962133E+01  0.98004302766E+02  0.94212927412E+02 0.  0.
         13    1    3    3    0    0 -0.44680212416E+01 -0.30343802290E+02  0.25630618557E+02  0.39970605736E+02  0.10566000000E+00 0. -1.
         22    1    1    0    0    0 -0.12623381616E+02 -0.22354466811E+02 -0.83483962133E+01  0.26995697234E+02  0.00000000000E+00 0.  1.
</event>
<event>
 5    1  0.1766634E-003  0.9118800E+02  0.7818608E-02  0.1130116E+00
         25   -1    0    0    0    0  0.00000000000E+00  0.00000000000E+00  0.99999998245E-14  0.12500000000E+03  0.12500000000E+03 0.  0.
        -13    1    3    3    0    0  0.22697365458E+02  0.21073564042E+02  0.35367773466E+02  0.47012296947E+02  0.10566000000E+00 0. -1.
         23    2    1    0    0    0  0.15239593987E+02  0.21766198559E+02 -0.12622283595E+02  0.95583428688E+02  0.90944253101E+02 0.  0.
         13    1    3    3    0    0 -0.74577714715E+01  0.69263451729E+00 -0.47990057061E+02  0.48571131741E+02  0.10566000000E+00 0.  1.
         22    1    1    0    0    0 -0.15239593987E+02 -0.21766198559E+02  0.12622283595E+02  0.29416571312E+02  0.00000000000E+00 0.  1.
</event>
<event>
 5    1  0.1766634E-003  0.9118800E+02  0.7818608E-02  0.1130116E+00
         25   -1    0    0    0    0  0.00000000000E+00  0.00000000000E+00  0.99999998245E-14  0.12500000000E+03  0.12500000000E+03 0.  0.
        -13    1    3    3    0    0  0.35943720544E+02 -0.14759298644E+02 -0.15882194535E+01  0.38888578633E+02  0.10566000000E+00 0.  1.
         23    2    1    0    0    0 -0.98715259582E+01  0.74714843081E+01 -0.26627193976E+02  0.95635436977E+02  0.91015708778E+02 0.  0.
         13    1    3    3    0    0 -0.45815246503E+02  0.22230782952E+02 -0.25038974522E+02  0.56746858344E+02  0.10566000000E+00 0. -1.
         22    1    1    0    0    0  0.98715259582E+01 -0.74714843081E+01  0.26627193976E+02  0.29364563023E+02  0.00000000000E+00 0. -1.
</event>
<event>
 5    1  0.1766634E-003  0.9118800E+02  0.7818608E-02  0.1130116E+00
         25   -1    0    0    0    0  0.00000000000E+00  0.00000000000E+00  0.99999998245E-14  0.12500000000E+03  0.12500000000E+03 0.  0.
        -13    1    3    3    0    0 -0.30786908574E+02 -0.22120254160E+02 -0.37932630814E+02  0.53628677293E+02  0.10566000000E+00 0.  1.
         23    2    1    0    0    0 -0.27785912480E+02  0.40212269160E+01 -0.38883904233E+01  0.96656627259E+02  0.92407558212E+02 0.  0.
         13    1    3    3    0    0  0.30009960942E+01  0.26141481076E+02  0.34044240391E+02  0.43027949966E+02  0.10566000000E+00 0. -1.
         22    1    1    0    0    0  0.27785912480E+02 -0.40212269160E+01  0.38883904233E+01  0.28343372741E+02  0.00000000000E+00 0.  1.
</event>
<event>
 5    1  0.1766634E-003  0.9118800E+02  0.7818608E-02  0.1130116E+00
         25   -1    0    0    0    0  0.00000000000E+00  0.00000000000E+00  0.99999998245E-14  0.12500000000E+03  0.12500000000E+03 0.  0.
        -13    1    3    3    0    0 -0.42485340063E+02  0.32073727418E+02  0.18210449022E+02  0.56261529737E+02  0.10566000000E+00 0.  1.
         23    2    1    0    0    0 -0.21182439424E+02  0.16393531284E+02 -0.11332626366E+02  0.95916120818E+02  0.91400384050E+02 0.  0.
         13    1    3    3    0    0  0.21302900638E+02 -0.15680196134E+02 -0.29543075388E+02  0.39654591081E+02  0.10566000000E+00 0. -1.
         22    1    1    0    0    0  0.21182439424E+02 -0.16393531284E+02  0.11332626366E+02  0.29083879182E+02  0.00000000000E+00 0.  1.
</event>
<event>
 5    1  0.1766634E-003  0.9118800E+02  0.7818608E-02  0.1130116E+00
         25   -1    0    0    0    0  0.00000000000E+00  0.00000000000E+00  0.99999998245E-14  0.12500000000E+03  0.12500000000E+03 0.  0.
        -13    1    3    3    0    0 -0.16951057283E+02 -0.10369085902E+02 -0.28460433955E+02  0.34711147350E+02  0.10566000000E+00 0. -1.
         23    2    1    0    0    0  0.20928284775E+02  0.11559036537E+02  0.15309354632E+02  0.96610199568E+02  0.92344733970E+02 0.  0.
         13    1    3    3    0    0  0.37879342058E+02  0.21928122439E+02  0.43769788587E+02  0.61899052218E+02  0.10566000000E+00 0.  1.
         22    1    1    0    0    0 -0.20928284775E+02 -0.11559036537E+02 -0.15309354632E+02  0.28389800432E+02  0.00000000000E+00 0.  1.
</event>
<event>
 5    1  0.1766634E-003  0.9118800E+02  0.7818608E-02  0.1130116E+00
         25   -1    0    0    0    0  0.00000000000E+00  0.00000000000E+00  0.99999998245E-14  0.12500000000E+03  0.12500000000E+03 0.  0.
        -13    1    3    3    0    0  0.55640267011E+02  0.10277346816E+02 -0.16238075037E+02  0.58865519751E+02  0.10566000000E+00 0. -1.
         23    2    1    0    0    0  0.27425310817E+02  0.15202080480E+01  0.72319662925E+01  0.96596478345E+02  0.92326158733E+02 0.  0.
         13    1    3    3    0    0 -0.28214956194E+02 -0.87571387680E+01  0.23470041330E+02  0.37730958594E+02  0.10566000000E+00 0.  1.
         22    1    1    0    0    0 -0.27425310817E+02 -0.15202080480E+01 -0.72319662925E+01  0.28403521655E+02  0.00000000000E+00 0. -1.
</event>
<event>
 5    1  0.1766634E-003  0.9118800E+02  0.7818608E-02  0.1130116E+00
         25   -1    0    0    0    0  0.00000000000E+00  0.00000000000E+00  0.99999998245E-14  0.12500000000E+03  0.12500000000E+03 0.  0.
        -13    1    3    3    0    0 -0.36624112697E+02  0.95186776227E+01  0.35608803894E+02  0.51960840383E+02  0.10566000000E+00 0. -1.
         23    2    1    0    0    0 -0.38131135204E+02 -0.13637287639E+02  0.20988060604E+02  0.79387964593E+02  0.64976850864E+02 0.  0.
         13    1    3    3    0    0 -0.15070225069E+01 -0.23155965262E+02 -0.14620743290E+02  0.27427124210E+02  0.10566000000E+00 0.  1.
         22    1    1    0    0    0  0.38131135204E+02  0.13637287639E+02 -0.20988060604E+02  0.45612035407E+02  0.00000000000E+00 0. -1.
</event>
<event>
 5    1  0.1766634E-003  0.9118800E+02  0.7818608E-02  0.1130116E+00
         25   -1    0    0    0    0  0.00000000000E+00  0.00000000000E+00  0.99999998245E-14  0.12500000000E+03  0.12500000000E+03 0.  0.
        -13    1    3    3    0    0  0.26967824608E+01  0.84524735849E+01  0.40397269488E+02  0.41360216289E+02  0.10566000000E+00 0. -1.
         23    2    1    0    0    0  0.99479215559E+01  0.27819755572E+02 -0.83374403313E+01  0.94301256465E+02  0.89164533959E+02 0.  0.
         13    1    3    3    0    0  0.72511390952E+01  0.19367281987E+02 -0.48734709819E+02  0.52941040176E+02  0.10566000000E+00 0.  1.
         22    1    1    0    0    0 -0.99479215559E+01 -0.27819755572E+02  0.83374403313E+01  0.30698743535E+02  0.00000000000E+00 0.  1.
</event>
<event>
 5    1  0.1766634E-003  0.9118800E+02  0.7818608E-02  0.1130116E+00
         25   -1    0    0    0    0  0.00000000000E+00  0.00000000000E+00  0.99999998245E-14  0.12500000000E+03  0.12500000000E+03 0.  0.
        -13    1    3    3    0    0 -0.40793891685E+02  0.48335283529E+01  0.59855021248E+01  0.41513154480E+02  0.10566000000E+00 0.  1.
         23    2    1    0    0    0 -0.16642040596E+02 -0.33466577860E+02 -0.23367271144E+01  0.87550972743E+02  0.79137495448E+02 0.  0.
         13    1    3    3    0    0  0.24151851089E+02 -0.38300106213E+02 -0.83222292393E+01  0.46037818264E+02  0.10566000000E+00 0. -1.
         22    1    1    0    0    0  0.16642040596E+02  0.33466577860E+02  0.23367271144E+01  0.37449027257E+02  0.00000000000E+00 0. -1.
</event>
<event>
 5    1  0.1766634E-003  0.9118800E+02  0.7818608E-02  0.1130116E+00
         25   -1    0    0    0    0  0.00000000000E+00  0.00000000000E+00  0.99999998245E-14  0.12500000000E+03  0.12500000000E+03 0.  0.
        -13    1    3    3    0    0  0.17288770912E+02  0.36604928624E+02 -0.10351991930E+02  0.41785132526E+02  0.10566000000E+00 0.  1.
         23    2    1    0    0    0  0.16440496451E+02 -0.71148164294E+01  0.22326747365E+02  0.96374937829E+02  0.92025727149E+02 0.  0.
         13    1    3    3    0    0 -0.84827446096E+00 -0.43719745054E+02  0.32678739295E+02  0.54589805304E+02  0.10566000000E+00 0. -1.
         22    1    1    0    0    0 -0.16440496451E+02  0.71148164294E+01 -0.22326747365E+02  0.28625062171E+02  0.00000000000E+00 0. -1.
</event>
<event>
 5    1  0.1766634E-003  0.9118800E+02  0.7818608E-02  0.1130116E+00
         25   -1    0    0    0    0  0.00000000000E+00  0.00000000000E+00  0.99999998245E-14  0.12500000000E+03  0.12500000000E+03 0.  0.
        -13    1    3    3    0    0 -0.70224907981E+01  0.30178772954E+02 -0.34324150765E+02  0.46241022953E+02  0.10566000000E+00 0. -1.
         23    2    1    0    0    0 -0.26002464510E+02 -0.84643053789E+01 -0.88878749965E+01  0.96246444601E+02  0.91851026942E+02 0.  0.
         13    1    3    3    0    0 -0.18979973712E+02 -0.38643078333E+02  0.25436275769E+02  0.50005421647E+02  0.10566000000E+00 0.  1.
         22    1    1    0    0    0  0.26002464510E+02  0.84643053789E+01  0.88878749965E+01  0.28753555399E+02  0.00000000000E+00 0. -1.
</event>
<event>
 5    1  0.1766634E-003  0.9118800E+02  0.7818608E-02  0.1130116E+00
         25   -1    0    0    0    0  0.00000000000E+00  0.00000000000E+00  0.99999998245E-14  0.12500000000E+03  0.12500000000E+03 0.  0.
        -13    1    3    3    0    0  0.56050345932E+00 -0.77741401298E+01 -0.38213061470E+02  0.39000008331E+02  0.10566000000E+00 0.  1.
         23    2    1    0    0    0  0.51744250068E+01 -0.26510736350E+02  0.13936790073E+02  0.94605462111E+02  0.89589985644E+02 0.  0.
         13    1    3    3    0    0  0.46139215474E+01 -0.18736596220E+02  0.52149851543E+02  0.55605453779E+02  0.10566000000E+00 0. -1.
         22    1    1    0    0    0 -0.51744250068E+01  0.26510736350E+02 -0.13936790073E+02  0.30394537889E+02  0.00000000000E+00 0. -1.
</event>
<event>
 5    1  0.1766634E-003  0.9118800E+02  0.7818608E-02  0.1130116E+00
         25   -1    0    0    0    0  0.00000000000E+00  0.00000000000E+00  0.99999998245E-14  0.12500000000E+03  0.12500000000E+03 0.  0.
        -13    1    3    3    0    0 -0.16310456671E+02 -0.37060202524E+02  0.12011940355E+00  0.40490927387E+02  0.10566000000E+00 0. -1.
         23    2    1    0    0    0 -0.24764221247E+02  0.15014579763E+02 -0.10291949481E+02  0.94265191011E+02  0.89113959360E+02 0.  0.
         13    1    3    3    0    0 -0.84537645764E+01  0.52074782288E+02 -0.10412068884E+02  0.53774263624E+02  0.10566000000E+00 0.  1.
         22    1    1    0    0    0  0.24764221247E+02 -0.15014579763E+02  0.10291949481E+02  0.30734808989E+02  0.00000000000E+00 0.  1.
</event>
<event>
 5    1  0.1766634E-003  0.9118800E+02  0.7818608E-02  0.1130116E+00
         25   -1    0    0    0    0  0.00000000000E+00  0.00000000000E+00  0.99999998245E-14  0.12500000000E+03  0.12500000000E+03 0.  0.
        -13    1    3    3    0    0  0.22340145068E+02  0.37199838892E+01 -0.37557487030E+02  0.43857682997E+02  0.10566000000E+00 0. -1.
         23    2    1    0    0    0 -0.13306794524E+02  0.24546317151E+02 -0.45606970561E+01  0.96708792465E+02  0.92478095332E+02 0.  0.
         13    1    3    3    0    0 -0.35646939592E+02  0.20826333261E+02  0.32996789974E+02  0.52851109468E+02  0.10566000000E+00 0.  1.
         22    1    1    0    0    0  0.13306794524E+02 -0.24546317151E+02  0.45606970561E+01  0.28291207535E+02  0.00000000000E+00 0.  1.
</event>
<event>
 5    1  0.1766634E-003  0.9118800E+02  0.7818608E-02  0.1130116E+00
         25   -1    0    0    0    0  0.00000000000E+00  0.00000000000E+00  0.99999998245E-14  0.12500000000E+03  0.12500000000E+03 0.  0.
        -13    1    3    3    0    0  0.62967711746E+00  0.19915491554E+02  0.54851001794E+02  0.58358091632E+02  0.10566000000E+00 0. -1.
         23    2    1    0    0    0 -0.15521163931E+02  0.69591057512E+01  0.27533358328E+02  0.92636108030E+02  0.86798773076E+02 0.  0.
         13    1    3    3    0    0 -0.16150841048E+02 -0.12956385803E+02 -0.27317643465E+02  0.34278016398E+02  0.10566000000E+00 0.  1.
         22    1    1    0    0    0  0.15521163931E+02 -0.69591057512E+01 -0.27533358328E+02  0.32363891970E+02  0.00000000000E+00 0. -1.
</event>
<event>
 5    1  0.1766634E-003  0.9118800E+02  0.7818608E-02  0.1130116E+00
         25   -1    0    0    0    0  0.00000000000E+00  0.00000000000E+00  0.99999998245E-14  0.12500000000E+03  0.12500000000E+03 0.  0.
        -13    1    3    3    0    0 -0.42261772234E+01 -0.20468441856E+02  0.33092678188E+02  0.39140186505E+02  0.10566000000E+00 0. -1.
         23    2    1    0    0    0 -0.21288410723E+02  0.10916979570E+02 -0.13248370825E+02  0.97652308991E+02  0.93744745174E+02 0.  0.
         13    1    3    3    0    0 -0.17062233499E+02  0.31385421426E+02 -0.46341049013E+02  0.58512122485E+02  0.10566000000E+00 0.  1.
         22    1    1    0    0    0  0.21288410723E+02 -0.10916979570E+02  0.13248370825E+02  0.27347691009E+02  0.00000000000E+00 0.  1.
</event>
<event>
 5    1  0.1766634E-003  0.9118800E+02  0.7818608E-02  0.1130116E+00
         25   -1    0    0    0    0  0.00000000000E+00  0.00000000000E+00  0.99999998245E-14  0.12500000000E+03  0.12500000000E+03 0.  0.
        -13    1    3    3    0    0  0.44629911234E+02 -0.32316937989E+02 -0.19326635948E+02  0.58393008818E+02  0.10566000000E+00 0.  1.
         23    2    1    0    0    0  0.14740993417E+02 -0.25287692519E+02  0.18166725180E+01  0.95673142363E+02  0.91067478228E+02 0.  0.
         13    1    3    3    0    0 -0.29888917817E+02  0.70292454704E+01  0.21143308466E+02  0.37280133545E+02  0.10566000000E+00 0. -1.
         22    1    1    0    0    0 -0.14740993417E+02  0.25287692519E+02 -0.18166725180E+01  0.29326857637E+02  0.00000000000E+00 0.  1.
</event>
<event>
 5    1  0.1766634E-003  0.9118800E+02  0.7818608E-02  0.1130116E+00
         25   -1    0    0    0    0  0.00000000000E+00  0.00000000000E+00  0.99999998245E-14  0.12500000000E+03  0.12500000000E+03 0.  0.
        -13    1    3    3    0    0  0.50094303581E+01 -0.14501497569E+02  0.31275160765E+02  0.34835824508E+02  0.10566000000E+00 0. -1.
         23    2    1    0    0    0 -0.19408005663E+02  0.39239423425E+00 -0.22218671422E+02  0.95495864411E+02  0.90823819028E+02 0.  0.
         13    1    3    3    0    0 -0.24417436022E+02  0.14893891804E+02 -0.53493832187E+02  0.60660039903E+02  0.10566000000E+00 0.  1.
         22    1    1    0    0    0  0.19408005663E+02 -0.39239423425E+00  0.22218671422E+02  0.29504135589E+02  0.00000000000E+00 0.  1.
</event>
<event>
 5    1  0.1766634E-003  0.9118800E+02  0.7818608E-02  0.1130116E+00
         25   -1    0    0    0    0  0.00000000000E+00  0.00000000000E+00  0.99999998245E-14  0.12500000000E+03  0.12500000000E+03 0.  0.
        -13    1    3    3    0    0  0.25544769230E+02  0.35049367178E+02  0.43481815455E+02  0.61413946412E+02  0.10566000000E+00 0. -1.
         23    2    1    0    0    0  0.58997752755E+01  0.21784915591E+02  0.18911963485E+02  0.95554248889E+02  0.90904137543E+02 0.  0.
         13    1    3    3    0    0 -0.19644993955E+02 -0.13264451587E+02 -0.24569851970E+02  0.34140302477E+02  0.10566000000E+00 0.  1.
         22    1    1    0    0    0 -0.58997752755E+01 -0.21784915591E+02 -0.18911963485E+02  0.29445751111E+02  0.00000000000E+00 0. -1.
</event>
<event>
 5    1  0.1766634E-003  0.9118800E+02  0.7818608E-02  0.1130116E+00
         25   -1    0    0    0    0  0.00000000000E+00  0.00000000000E+00  0.99999998245E-14  0.12500000000E+03  0.12500000000E+03 0.  0.
        -13    1    3    3    0    0  0.41785184434E+02  0.13138319852E+02 -0.41529591326E+02  0.60360046442E+02  0.10566000000E+00 0. -1.
         23    2    1    0    0    0  0.20780202398E+02 -0.54505355497E+01 -0.18262386143E+02  0.96803548146E+02  0.92606085311E+02 0.  0.
         13    1    3    3    0    0 -0.21004982035E+02 -0.18588855402E+02  0.23267205183E+02  0.36443501705E+02  0.10566000000E+00 0.  1.
         22    1    1    0    0    0 -0.20780202398E+02  0.54505355497E+01  0.18262386143E+02  0.28196451854E+02  0.00000000000E+00 0. -1.
</event>
<event>
 5    1  0.1766634E-003  0.9118800E+02  0.7818608E-02  0.1130116E+00
         25   -1    0    0    0    0  0.00000000000E+00  0.00000000000E+00  0.99999998245E-14  0.12500000000E+03  0.12500000000E+03 0.  0.
        -13    1    3    3    0    0 -0.31912059375E+02  0.16132685262E+02  0.95693816720E+01  0.37016581378E+02  0.10566000000E+00 0.  1.
         23    2    1    0    0    0  0.14246420124E+02  0.98793151113E+01 -0.24684495790E+02  0.94835688541E+02  0.89910634160E+02 0.  0.
         13    1    3    3    0    0  0.46158479499E+02 -0.62533701507E+01 -0.34253877462E+02  0.57819107163E+02  0.10566000000E+00 0. -1.
         22    1    1    0    0    0 -0.14246420124E+02 -0.98793151113E+01  0.24684495790E+02  0.30164311459E+02  0.00000000000E+00 0. -1.
</event>
<event>
 5    1  0.1766634E-003  0.9118800E+02  0.7818608E-02  0.1130116E+00
         25   -1    0    0    0    0  0.00000000000E+00  0.00000000000E+00  0.99999998245E-14  0.12500000000E+03  0.12500000000E+03 0.  0.
        -13    1    3    3    0    0 -0.21965437836E+02  0.34140424955E+02 -0.15178236341E+02  0.43340963278E+02  0.10566000000E+00 0. -1.
         23    2    1    0    0    0 -0.39840107868E+01 -0.87845626067E+00  0.25046603160E+02  0.99623310752E+02  0.96337052519E+02 0.  0.
         13    1    3    3    0    0  0.17981427049E+02 -0.35018881215E+02  0.40224839501E+02  0.56282347474E+02  0.10566000000E+00 0.  1.
         22    1    1    0    0    0  0.39840107868E+01  0.87845626067E+00 -0.25046603160E+02  0.25376689248E+02  0.00000000000E+00 0.  1.
</event>
<event>
 5    1  0.1766634E-003  0.9118800E+02  0.7818608E-02  0.1130116E+00
         25   -1    0    0    0    0  0.00000000000E+00  0.00000000000E+00  0.99999998245E-14  0.12500000000E+03  0.12500000000E+03 0.  0.
        -13    1    3    3    0    0 -0.31482851432E+01 -0.39719144255E+02  0.19141414148E+01  0.39889813500E+02  0.10566000000E+00 0. -1.
         23    2    1    0    0    0  0.19843948130E+02  0.25538930479E+01 -0.23358654516E+02  0.94244002408E+02  0.89084233184E+02 0.  0.
         13    1    3    3    0    0  0.22992233273E+02  0.42273037303E+02 -0.25272795931E+02  0.54354188908E+02  0.10566000000E+00 0.  1.
         22    1    1    0    0    0 -0.19843948130E+02 -0.25538930479E+01  0.23358654516E+02  0.30755997592E+02  0.00000000000E+00 0.  1.
</event>
<event>
 5    1  0.1766634E-003  0.9118800E+02  0.7818608E-02  0.1130116E+00
         25   -1    0    0    0    0  0.00000000000E+00  0.00000000000E+00  0.99999998245E-14  0.12500000000E+03  0.12500000000E+03 0.  0.
        -13    1    3    3    0    0  0.22538969160E+02 -0.62340108959E+01  0.47073614013E+02  0.52562385058E+02  0.10566000000E+00 0.  1.
         23    2    1    0    0    0  0.28382324898E+02  0.24147925319E+01  0.47902014159E+01  0.96115166277E+02  0.91672196272E+02 0.  0.
         13    1    3    3    0    0  0.58433557377E+01  0.86488034278E+01 -0.42283412598E+02  0.43552781219E+02  0.10566000000E+00 0. -1.
         22    1    1    0    0    0 -0.28382324898E+02 -0.24147925319E+01 -0.47902014159E+01  0.28884833723E+02  0.00000000000E+00 0. -1.
</event>
<event>
 5    1  0.1766634E-003  0.9118800E+02  0.7818608E-02  0.1130116E+00
         25   -1    0    0    0    0  0.00000000000E+00  0.00000000000E+00  0.99999998245E-14  0.12500000000E+03  0.12500000000E+03 0.  0.
        -13    1    3    3    0    0 -0.14677249461E+02 -0.11223652379E+02 -0.34891421357E+02  0.39481824588E+02  0.10566000000E+00 0.  1.
         23    2    1    0    0    0  0.80240210081E+01  0.28428725463E+02 -0.27760694170E+01  0.95330421202E+02  0.90595834897E+02 0.  0.
         13    1    3    3    0    0  0.22701270469E+02  0.39652377843E+02  0.32115351940E+02  0.55848596614E+02  0.10566000000E+00 0. -1.
         22    1    1    0    0    0 -0.80240210081E+01 -0.28428725463E+02  0.27760694170E+01  0.29669578798E+02  0.00000000000E+00 0. -1.
</event>
<event>
 5    1  0.1766634E-003  0.9118800E+02  0.7818608E-02  0.1130116E+00
         25   -1    0    0    0    0  0.00000000000E+00  0.00000000000E+00  0.99999998245E-14  0.12500000000E+03  0.12500000000E+03 0.  0.
        -13    1    3    3    0    0 -0.38113181750E+02 -0.60086301170E+01 -0.19917307412E+02  0.43421521825E+02  0.10566000000E+00 0. -1.
         23    2    1    0    0    0  0.44135538364E+00 -0.29548097907E+02  0.50275325022E+01  0.95023993469E+02  0.90172048703E+02 0.  0.
         13    1    3    3    0    0  0.38554537134E+02 -0.23539467790E+02  0.24944839914E+02  0.51602471644E+02  0.10566000000E+00 0.  1.
         22    1    1    0    0    0 -0.44135538364E+00  0.29548097907E+02 -0.50275325022E+01  0.29976006531E+02  0.00000000000E+00 0. -1.
</event>
<event>
 5    1  0.1766634E-003  0.9118800E+02  0.7818608E-02  0.1130116E+00
         25   -1    0    0    0    0  0.00000000000E+00  0.00000000000E+00  0.99999998245E-14  0.12500000000E+03  0.12500000000E+03 0.  0.
        -13    1    3    3    0    0 -0.95222287379E+01  0.48173342987E+02 -0.36886061470E+02  0.61416093245E+02  0.10566000000E+00 0.  1.
         23    2    1    0    0    0 -0.10204516316E+02  0.24743296836E+02 -0.11799309427E+02  0.95749588131E+02  0.91172347961E+02 0.  0.
         13    1    3    3    0    0 -0.68228757829E+00 -0.23430046151E+02  0.25086752044E+02  0.34333494886E+02  0.10566000000E+00 0. -1.
         22    1    1    0    0    0  0.10204516316E+02 -0.24743296836E+02  0.11799309427E+02  0.29250411869E+02  0.00000000000E+00 0.  1.
</event>
<event>
 5    1  0.1766634E-003  0.9118800E+02  0.7818608E-02  0.1130116E+00
         25   -1    0    0    0    0  0.00000000000E+00  0.00000000000E+00  0.99999998245E-14  0.12500000000E+03  0.12500000000E+03 0.  0.
        -13    1    3    3    0    0  0.52859835702E+01  0.39739163251E+02 -0.34464256446E+02  0.52867181263E+02  0.10566000000E+00 0. -1.
         23    2    1    0    0    0 -0.13928973874E+02  0.23745009416E+00 -0.22739699471E+02  0.98332292416E+02  0.94647097705E+02 0.  0.
         13    1    3    3    0    0 -0.19214957444E+02 -0.39501713157E+02  0.11724556975E+02  0.45465111154E+02  0.10566000000E+00 0.  1.
         22    1    1    0    0    0  0.13928973874E+02 -0.23745009416E+00  0.22739699471E+02  0.26667707584E+02  0.00000000000E+00 0. -1.
</event>
<event>
 5    1  0.1766634E-003  0.9118800E+02  0.7818608E-02  0.1130116E+00
         25   -1    0    0    0    0  0.00000000000E+00  0.00000000000E+00  0.99999998245E-14  0.12500000000E+03  0.12500000000E+03 0.  0.
        -13    1    3    3    0    0  0.46399924972E+02 -0.98061141848E+01 -0.23285763940E+02  0.52833236501E+02  0.10566000000E+00 0.  1.
         23    2    1    0    0    0  0.13886009778E+02 -0.27171977582E+02 -0.46639064150E+01  0.94131089162E+02  0.88925655975E+02 0.  0.
         13    1    3    3    0    0 -0.32513915194E+02 -0.17365863397E+02  0.18621857525E+02  0.41297852662E+02  0.10566000000E+00 0. -1.
         22    1    1    0    0    0 -0.13886009778E+02  0.27171977582E+02  0.46639064150E+01  0.30868910838E+02  0.00000000000E+00 0.  1.
</event>
<event>
 5    1  0.1766634E-003  0.9118800E+02  0.7818608E-02  0.1130116E+00
         25   -1    0    0    0    0  0.00000000000E+00  0.00000000000E+00  0.99999998245E-14  0.12500000000E+03  0.12500000000E+03 0.  0.
        -13    1    3    3    0    0  0.28919237046E+02 -0.49582648113E+02 -0.13175696421E+02  0.58892880770E+02  0.10566000000E+00 0. -1.
         23    2    1    0    0    0  0.95812521566E+00 -0.26734389500E+02 -0.13568293812E+02  0.95004263923E+02  0.90144694690E+02 0.  0.
         13    1    3    3    0    0 -0.27961111830E+02  0.22848258613E+02 -0.39259739082E+00  0.36111383153E+02  0.10566000000E+00 0.  1.
         22    1    1    0    0    0 -0.95812521566E+00  0.26734389500E+02  0.13568293812E+02  0.29995736077E+02  0.00000000000E+00 0. -1.
</event>
<event>
 5    1  0.1766634E-003  0.9118800E+02  0.7818608E-02  0.1130116E+00
         25   -1    0    0    0    0  0.00000000000E+00  0.00000000000E+00  0.99999998245E-14  0.12500000000E+03  0.12500000000E+03 0.  0.
        -13    1    3    3    0    0 -0.32556200467E+02  0.40446701017E+02  0.96966985627E+01  0.52819304606E+02  0.10566000000E+00 0. -1.
         23    2    1    0    0    0 -0.22610619591E+02  0.96978394536E+00  0.19982575454E+02  0.94809208010E+02  0.89873811550E+02 0.  0.
         13    1    3    3    0    0  0.99455808761E+01 -0.39476917072E+02  0.10285876892E+02  0.41989903404E+02  0.10566000000E+00 0.  1.
         22    1    1    0    0    0  0.22610619591E+02 -0.96978394536E+00 -0.19982575454E+02  0.30190791990E+02  0.00000000000E+00 0. -1.
</event>
<event>
 5    1  0.1766634E-003  0.9118800E+02  0.7818608E-02  0.1130116E+00
         25   -1    0    0    0    0  0.00000000000E+00  0.00000000000E+00  0.99999998245E-14  0.12500000000E+03  0.12500000000E+03 0.  0.
        -13    1    3    3    0    0 -0.19950610928E+02 -0.19462952694E+02 -0.54318124299E+02  0.61051643674E+02  0.10566000000E+00 0.  1.
         23    2    1    0    0    0 -0.10968517765E+02 -0.17081037136E+02 -0.20395408983E+02  0.96224265097E+02  0.91820837909E+02 0.  0.
         13    1    3    3    0    0  0.89820931625E+01  0.23819155576E+01  0.33922715316E+02  0.35172621423E+02  0.10566000000E+00 0. -1.
         22    1    1    0    0    0  0.10968517765E+02  0.17081037136E+02  0.20395408983E+02  0.28775734903E+02  0.00000000000E+00 0.  1.
</event>
<event>
 5    1  0.1766634E-003  0.9118800E+02  0.7818608E-02  0.1130116E+00
         25   -1    0    0    0    0  0.00000000000E+00  0.00000000000E+00  0.99999998245E-14  0.12500000000E+03  0.12500000000E+03 0.  0.
        -13    1    3    3    0    0 -0.15299846233E+02 -0.58228111491E+02  0.11072770660E+01  0.60214910854E+02  0.10566000000E+00 0. -1.
         23    2    1    0    0    0 -0.18857000458E+02 -0.24805324182E+02  0.92658032203E+00  0.93827109131E+02  0.88497329241E+02 0.  0.
         13    1    3    3    0    0 -0.35571542249E+01  0.33422787309E+02 -0.18069674398E+00  0.33612198278E+02  0.10566000000E+00 0.  1.
         22    1    1    0    0    0  0.18857000458E+02  0.24805324182E+02 -0.92658032203E+00  0.31172890869E+02  0.00000000000E+00 0. -1.
</event>
<event>
 5    1  0.1766634E-003  0.9118800E+02  0.7818608E-02  0.1130116E+00
         25   -1    0    0    0    0  0.00000000000E+00  0.00000000000E+00  0.99999998245E-14  0.12500000000E+03  0.12500000000E+03 0.  0.
        -13    1    3    3    0    0 -0.35739607446E+02  0.11362631544E+02 -0.48710232679E+02  0.61474603436E+02  0.10566000000E+00 0.  1.
         23    2    1    0    0    0 -0.21846113857E+02  0.10747086701E+02 -0.19571049194E+02  0.93762546042E+02  0.88406088651E+02 0.  0.
         13    1    3    3    0    0  0.13893493589E+02 -0.61554484209E+00  0.29139183484E+02  0.32287942606E+02  0.10566000000E+00 0. -1.
         22    1    1    0    0    0  0.21846113857E+02 -0.10747086701E+02  0.19571049194E+02  0.31237453958E+02  0.00000000000E+00 0.  1.
</event>
<event>
 5    1  0.1766634E-003  0.9118800E+02  0.7818608E-02  0.1130116E+00
         25   -1    0    0    0    0  0.00000000000E+00  0.00000000000E+00  0.99999998245E-14  0.12500000000E+03  0.12500000000E+03 0.  0.
        -13    1    3    3    0    0  0.11629402497E+02 -0.24423284443E+02  0.55404437882E+02  0.61655516594E+02  0.10566000000E+00 0.  1.
         23    2    1    0    0    0  0.10934670256E+02 -0.14460501083E+02  0.22153972768E+02  0.96373585370E+02  0.92023890063E+02 0.  0.
         13    1    3    3    0    0 -0.69473224080E+00  0.99627833601E+01 -0.33250465114E+02  0.34718068776E+02  0.10566000000E+00 0. -1.
         22    1    1    0    0    0 -0.10934670256E+02  0.14460501083E+02 -0.22153972768E+02  0.28626414630E+02  0.00000000000E+00 0.  1.
</event>
<event>
 5    1  0.1766634E-003  0.9118800E+02  0.7818608E-02  0.1130116E+00
         25   -1    0    0    0    0  0.00000000000E+00  0.00000000000E+00  0.99999998245E-14  0.12500000000E+03  0.12500000000E+03 0.  0.
        -13    1    3    3    0    0  0.42175690325E+02  0.91798060119E+01  0.50433965142E+01  0.43456929312E+02  0.10566000000E+00 0.  1.
         23    2    1    0    0    0  0.62562184550E+00 -0.13881425312E+02  0.26098036462E+02  0.95433247074E+02  0.90737598429E+02 0.  0.
         13    1    3    3    0    0 -0.41550068479E+02 -0.23061231324E+02  0.21054639948E+02  0.51976317763E+02  0.10566000000E+00 0. -1.
         22    1    1    0    0    0 -0.62562184550E+00  0.13881425312E+02 -0.26098036462E+02  0.29566752926E+02  0.00000000000E+00 0. -1.
</event>
<event>
 5    1  0.1766634E-003  0.9118800E+02  0.7818608E-02  0.1130116E+00
         25   -1    0    0    0    0  0.00000000000E+00  0.00000000000E+00  0.99999998245E-14  0.12500000000E+03  0.12500000000E+03 0.  0.
        -13    1    3    3    0    0 -0.19605750366E+01 -0.33270231633E+02 -0.15761300258E+02  0.36867084468E+02  0.10566000000E+00 0.  1.
         23    2    1    0    0    0  0.24102830330E+02  0.11547574691E+02  0.12029576464E+02  0.95691236446E+02  0.91092310936E+02 0.  0.
         13    1    3    3    0    0  0.26063405366E+02  0.44817806323E+02  0.27790876722E+02  0.58824151978E+02  0.10566000000E+00 0. -1.
         22    1    1    0    0    0 -0.24102830330E+02 -0.11547574691E+02 -0.12029576464E+02  0.29308763554E+02  0.00000000000E+00 0. -1.
</event>
<event>
 5    1  0.1766634E-003  0.9118800E+02  0.7818608E-02  0.1130116E+00
         25   -1    0    0    0    0  0.00000000000E+00  0.00000000000E+00  0.99999998245E-14  0.12500000000E+03  0.12500000000E+03 0.  0.
        -13    1    3    3    0    0  0.10053316777E+02  0.22826960913E+02 -0.40691592274E+02  0.47727939077E+02  0.10566000000E+00 0.  1.
         23    2    1    0    0    0 -0.18341890737E+02 -0.11307039077E+01  0.43507572802E+01  0.10611528300E+03  0.10442136156E+03 0.  0.
         13    1    3    3    0    0 -0.28395207513E+02 -0.23957664821E+02  0.45042349554E+02  0.58387343926E+02  0.10566000000E+00 0. -1.
         22    1    1    0    0    0  0.18341890737E+02  0.11307039077E+01 -0.43507572802E+01  0.18884716996E+02  0.00000000000E+00 0.  1.
</event>
<event>
 5    1  0.1766634E-003  0.9118800E+02  0.7818608E-02  0.1130116E+00
         25   -1    0    0    0    0  0.00000000000E+00  0.00000000000E+00  0.99999998245E-14  0.12500000000E+03  0.12500000000E+03 0.  0.
        -13    1    3    3    0    0 -0.30011314204E+02 -0.22752445452E+02 -0.25282728868E+02  0.45360558829E+02  0.10566000000E+00 0.  1.
         23    2    1    0    0    0  0.17475231120E+02 -0.42905035112E+01 -0.22228224714E+02  0.96401292040E+02  0.92061517530E+02 0.  0.
         13    1    3    3    0    0  0.47486545323E+02  0.18461941941E+02  0.30545041534E+01  0.51040733210E+02  0.10566000000E+00 0. -1.
         22    1    1    0    0    0 -0.17475231120E+02  0.42905035112E+01  0.22228224714E+02  0.28598707960E+02  0.00000000000E+00 0. -1.
</event>
<event>
 5    1  0.1766634E-003  0.9118800E+02  0.7818608E-02  0.1130116E+00
         25   -1    0    0    0    0  0.00000000000E+00  0.00000000000E+00  0.99999998245E-14  0.12500000000E+03  0.12500000000E+03 0.  0.
        -13    1    3    3    0    0 -0.34653743477E+02  0.14523872769E+02 -0.27362627282E+02  0.46481709876E+02  0.10566000000E+00 0.  1.
         23    2    1    0    0    0 -0.20352369825E+02 -0.20552188721E+02  0.41806337855E+01  0.95775196878E+02  0.91207451556E+02 0.  0.
         13    1    3    3    0    0  0.14301373653E+02 -0.35076061490E+02  0.31543261067E+02  0.49293487002E+02  0.10566000000E+00 0. -1.
         22    1    1    0    0    0  0.20352369825E+02  0.20552188721E+02 -0.41806337855E+01  0.29224803122E+02  0.00000000000E+00 0.  1.
</event>
<event>
 5    1  0.1766634E-003  0.9118800E+02  0.7818608E-02  0.1130116E+00
         25   -1    0    0    0    0  0.00000000000E+00  0.00000000000E+00  0.99999998245E-14  0.12500000000E+03  0.12500000000E+03 0.  0.
        -13    1    3    3    0    0  0.23460522415E+02 -0.18987045072E+02 -0.52140837185E+02  0.60246012805E+02  0.10566000000E+00 0. -1.
         23    2    1    0    0    0  0.20638258395E+02 -0.10088639428E+02 -0.17503710501E+02  0.96119241070E+02  0.91677752304E+02 0.  0.
         13    1    3    3    0    0 -0.28222640202E+01  0.88984056440E+01  0.34637126684E+02  0.35873228265E+02  0.10566000000E+00 0.  1.
         22    1    1    0    0    0 -0.20638258395E+02  0.10088639428E+02  0.17503710501E+02  0.28880758930E+02  0.00000000000E+00 0. -1.
</event>
<event>
 5    1  0.1766634E-003  0.9118800E+02  0.7818608E-02  0.1130116E+00
         25   -1    0    0    0    0  0.00000000000E+00  0.00000000000E+00  0.99999998245E-14  0.12500000000E+03  0.12500000000E+03 0.  0.
        -13    1    3    3    0    0  0.16605598633E+02  0.27320580186E+02  0.98583178570E+01  0.33456802039E+02  0.10566000000E+00 0. -1.
         23    2    1    0    0    0  0.74742580199E+01 -0.29908960945E+02 -0.61134739576E+01  0.93570952264E+02  0.88134772173E+02 0.  0.
         13    1    3    3    0    0 -0.91313406128E+01 -0.57229541131E+02 -0.15971791815E+02  0.60114150225E+02  0.10566000000E+00 0.  1.
         22    1    1    0    0    0 -0.74742580199E+01  0.29908960945E+02  0.61134739576E+01  0.31429047736E+02  0.00000000000E+00 0.  1.
</event>
<event>
 5    1  0.1766634E-003  0.9118800E+02  0.7818608E-02  0.1130116E+00
         25   -1    0    0    0    0  0.00000000000E+00  0.00000000000E+00  0.99999998245E-14  0.12500000000E+03  0.12500000000E+03 0.  0.
        -13    1    3    3    0    0  0.34542653867E+02  0.26142454678E+02 -0.33228070358E+02  0.54596141773E+02  0.10566000000E+00 0.  1.
         23    2    1    0    0    0  0.14318688316E+02 -0.12140315919E+02 -0.99858575329E+01  0.10373666404E+03  0.10153406329E+03 0.  0.
         13    1    3    3    0    0 -0.20223965552E+02 -0.38282770596E+02  0.23242212825E+02  0.49140522262E+02  0.10566000000E+00 0. -1.
         22    1    1    0    0    0 -0.14318688316E+02  0.12140315919E+02  0.99858575329E+01  0.21263335965E+02  0.00000000000E+00 0.  1.
</event>
<event>
 5    1  0.1766634E-003  0.9118800E+02  0.7818608E-02  0.1130116E+00
         25   -1    0    0    0    0  0.00000000000E+00  0.00000000000E+00  0.99999998245E-14  0.12500000000E+03  0.12500000000E+03 0.  0.
        -13    1    3    3    0    0  0.14838917663E+01 -0.30391836815E+02  0.16247825009E+02  0.34494472910E+02  0.10566000000E+00 0.  1.
         23    2    1    0    0    0 -0.13586578965E+02  0.20088547209E+02 -0.15703089702E+02  0.96108273102E+02  0.91662796573E+02 0.  0.
         13    1    3    3    0    0 -0.15070470732E+02  0.50480384024E+02 -0.31950914711E+02  0.61613800193E+02  0.10566000000E+00 0. -1.
         22    1    1    0    0    0  0.13586578965E+02 -0.20088547209E+02  0.15703089702E+02  0.28891726898E+02  0.00000000000E+00 0. -1.
</event>
<event>
 5    1  0.1766634E-003  0.9118800E+02  0.7818608E-02  0.1130116E+00
         25   -1    0    0    0    0  0.00000000000E+00  0.00000000000E+00  0.99999998245E-14  0.12500000000E+03  0.12500000000E+03 0.  0.
        -13    1    3    3    0    0  0.16523351706E+02 -0.52826870708E+02  0.13520119294E+02  0.56978102901E+02  0.10566000000E+00 0.  1.
         23    2    1    0    0    0 -0.86912334040E+01 -0.26846550074E+02 -0.27056068103E+01  0.96652247053E+02  0.92401632903E+02 0.  0.
         13    1    3    3    0    0 -0.25214585110E+02  0.25980320634E+02 -0.16225726104E+02  0.39674144152E+02  0.10566000000E+00 0. -1.
         22    1    1    0    0    0  0.86912334040E+01  0.26846550074E+02  0.27056068103E+01  0.28347752947E+02  0.00000000000E+00 0.  1.
</event>
<event>
 5    1  0.1766634E-003  0.9118800E+02  0.7818608E-02  0.1130116E+00
         25   -1    0    0    0    0  0.00000000000E+00  0.00000000000E+00  0.99999998245E-14  0.12500000000E+03  0.12500000000E+03 0.  0.
        -13    1    3    3    0    0  0.44448719494E+02 -0.31894615091E+02 -0.25256227112E+02  0.60256479390E+02  0.10566000000E+00 0. -1.
         23    2    1    0    0    0  0.72170866676E+01 -0.87080350839E+01 -0.16519821258E+02  0.10497949278E+03  0.10305276898E+03 0.  0.
         13    1    3    3    0    0 -0.37231632826E+02  0.23186580007E+02  0.87364058538E+01  0.44723013389E+02  0.10566000000E+00 0.  1.
         22    1    1    0    0    0 -0.72170866676E+01  0.87080350839E+01  0.16519821258E+02  0.20020507221E+02  0.00000000000E+00 0. -1.
</event>
<event>
 5    1  0.1766634E-003  0.9118800E+02  0.7818608E-02  0.1130116E+00
         25   -1    0    0    0    0  0.00000000000E+00  0.00000000000E+00  0.99999998245E-14  0.12500000000E+03  0.12500000000E+03 0.  0.
        -13    1    3    3    0    0 -0.21511544685E+02 -0.29329572190E+01  0.41106546103E+02  0.46487719769E+02  0.10566000000E+00 0. -1.
         23    2    1    0    0    0  0.32704341086E+01 -0.27111318771E+02  0.37261873762E+01  0.97439088964E+02  0.93460003430E+02 0.  0.
         13    1    3    3    0    0  0.24781978793E+02 -0.24178361552E+02 -0.37380358727E+02  0.50951369195E+02  0.10566000000E+00 0.  1.
         22    1    1    0    0    0 -0.32704341086E+01  0.27111318771E+02 -0.37261873762E+01  0.27560911036E+02  0.00000000000E+00 0.  1.
</event>
<event>
 5    1  0.1766634E-003  0.9118800E+02  0.7818608E-02  0.1130116E+00
         25   -1    0    0    0    0  0.00000000000E+00  0.00000000000E+00  0.99999998245E-14  0.12500000000E+03  0.12500000000E+03 0.  0.
        -13    1    3    3    0    0 -0.30044678502E+02 -0.35540662673E+01 -0.14813579117E+02  0.33686308549E+02  0.10566000000E+00 0.  1.
         23    2    1    0    0    0 -0.41769208397E+01  0.39561814923E+02 -0.79263551634E+01  0.84436334314E+02  0.74054598631E+02 0.  0.
         13    1    3    3    0    0  0.25867757663E+02  0.43115881191E+02  0.68872239537E+01  0.50750025765E+02  0.10566000000E+00 0. -1.
         22    1    1    0    0    0  0.41769208397E+01 -0.39561814923E+02  0.79263551634E+01  0.40563665686E+02  0.00000000000E+00 0.  1.
</event>
<event>
 5    1  0.1766634E-003  0.9118800E+02  0.7818608E-02  0.1130116E+00
         25   -1    0    0    0    0  0.00000000000E+00  0.00000000000E+00  0.99999998245E-14  0.12500000000E+03  0.12500000000E+03 0.  0.
        -13    1    3    3    0    0  0.79051485081E+01  0.47551014027E+02 -0.38247861685E+02  0.61534546358E+02  0.10566000000E+00 0. -1.
         23    2    1    0    0    0  0.68357270979E+01  0.17236935833E+02 -0.22913683230E+02  0.95523297317E+02  0.90861566844E+02 0.  0.
         13    1    3    3    0    0 -0.10694214102E+01 -0.30314078194E+02  0.15334178455E+02  0.33988750960E+02  0.10566000000E+00 0.  1.
         22    1    1    0    0    0 -0.68357270979E+01 -0.17236935833E+02  0.22913683230E+02  0.29476702683E+02  0.00000000000E+00 0. -1.
</event>
<event>
 5    1  0.1766634E-003  0.9118800E+02  0.7818608E-02  0.1130116E+00
         25   -1    0    0    0    0  0.00000000000E+00  0.00000000000E+00  0.99999998245E-14  0.12500000000E+03  0.12500000000E+03 0.  0.
        -13    1    3    3    0    0  0.37406506078E+02 -0.27717354613E+02 -0.10072124471E+01  0.46567414408E+02  0.10566000000E+00 0.  1.
         23    2    1    0    0    0  0.28490918813E+02  0.16427661578E+02  0.39503703566E+01  0.91875900832E+02  0.85696996494E+02 0.  0.
         13    1    3    3    0    0 -0.89155872646E+01  0.44145016191E+02  0.49575828037E+01  0.45308486424E+02  0.10566000000E+00 0. -1.
         22    1    1    0    0    0 -0.28490918813E+02 -0.16427661578E+02 -0.39503703566E+01  0.33124099168E+02  0.00000000000E+00 0. -1.
</event>
<event>
 5    1  0.1766634E-003  0.9118800E+02  0.7818608E-02  0.1130116E+00
         25   -1    0    0    0    0  0.00000000000E+00  0.00000000000E+00  0.99999998245E-14  0.12500000000E+03  0.12500000000E+03 0.  0.
        -13    1    3    3    0    0 -0.31120907369E+02  0.26873454086E+02  0.43653058716E+02  0.59969109626E+02  0.10566000000E+00 0.  1.
         23    2    1    0    0    0 -0.17032344480E+02  0.14618702048E+01  0.25731431757E+02  0.94107534847E+02  0.88892540247E+02 0.  0.
         13    1    3    3    0    0  0.14088562889E+02 -0.25411583882E+02 -0.17921626959E+02  0.34138425221E+02  0.10566000000E+00 0. -1.
         22    1    1    0    0    0  0.17032344480E+02 -0.14618702048E+01 -0.25731431757E+02  0.30892465153E+02  0.00000000000E+00 0.  1.
</event>
<event>
 5    1  0.1766634E-003  0.9118800E+02  0.7818608E-02  0.1130116E+00
         25   -1    0    0    0    0  0.00000000000E+00  0.00000000000E+00  0.99999998245E-14  0.12500000000E+03  0.12500000000E+03 0.  0.
        -13    1    3    3    0    0  0.18431904703E+02  0.81232564772E+01 -0.20711231583E+02  0.28890979293E+02  0.10566000000E+00 0.  1.
         23    2    1    0    0    0  0.72078674735E+01  0.24642306443E+02  0.31248409876E+02  0.84556709578E+02  0.74257507328E+02 0.  0.
         13    1    3    3    0    0 -0.11224037230E+02  0.16519049966E+02  0.51959641459E+02  0.55665730285E+02  0.10566000000E+00 0. -1.
         22    1    1    0    0    0 -0.72078674735E+01 -0.24642306443E+02 -0.31248409876E+02  0.40443290422E+02  0.00000000000E+00 0. -1.
</event>
<event>
 5    1  0.1766634E-003  0.9118800E+02  0.7818608E-02  0.1130116E+00
         25   -1    0    0    0    0  0.00000000000E+00  0.00000000000E+00  0.99999998245E-14  0.12500000000E+03  0.12500000000E+03 0.  0.
        -13    1    3    3    0    0  0.37086293740E+01 -0.67407516308E+00 -0.18853581134E+02  0.19226986108E+02  0.10566000000E+00 0.  1.
         23    2    1    0    0    0 -0.19143654146E+02  0.42125785092E+02  0.12593149550E+02  0.77045347678E+02  0.60302047391E+02 0.  0.
         13    1    3    3    0    0 -0.22852283520E+02  0.42799860256E+02  0.31446730684E+02  0.57818361571E+02  0.10566000000E+00 0. -1.
         22    1    1    0    0    0  0.19143654146E+02 -0.42125785092E+02 -0.12593149550E+02  0.47954652322E+02  0.00000000000E+00 0. -1.
</event>
<event>
 5    1  0.1766634E-003  0.9118800E+02  0.7818608E-02  0.1130116E+00
         25   -1    0    0    0    0  0.00000000000E+00  0.00000000000E+00  0.99999998245E-14  0.12500000000E+03  0.12500000000E+03 0.  0.
        -13    1    3    3    0    0  0.20587100049E+01 -0.47632356118E+02 -0.16201654050E+02  0.50354586625E+02  0.10566000000E+00 0. -1.
         23    2    1    0    0    0 -0.16877714169E+02 -0.18600472598E+02  0.13927246022E+02  0.96280616333E+02  0.91897519462E+02 0.  0.
         13    1    3    3    0    0 -0.18936424174E+02  0.29031883519E+02  0.30128900072E+02  0.45926029708E+02  0.10566000000E+00 0.  1.
         22    1    1    0    0    0  0.16877714169E+02  0.18600472598E+02 -0.13927246022E+02  0.28719383667E+02  0.00000000000E+00 0. -1.
</event>
<event>
 5    1  0.1766634E-003  0.9118800E+02  0.7818608E-02  0.1130116E+00
         25   -1    0    0    0    0  0.00000000000E+00  0.00000000000E+00  0.99999998245E-14  0.12500000000E+03  0.12500000000E+03 0.  0.
        -13    1    3    3    0    0 -0.40497554666E+02 -0.93988665067E+01  0.40715535888E+02  0.58190692144E+02  0.10566000000E+00 0. -1.
         23    2    1    0    0    0 -0.17931509758E+02  0.12167617485E+02  0.18550709820E+02  0.96474243353E+02  0.92160516699E+02 0.  0.
         13    1    3    3    0    0  0.22566044908E+02  0.21566483991E+02 -0.22164826067E+02  0.38283551209E+02  0.10566000000E+00 0.  1.
         22    1    1    0    0    0  0.17931509758E+02 -0.12167617485E+02 -0.18550709820E+02  0.28525756647E+02  0.00000000000E+00 0. -1.
</event>
<event>
 5    1  0.1766634E-003  0.9118800E+02  0.7818608E-02  0.1130116E+00
         25   -1    0    0    0    0  0.00000000000E+00  0.00000000000E+00  0.99999998245E-14  0.12500000000E+03  0.12500000000E+03 0.  0.
        -13    1    3    3    0    0  0.36785979568E+02 -0.27357453883E+01  0.46444506653E+02  0.59311010427E+02  0.10566000000E+00 0.  1.
         23    2    1    0    0    0  0.18319609652E+02 -0.15025525898E+02  0.18805606268E+02  0.94750613999E+02  0.89792279734E+02 0.  0.
         13    1    3    3    0    0 -0.18466369916E+02 -0.12289780510E+02 -0.27638900385E+02  0.35439603572E+02  0.10566000000E+00 0. -1.
         22    1    1    0    0    0 -0.18319609652E+02  0.15025525898E+02 -0.18805606268E+02  0.30249386001E+02  0.00000000000E+00 0.  1.
</event>
<event>
 5    1  0.1766634E-003  0.9118800E+02  0.7818608E-02  0.1130116E+00
         25   -1    0    0    0    0  0.00000000000E+00  0.00000000000E+00  0.99999998245E-14  0.12500000000E+03  0.12500000000E+03 0.  0.
        -13    1    3    3    0    0  0.50863675268E+02  0.90153950292E+00 -0.68120002684E+01  0.51325829237E+02  0.10566000000E+00 0.  1.
         23    2    1    0    0    0  0.13223380263E+02  0.23641361809E+02 -0.11541363933E+02  0.95555563255E+02  0.90905944876E+02 0.  0.
         13    1    3    3    0    0 -0.37640295005E+02  0.22739822307E+02 -0.47293636643E+01  0.44229734018E+02  0.10566000000E+00 0. -1.
         22    1    1    0    0    0 -0.13223380263E+02 -0.23641361809E+02  0.11541363933E+02  0.29444436745E+02  0.00000000000E+00 0. -1.
</event>
<event>
 5    1  0.1766634E-003  0.9118800E+02  0.7818608E-02  0.1130116E+00
         25   -1    0    0    0    0  0.00000000000E+00  0.00000000000E+00  0.99999998245E-14  0.12500000000E+03  0.12500000000E+03 0.  0.
        -13    1    3    3    0    0 -0.16000363353E+02  0.41505906573E+02 -0.31944042940E+02  0.54764814902E+02  0.10566000000E+00 0.  1.
         23    2    1    0    0    0 -0.24206132683E+02  0.17298339870E+02 -0.55726023391E+00  0.95242984681E+02  0.90475113540E+02 0.  0.
         13    1    3    3    0    0 -0.82057693308E+01 -0.24207566703E+02  0.31386782706E+02  0.40478169779E+02  0.10566000000E+00 0. -1.
         22    1    1    0    0    0  0.24206132683E+02 -0.17298339870E+02  0.55726023391E+00  0.29757015319E+02  0.00000000000E+00 0.  1.
</event>
<event>
 5    1  0.1766634E-003  0.9118800E+02  0.7818608E-02  0.1130116E+00
         25   -1    0    0    0    0  0.00000000000E+00  0.00000000000E+00  0.99999998245E-14  0.12500000000E+03  0.12500000000E+03 0.  0.
        -13    1    3    3    0    0 -0.77649326405E+01 -0.45137002253E+02  0.53085746698E+01  0.46106781284E+02  0.10566000000E+00 0.  1.
         23    2    1    0    0    0  0.22572047235E+02 -0.68261644555E+01 -0.12735033130E+02  0.98199348769E+02  0.94471356464E+02 0.  0.
         13    1    3    3    0    0  0.30336979876E+02  0.38310837797E+02 -0.18043607800E+02  0.52092567485E+02  0.10566000000E+00 0. -1.
         22    1    1    0    0    0 -0.22572047235E+02  0.68261644555E+01  0.12735033130E+02  0.26800651231E+02  0.00000000000E+00 0.  1.
</event>
<event>
 5    1  0.1766634E-003  0.9118800E+02  0.7818608E-02  0.1130116E+00
         25   -1    0    0    0    0  0.00000000000E+00  0.00000000000E+00  0.99999998245E-14  0.12500000000E+03  0.12500000000E+03 0.  0.
        -13    1    3    3    0    0 -0.24973112290E+02  0.19907406407E+02  0.23250736145E+02  0.39504038561E+02  0.10566000000E+00 0.  1.
         23    2    1    0    0    0 -0.13308548274E+02 -0.50509977231E+01 -0.25669164301E+02  0.95648065974E+02  0.91033051654E+02 0.  0.
         13    1    3    3    0    0  0.11664564016E+02 -0.24958404130E+02 -0.48919900446E+02  0.56144027413E+02  0.10566000000E+00 0. -1.
         22    1    1    0    0    0  0.13308548274E+02  0.50509977231E+01  0.25669164301E+02  0.29351934026E+02  0.00000000000E+00 0. -1.
</event>
<event>
 5    1  0.1766634E-003  0.9118800E+02  0.7818608E-02  0.1130116E+00
         25   -1    0    0    0    0  0.00000000000E+00  0.00000000000E+00  0.99999998245E-14  0.12500000000E+03  0.12500000000E+03 0.  0.
        -13    1    3    3    0    0 -0.29389240057E+01  0.12946154015E+02  0.38476343062E+02  0.40702337986E+02  0.10566000000E+00 0.  1.
         23    2    1    0    0    0  0.26640853936E+02  0.39289707006E+01 -0.83393173253E+01  0.96809290135E+02  0.92613835542E+02 0.  0.
         13    1    3    3    0    0  0.29579777942E+02 -0.90171833141E+01 -0.46815660387E+02  0.56106952150E+02  0.10566000000E+00 0. -1.
         22    1    1    0    0    0 -0.26640853936E+02 -0.39289707006E+01  0.83393173253E+01  0.28190709865E+02  0.00000000000E+00 0. -1.
</event>
<event>
 5    1  0.1766634E-003  0.9118800E+02  0.7818608E-02  0.1130116E+00
         25   -1    0    0    0    0  0.00000000000E+00  0.00000000000E+00  0.99999998245E-14  0.12500000000E+03  0.12500000000E+03 0.  0.
        -13    1    3    3    0    0 -0.32959255420E+02 -0.38542011881E+01  0.21864911278E+02  0.39739814970E+02  0.10566000000E+00 0. -1.
         23    2    1    0    0    0  0.19464223840E+02 -0.19640855760E+02  0.67715575554E+01  0.96531188707E+02  0.92237721008E+02 0.  0.
         13    1    3    3    0    0  0.52423479260E+02 -0.15786654572E+02 -0.15093353722E+02  0.56791373737E+02  0.10566000000E+00 0.  1.
         22    1    1    0    0    0 -0.19464223840E+02  0.19640855760E+02 -0.67715575554E+01  0.28468811293E+02  0.00000000000E+00 0.  1.
</event>
<event>
 5    1  0.1766634E-003  0.9118800E+02  0.7818608E-02  0.1130116E+00
         25   -1    0    0    0    0  0.00000000000E+00  0.00000000000E+00  0.99999998245E-14  0.12500000000E+03  0.12500000000E+03 0.  0.
        -13    1    3    3    0    0  0.30041954350E+01  0.40475070010E+02 -0.19060448849E+02  0.44839361692E+02  0.10566000000E+00 0.  1.
         23    2    1    0    0    0  0.87232258610E+01 -0.11123639219E+02 -0.24164456344E+02  0.97004447330E+02  0.92876863817E+02 0.  0.
         13    1    3    3    0    0  0.57190304260E+01 -0.51598709229E+02 -0.51040074950E+01  0.52165085638E+02  0.10566000000E+00 0. -1.
         22    1    1    0    0    0 -0.87232258610E+01  0.11123639219E+02  0.24164456344E+02  0.27995552670E+02  0.00000000000E+00 0.  1.
</event>
<event>
 5    1  0.1766634E-003  0.9118800E+02  0.7818608E-02  0.1130116E+00
         25   -1    0    0    0    0  0.00000000000E+00  0.00000000000E+00  0.99999998245E-14  0.12500000000E+03  0.12500000000E+03 0.  0.
        -13    1    3    3    0    0 -0.23263519635E+01  0.65578052570E+01 -0.60397462559E+02  0.60797050675E+02  0.10566000000E+00 0.  1.
         23    2    1    0    0    0  0.83041889945E+01  0.72248337055E+01 -0.27377297155E+02  0.95492811445E+02  0.90819617161E+02 0.  0.
         13    1    3    3    0    0  0.10630540958E+02  0.66702844843E+00  0.33020165404E+02  0.34695760769E+02  0.10566000000E+00 0. -1.
         22    1    1    0    0    0 -0.83041889945E+01 -0.72248337055E+01  0.27377297155E+02  0.29507188555E+02  0.00000000000E+00 0.  1.
</event>
<event>
 5    1  0.1766634E-003  0.9118800E+02  0.7818608E-02  0.1130116E+00
         25   -1    0    0    0    0  0.00000000000E+00  0.00000000000E+00  0.99999998245E-14  0.12500000000E+03  0.12500000000E+03 0.  0.
        -13    1    3    3    0    0 -0.42090910409E+02  0.30852029906E+02  0.27956025321E+02  0.59203403653E+02  0.10566000000E+00 0.  1.
         23    2    1    0    0    0 -0.17408730349E+02  0.27777713238E+02  0.75898844977E+01  0.91350756445E+02  0.84927552133E+02 0.  0.
         13    1    3    3    0    0  0.24682180060E+02 -0.30743166681E+01 -0.20366140823E+02  0.32147352792E+02  0.10566000000E+00 0. -1.
         22    1    1    0    0    0  0.17408730349E+02 -0.27777713238E+02 -0.75898844977E+01  0.33649243555E+02  0.00000000000E+00 0.  1.
</event>
<event>
 5    1  0.1766634E-003  0.9118800E+02  0.7818608E-02  0.1130116E+00
         25   -1    0    0    0    0  0.00000000000E+00  0.00000000000E+00  0.99999998245E-14  0.12500000000E+03  0.12500000000E+03 0.  0.
        -13    1    3    3    0    0  0.17038650988E+02  0.43985644854E+02  0.16870940174E+02  0.50096829911E+02  0.10566000000E+00 0.  1.
         23    2    1    0    0    0 -0.17320719902E+02  0.22693454758E+02 -0.49396206615E+01  0.96027597976E+02  0.91552714290E+02 0.  0.
         13    1    3    3    0    0 -0.34359370890E+02 -0.21292190096E+02 -0.21810560836E+02  0.45930768065E+02  0.10566000000E+00 0. -1.
         22    1    1    0    0    0  0.17320719902E+02 -0.22693454758E+02  0.49396206615E+01  0.28972402024E+02  0.00000000000E+00 0.  1.
</event>
<event>
 5    1  0.1766634E-003  0.9118800E+02  0.7818608E-02  0.1130116E+00
         25   -1    0    0    0    0  0.00000000000E+00  0.00000000000E+00  0.99999998245E-14  0.12500000000E+03  0.12500000000E+03 0.  0.
        -13    1    3    3    0    0 -0.22401385449E+02 -0.52720856778E+01  0.35810753736E+02  0.42568042057E+02  0.10566000000E+00 0.  1.
         23    2    1    0    0    0  0.22827072259E+02  0.11783791353E+02  0.15480477961E+02  0.95007031416E+02  0.90148532179E+02 0.  0.
         13    1    3    3    0    0  0.45228457707E+02  0.17055877031E+02 -0.20330275775E+02  0.52438989359E+02  0.10566000000E+00 0. -1.
         22    1    1    0    0    0 -0.22827072259E+02 -0.11783791353E+02 -0.15480477961E+02  0.29992968584E+02  0.00000000000E+00 0. -1.
</event>
<event>
 5    1  0.1766634E-003  0.9118800E+02  0.7818608E-02  0.1130116E+00
         25   -1    0    0    0    0  0.00000000000E+00  0.00000000000E+00  0.99999998245E-14  0.12500000000E+03  0.12500000000E+03 0.  0.
        -13    1    3    3    0    0 -0.13174620873E+02  0.25555901119E+02 -0.17580481502E+02  0.33701026855E+02  0.10566000000E+00 0.  1.
         23    2    1    0    0    0 -0.12546061335E+02 -0.22025356997E+02  0.18667508373E+02  0.93519913045E+02  0.88062354393E+02 0.  0.
         13    1    3    3    0    0  0.62855953790E+00 -0.47581258117E+02  0.36247989875E+02  0.59818886190E+02  0.10566000000E+00 0. -1.
         22    1    1    0    0    0  0.12546061335E+02  0.22025356997E+02 -0.18667508373E+02  0.31480086955E+02  0.00000000000E+00 0. -1.
</event>
<event>
 5    1  0.1766634E-003  0.9118800E+02  0.7818608E-02  0.1130116E+00
         25   -1    0    0    0    0  0.00000000000E+00  0.00000000000E+00  0.99999998245E-14  0.12500000000E+03  0.12500000000E+03 0.  0.
        -13    1    3    3    0    0  0.54714162644E+02 -0.22255995734E+02  0.92244629973E+01  0.59783533030E+02  0.10566000000E+00 0.  1.
         23    2    1    0    0    0  0.22658323139E+02 -0.17686916573E+02 -0.61140726296E+01  0.95612783231E+02  0.90984591045E+02 0.  0.
         13    1    3    3    0    0 -0.32055839505E+02  0.45690791611E+01 -0.15338535627E+02  0.35829250201E+02  0.10566000000E+00 0. -1.
         22    1    1    0    0    0 -0.22658323139E+02  0.17686916573E+02  0.61140726296E+01  0.29387216769E+02  0.00000000000E+00 0.  1.
</event>
<event>
 5    1  0.1766634E-003  0.9118800E+02  0.7818608E-02  0.1130116E+00
         25   -1    0    0    0    0  0.00000000000E+00  0.00000000000E+00  0.99999998245E-14  0.12500000000E+03  0.12500000000E+03 0.  0.
        -13    1    3    3    0    0 -0.26204610345E+02 -0.26030349313E+02  0.16984811212E+02  0.40654097759E+02  0.10566000000E+00 0. -1.
         23    2    1    0    0    0  0.13136041431E+02  0.15017341819E+02  0.18865494256E+02  0.97541248876E+02  0.93596539567E+02 0.  0.
         13    1    3    3    0    0  0.39340651776E+02  0.41047691132E+02  0.18806830441E+01  0.56887151117E+02  0.10566000000E+00 0.  1.
         22    1    1    0    0    0 -0.13136041431E+02 -0.15017341819E+02 -0.18865494256E+02  0.27458751124E+02  0.00000000000E+00 0.  1.
</event>
<event>
 5    1  0.1766634E-003  0.9118800E+02  0.7818608E-02  0.1130116E+00
         25   -1    0    0    0    0  0.00000000000E+00  0.00000000000E+00  0.99999998245E-14  0.12500000000E+03  0.12500000000E+03 0.  0.
        -13    1    3    3    0    0  0.11254315922E+02 -0.23071614165E+02 -0.23158206283E+02  0.34572715967E+02  0.10566000000E+00 0. -1.
         23    2    1    0    0    0 -0.11871183508E+02  0.48665958800E+01  0.26202602149E+02  0.95824923090E+02  0.91275575991E+02 0.  0.
         13    1    3    3    0    0 -0.23125499430E+02  0.27938210045E+02  0.49360808432E+02  0.61252207123E+02  0.10566000000E+00 0.  1.
         22    1    1    0    0    0  0.11871183508E+02 -0.48665958800E+01 -0.26202602149E+02  0.29175076910E+02  0.00000000000E+00 0.  1.
</event>
<event>
 5    1  0.1766634E-003  0.9118800E+02  0.7818608E-02  0.1130116E+00
         25   -1    0    0    0    0  0.00000000000E+00  0.00000000000E+00  0.99999998245E-14  0.12500000000E+03  0.12500000000E+03 0.  0.
        -13    1    3    3    0    0 -0.85821467465E+00  0.26523880049E+02 -0.21692221806E+02  0.34275594761E+02  0.10566000000E+00 0.  1.
         23    2    1    0    0    0  0.37787342000E+01 -0.30515197208E+02 -0.53581753847E+01  0.93788365371E+02  0.88442587834E+02 0.  0.
         13    1    3    3    0    0  0.46369488747E+01 -0.57039077257E+02  0.16334046421E+02  0.59512770610E+02  0.10566000000E+00 0. -1.
         22    1    1    0    0    0 -0.37787342000E+01  0.30515197208E+02  0.53581753847E+01  0.31211634629E+02  0.00000000000E+00 0. -1.
</event>
<event>
 5    1  0.1766634E-003  0.9118800E+02  0.7818608E-02  0.1130116E+00
         25   -1    0    0    0    0  0.00000000000E+00  0.00000000000E+00  0.99999998245E-14  0.12500000000E+03  0.12500000000E+03 0.  0.
        -13    1    3    3    0    0  0.20428074930E+02  0.51660810490E+02  0.11704594291E+02  0.56772830451E+02  0.10566000000E+00 0.  1.
         23    2    1    0    0    0  0.12688753776E+02  0.24010076200E+02 -0.13221035790E+02  0.94795960222E+02  0.89855384122E+02 0.  0.
         13    1    3    3    0    0 -0.77393211543E+01 -0.27650734290E+02 -0.24925630081E+02  0.38023129772E+02  0.10566000000E+00 0. -1.
         22    1    1    0    0    0 -0.12688753776E+02 -0.24010076200E+02  0.13221035790E+02  0.30204039778E+02  0.00000000000E+00 0.  1.
</event>
<event>
 5    1  0.1766634E-003  0.9118800E+02  0.7818608E-02  0.1130116E+00
         25   -1    0    0    0    0  0.00000000000E+00  0.00000000000E+00  0.99999998245E-14  0.12500000000E+03  0.12500000000E+03 0.  0.
        -13    1    3    3    0    0  0.22805137705E+02  0.20613145265E+02 -0.82467337396E+01  0.31827595651E+02  0.10566000000E+00 0.  1.
         23    2    1    0    0    0 -0.30161452741E+02 -0.28302463775E+01  0.10856633158E+02  0.92819415644E+02  0.87062356452E+02 0.  0.
         13    1    3    3    0    0 -0.52966590446E+02 -0.23443391643E+02  0.19103366898E+02  0.60991819993E+02  0.10566000000E+00 0. -1.
         22    1    1    0    0    0  0.30161452741E+02  0.28302463775E+01 -0.10856633158E+02  0.32180584356E+02  0.00000000000E+00 0. -1.
</event>
<event>
 5    1  0.1766634E-003  0.9118800E+02  0.7818608E-02  0.1130116E+00
         25   -1    0    0    0    0  0.00000000000E+00  0.00000000000E+00  0.99999998245E-14  0.12500000000E+03  0.12500000000E+03 0.  0.
        -13    1    3    3    0    0  0.50676232462E+02 -0.11542739214E+02 -0.82115106458E+01  0.52618964606E+02  0.10566000000E+00 0.  1.
         23    2    1    0    0    0  0.55375369426E+01 -0.24318261126E+02 -0.42721377170E+01  0.99695982527E+02  0.96431300063E+02 0.  0.
         13    1    3    3    0    0 -0.45138695519E+02 -0.12775521912E+02  0.39393729288E+01  0.47077017922E+02  0.10566000000E+00 0. -1.
         22    1    1    0    0    0 -0.55375369426E+01  0.24318261126E+02  0.42721377170E+01  0.25304017473E+02  0.00000000000E+00 0. -1.
</event>
<event>
 5    1  0.1766634E-003  0.9118800E+02  0.7818608E-02  0.1130116E+00
         25   -1    0    0    0    0  0.00000000000E+00  0.00000000000E+00  0.99999998245E-14  0.12500000000E+03  0.12500000000E+03 0.  0.
        -13    1    3    3    0    0 -0.14151797797E+02  0.30244622821E+02 -0.40448382063E+02  0.52450866209E+02  0.10566000000E+00 0.  1.
         23    2    1    0    0    0 -0.26348087244E+02  0.99149826166E+01 -0.31141848026E+01  0.96676392732E+02  0.92434291164E+02 0.  0.
         13    1    3    3    0    0 -0.12196289447E+02 -0.20329640205E+02  0.37334197261E+02  0.44225526523E+02  0.10566000000E+00 0. -1.
         22    1    1    0    0    0  0.26348087244E+02 -0.99149826166E+01  0.31141848026E+01  0.28323607268E+02  0.00000000000E+00 0.  1.
</event>
<event>
 5    1  0.1766634E-003  0.9118800E+02  0.7818608E-02  0.1130116E+00
         25   -1    0    0    0    0  0.00000000000E+00  0.00000000000E+00  0.99999998245E-14  0.12500000000E+03  0.12500000000E+03 0.  0.
        -13    1    3    3    0    0 -0.26107170225E+02 -0.49593041866E+02 -0.26287356870E+02  0.61903880605E+02  0.10566000000E+00 0.  1.
         23    2    1    0    0    0 -0.92466288010E+01 -0.27540706006E+02 -0.90865397273E+01  0.94560620313E+02  0.89527398479E+02 0.  0.
         13    1    3    3    0    0  0.16860541424E+02  0.22052335860E+02  0.17200817143E+02  0.32656739709E+02  0.10566000000E+00 0. -1.
         22    1    1    0    0    0  0.92466288010E+01  0.27540706006E+02  0.90865397273E+01  0.30439379687E+02  0.00000000000E+00 0.  1.
</event>
<event>
 5    1  0.1766634E-003  0.9118800E+02  0.7818608E-02  0.1130116E+00
         25   -1    0    0    0    0  0.00000000000E+00  0.00000000000E+00  0.99999998245E-14  0.12500000000E+03  0.12500000000E+03 0.  0.
        -13    1    3    3    0    0 -0.16338801612E+02  0.11619829020E+01  0.44340899588E+02  0.47269791440E+02  0.10566000000E+00 0. -1.
         23    2    1    0    0    0  0.14509982084E+02 -0.20713610177E+02  0.12106327419E+02  0.96961519474E+02  0.92819070608E+02 0.  0.
         13    1    3    3    0    0  0.30848783696E+02 -0.21875593079E+02 -0.32234572170E+02  0.49691728035E+02  0.10566000000E+00 0.  1.
         22    1    1    0    0    0 -0.14509982084E+02  0.20713610177E+02 -0.12106327419E+02  0.28038480526E+02  0.00000000000E+00 0.  1.
</event>
<event>
 5    1  0.1766634E-003  0.9118800E+02  0.7818608E-02  0.1130116E+00
         25   -1    0    0    0    0  0.00000000000E+00  0.00000000000E+00  0.99999998245E-14  0.12500000000E+03  0.12500000000E+03 0.  0.
        -13    1    3    3    0    0 -0.22693534551E+02  0.25014634437E+02 -0.19237427013E+02  0.38869245022E+02  0.10566000000E+00 0.  1.
         23    2    1    0    0    0  0.26812652311E+02 -0.25579043788E+01 -0.99201525909E+01  0.96296853374E+02  0.91919602608E+02 0.  0.
         13    1    3    3    0    0  0.49506186862E+02 -0.27572538816E+02  0.93172744222E+01  0.57427608353E+02  0.10566000000E+00 0. -1.
         22    1    1    0    0    0 -0.26812652311E+02  0.25579043788E+01  0.99201525909E+01  0.28703146626E+02  0.00000000000E+00 0. -1.
</event>
<event>
 5    1  0.1766634E-003  0.9118800E+02  0.7818608E-02  0.1130116E+00
         25   -1    0    0    0    0  0.00000000000E+00  0.00000000000E+00  0.99999998245E-14  0.12500000000E+03  0.12500000000E+03 0.  0.
        -13    1    3    3    0    0  0.46487135047E+02  0.59219123898E+01  0.27330358592E+02  0.54250183742E+02  0.10566000000E+00 0.  1.
         23    2    1    0    0    0  0.77879217160E+01 -0.94192931066E+01  0.26420731521E+02  0.95889351409E+02  0.91363766626E+02 0.  0.
         13    1    3    3    0    0 -0.38699213331E+02 -0.15341205496E+02 -0.90962707026E+00  0.41639167667E+02  0.10566000000E+00 0. -1.
         22    1    1    0    0    0 -0.77879217160E+01  0.94192931066E+01 -0.26420731521E+02  0.29110648591E+02  0.00000000000E+00 0.  1.
</event>
<event>
 5    1  0.1766634E-003  0.9118800E+02  0.7818608E-02  0.1130116E+00
         25   -1    0    0    0    0  0.00000000000E+00  0.00000000000E+00  0.99999998245E-14  0.12500000000E+03  0.12500000000E+03 0.  0.
        -13    1    3    3    0    0  0.49767880252E+01 -0.32408011722E+02 -0.12250651125E+02  0.35001960800E+02  0.10566000000E+00 0.  1.
         23    2    1    0    0    0  0.17029284530E+01  0.28072472896E+02 -0.81930020752E+01  0.95706844096E+02  0.91113725771E+02 0.  0.
         13    1    3    3    0    0 -0.32738595722E+01  0.60480484618E+02  0.40576490495E+01  0.60704883296E+02  0.10566000000E+00 0. -1.
         22    1    1    0    0    0 -0.17029284530E+01 -0.28072472896E+02  0.81930020752E+01  0.29293155904E+02  0.00000000000E+00 0. -1.
</event>
<event>
 5    1  0.1766634E-003  0.9118800E+02  0.7818608E-02  0.1130116E+00
         25   -1    0    0    0    0  0.00000000000E+00  0.00000000000E+00  0.99999998245E-14  0.12500000000E+03  0.12500000000E+03 0.  0.
        -13    1    3    3    0    0  0.19989894698E+02  0.22739145537E+02  0.15429664374E+02  0.33981617627E+02  0.10566000000E+00 0. -1.
         23    2    1    0    0    0 -0.26943387893E+02 -0.34747315579E+01 -0.13098914947E+02  0.94840399814E+02  0.89917183862E+02 0.  0.
         13    1    3    3    0    0 -0.46933282592E+02 -0.26213877095E+02 -0.28528579321E+02  0.60858782187E+02  0.10566000000E+00 0.  1.
         22    1    1    0    0    0  0.26943387893E+02  0.34747315579E+01  0.13098914947E+02  0.30159600186E+02  0.00000000000E+00 0.  1.
</event>
<event>
 5    1  0.1766634E-003  0.9118800E+02  0.7818608E-02  0.1130116E+00
         25   -1    0    0    0    0  0.00000000000E+00  0.00000000000E+00  0.99999998245E-14  0.12500000000E+03  0.12500000000E+03 0.  0.
        -13    1    3    3    0    0  0.14092988310E+02  0.35238831135E+02  0.30944144623E+02  0.48968753197E+02  0.10566000000E+00 0. -1.
         23    2    1    0    0    0  0.62237211015E+01  0.24353433144E+02 -0.14242271924E+02  0.96109400840E+02  0.91664334449E+02 0.  0.
         13    1    3    3    0    0 -0.78692672087E+01 -0.10885397990E+02 -0.45186416546E+02  0.47140647643E+02  0.10566000000E+00 0.  1.
         22    1    1    0    0    0 -0.62237211015E+01 -0.24353433144E+02  0.14242271924E+02  0.28890599160E+02  0.00000000000E+00 0. -1.
</event>
<event>
 5    1  0.1766634E-003  0.9118800E+02  0.7818608E-02  0.1130116E+00
         25   -1    0    0    0    0  0.00000000000E+00  0.00000000000E+00  0.99999998245E-14  0.12500000000E+03  0.12500000000E+03 0.  0.
        -13    1    3    3    0    0  0.11560381274E+02 -0.32455089801E+02 -0.12508756658E+02  0.36653177575E+02  0.10566000000E+00 0. -1.
         23    2    1    0    0    0  0.68186542536E+01  0.13689828801E+02  0.24583429666E+02  0.96047444455E+02  0.91579807347E+02 0.  0.
         13    1    3    3    0    0 -0.47417270205E+01  0.46144918601E+02  0.37092186325E+02  0.59394266880E+02  0.10566000000E+00 0.  1.
         22    1    1    0    0    0 -0.68186542536E+01 -0.13689828801E+02 -0.24583429666E+02  0.28952555545E+02  0.00000000000E+00 0.  1.
</event>
<event>
 5    1  0.1766634E-003  0.9118800E+02  0.7818608E-02  0.1130116E+00
         25   -1    0    0    0    0  0.00000000000E+00  0.00000000000E+00  0.99999998245E-14  0.12500000000E+03  0.12500000000E+03 0.  0.
        -13    1    3    3    0    0  0.13258434733E+02 -0.40724379881E+02  0.24935753854E+02  0.49558694419E+02  0.10566000000E+00 0. -1.
         23    2    1    0    0    0  0.37423212996E+01  0.29767251246E+01  0.30046775638E+02  0.94575099221E+02  0.89547611946E+02 0.  0.
         13    1    3    3    0    0 -0.95161134332E+01  0.43701105005E+02  0.51110217833E+01  0.45016404802E+02  0.10566000000E+00 0.  1.
         22    1    1    0    0    0 -0.37423212996E+01 -0.29767251246E+01 -0.30046775638E+02  0.30424900779E+02  0.00000000000E+00 0.  1.
</event>
<event>
 5    1  0.1766634E-003  0.9118800E+02  0.7818608E-02  0.1130116E+00
         25   -1    0    0    0    0  0.00000000000E+00  0.00000000000E+00  0.99999998245E-14  0.12500000000E+03  0.12500000000E+03 0.  0.
        -13    1    3    3    0    0  0.24944665848E+02  0.71585269426E+01  0.42388025338E+02  0.49701476018E+02  0.10566000000E+00 0.  1.
         23    2    1    0    0    0 -0.37384169733E+01  0.26174256543E+02  0.10717811630E+02  0.96470384629E+02  0.92155282851E+02 0.  0.
         13    1    3    3    0    0 -0.28683082821E+02  0.19015729601E+02 -0.31670213708E+02  0.46768908612E+02  0.10566000000E+00 0. -1.
         22    1    1    0    0    0  0.37384169733E+01 -0.26174256543E+02 -0.10717811630E+02  0.28529615371E+02  0.00000000000E+00 0.  1.
</event>
<event>
 5    1  0.1766634E-003  0.9118800E+02  0.7818608E-02  0.1130116E+00
         25   -1    0    0    0    0  0.00000000000E+00  0.00000000000E+00  0.99999998245E-14  0.12500000000E+03  0.12500000000E+03 0.  0.
        -13    1    3    3    0    0  0.46346740612E+02  0.22648103269E+01  0.24510491829E+02  0.52477853471E+02  0.10566000000E+00 0. -1.
         23    2    1    0    0    0  0.15652543821E+02  0.24596811643E+02  0.41532788117E+01  0.95550806531E+02  0.90899403918E+02 0.  0.
         13    1    3    3    0    0 -0.30694196791E+02  0.22332001317E+02 -0.20357213017E+02  0.43072953060E+02  0.10566000000E+00 0.  1.
         22    1    1    0    0    0 -0.15652543821E+02 -0.24596811643E+02 -0.41532788117E+01  0.29449193469E+02  0.00000000000E+00 0.  1.
</event>
<event>
 5    1  0.1766634E-003  0.9118800E+02  0.7818608E-02  0.1130116E+00
         25   -1    0    0    0    0  0.00000000000E+00  0.00000000000E+00  0.99999998245E-14  0.12500000000E+03  0.12500000000E+03 0.  0.
        -13    1    3    3    0    0  0.28686168879E+02  0.18699573705E+02 -0.85765928534E+01  0.35300700428E+02  0.10566000000E+00 0. -1.
         23    2    1    0    0    0 -0.39481504414E+01 -0.21946526562E+02  0.20260414773E+02  0.94871569460E+02  0.89960504473E+02 0.  0.
         13    1    3    3    0    0 -0.32634319320E+02 -0.40646100267E+02  0.28837007626E+02  0.59570869032E+02  0.10566000000E+00 0.  1.
         22    1    1    0    0    0  0.39481504414E+01  0.21946526562E+02 -0.20260414773E+02  0.30128430540E+02  0.00000000000E+00 0.  1.
</event>
<event>
 5    1  0.1766634E-003  0.9118800E+02  0.7818608E-02  0.1130116E+00
         25   -1    0    0    0    0  0.00000000000E+00  0.00000000000E+00  0.99999998245E-14  0.12500000000E+03  0.12500000000E+03 0.  0.
        -13    1    3    3    0    0 -0.47962404786E+02 -0.48413892996E+01  0.53592516052E+01  0.48503237676E+02  0.10566000000E+00 0. -1.
         23    2    1    0    0    0 -0.11626273172E+02 -0.70412652084E+01 -0.25419961560E+02  0.96174246075E+02  0.91752719409E+02 0.  0.
         13    1    3    3    0    0  0.36336131614E+02 -0.21998759088E+01 -0.30779213165E+02  0.47671008399E+02  0.10566000000E+00 0.  1.
         22    1    1    0    0    0  0.11626273172E+02  0.70412652084E+01  0.25419961560E+02  0.28825753925E+02  0.00000000000E+00 0.  1.
</event>
<event>
 5    1  0.1766634E-003  0.9118800E+02  0.7818608E-02  0.1130116E+00
         25   -1    0    0    0    0  0.00000000000E+00  0.00000000000E+00  0.99999998245E-14  0.12500000000E+03  0.12500000000E+03 0.  0.
        -13    1    3    3    0    0  0.56059280445E+02 -0.89883865920E+01 -0.11935564122E+02  0.58016401754E+02  0.10566000000E+00 0.  1.
         23    2    1    0    0    0  0.16892619212E+02 -0.17566094127E+02 -0.11350531869E+02  0.98115751444E+02  0.94360679634E+02 0.  0.
         13    1    3    3    0    0 -0.39166661234E+02 -0.85777075350E+01  0.58503225328E+00  0.40099349690E+02  0.10566000000E+00 0. -1.
         22    1    1    0    0    0 -0.16892619212E+02  0.17566094127E+02  0.11350531869E+02  0.26884248556E+02  0.00000000000E+00 0.  1.
</event>
<event>
 5    1  0.1766634E-003  0.9118800E+02  0.7818608E-02  0.1130116E+00
         25   -1    0    0    0    0  0.00000000000E+00  0.00000000000E+00  0.99999998245E-14  0.12500000000E+03  0.12500000000E+03 0.  0.
        -13    1    3    3    0    0 -0.25231855338E+02  0.18416413553E+02  0.39117736459E+02  0.50060156629E+02  0.10566000000E+00 0.  1.
         23    2    1    0    0    0 -0.19342642542E+02 -0.18024541090E+02  0.11468880200E+02  0.96180612168E+02  0.91761391892E+02 0.  0.
         13    1    3    3    0    0  0.58892127968E+01 -0.36440954643E+02 -0.27648856259E+02  0.46120455539E+02  0.10566000000E+00 0. -1.
         22    1    1    0    0    0  0.19342642542E+02  0.18024541090E+02 -0.11468880200E+02  0.28819387832E+02  0.00000000000E+00 0.  1.
</event>
<event>
 5    1  0.1766634E-003  0.9118800E+02  0.7818608E-02  0.1130116E+00
         25   -1    0    0    0    0  0.00000000000E+00  0.00000000000E+00  0.99999998245E-14  0.12500000000E+03  0.12500000000E+03 0.  0.
        -13    1    3    3    0    0  0.16030127924E+02 -0.33923367505E+02 -0.22891396306E+02  0.43952099529E+02  0.10566000000E+00 0. -1.
         23    2    1    0    0    0  0.79945134220E+01 -0.12462299400E+02  0.24374789061E+02  0.96480682109E+02  0.92169249358E+02 0.  0.
         13    1    3    3    0    0 -0.80356145020E+01  0.21461068105E+02  0.47266185367E+02  0.52528582580E+02  0.10566000000E+00 0.  1.
         22    1    1    0    0    0 -0.79945134220E+01  0.12462299400E+02 -0.24374789061E+02  0.28519317891E+02  0.00000000000E+00 0.  1.
</event>
<event>
 5    1  0.1766634E-003  0.9118800E+02  0.7818608E-02  0.1130116E+00
         25   -1    0    0    0    0  0.00000000000E+00  0.00000000000E+00  0.99999998245E-14  0.12500000000E+03  0.12500000000E+03 0.  0.
        -13    1    3    3    0    0  0.35834423572E+02  0.18255791418E+02  0.40958729233E+02  0.57402164571E+02  0.10566000000E+00 0. -1.
         23    2    1    0    0    0  0.16578197945E+01  0.18374499524E+02  0.21265762802E+02  0.96846789405E+02  0.92664434123E+02 0.  0.
         13    1    3    3    0    0 -0.34176603778E+02  0.11870810655E+00 -0.19692966431E+02  0.39444624834E+02  0.10566000000E+00 0.  1.
         22    1    1    0    0    0 -0.16578197945E+01 -0.18374499524E+02 -0.21265762802E+02  0.28153210595E+02  0.00000000000E+00 0. -1.
</event>
<event>
 5    1  0.1766634E-003  0.9118800E+02  0.7818608E-02  0.1130116E+00
         25   -1    0    0    0    0  0.00000000000E+00  0.00000000000E+00  0.99999998245E-14  0.12500000000E+03  0.12500000000E+03 0.  0.
        -13    1    3    3    0    0 -0.14483561760E+02 -0.29696425009E+02 -0.28906439193E+01  0.33166522366E+02  0.10566000000E+00 0.  1.
         23    2    1    0    0    0  0.12919515632E+00  0.23351389812E+02  0.21411328383E+02  0.93318000684E+02  0.87775282232E+02 0.  0.
         13    1    3    3    0    0  0.14612756917E+02  0.53047814821E+02  0.24301972302E+02  0.60151478318E+02  0.10566000000E+00 0. -1.
         22    1    1    0    0    0 -0.12919515632E+00 -0.23351389812E+02 -0.21411328383E+02  0.31681999316E+02  0.00000000000E+00 0. -1.
</event>
<event>
 5    1  0.1766634E-003  0.9118800E+02  0.7818608E-02  0.1130116E+00
         25   -1    0    0    0    0  0.00000000000E+00  0.00000000000E+00  0.99999998245E-14  0.12500000000E+03  0.12500000000E+03 0.  0.
        -13    1    3    3    0    0 -0.27980938858E+02  0.45128536376E+01  0.18236047662E+02  0.33702572390E+02  0.10566000000E+00 0.  1.
         23    2    1    0    0    0  0.18604557453E+02 -0.12390039051E+02 -0.18978536080E+02  0.95677185377E+02  0.91073027534E+02 0.  0.
         13    1    3    3    0    0  0.46585496311E+02 -0.16902892689E+02 -0.37214583742E+02  0.61974612987E+02  0.10566000000E+00 0. -1.
         22    1    1    0    0    0 -0.18604557453E+02  0.12390039051E+02  0.18978536080E+02  0.29322814623E+02  0.00000000000E+00 0. -1.
</event>
<event>
 5    1  0.1766634E-003  0.9118800E+02  0.7818608E-02  0.1130116E+00
         25   -1    0    0    0    0  0.00000000000E+00  0.00000000000E+00  0.99999998245E-14  0.12500000000E+03  0.12500000000E+03 0.  0.
        -13    1    3    3    0    0  0.33659202372E+02 -0.16211829001E+02 -0.12969882657E+01  0.37382598177E+02  0.10566000000E+00 0.  1.
         23    2    1    0    0    0 -0.21919463794E+02 -0.16698580071E+02  0.12639286625E+02  0.94684046513E+02  0.89699563144E+02 0.  0.
         13    1    3    3    0    0 -0.55578666167E+02 -0.48675107081E+00  0.13936274891E+02  0.57301448336E+02  0.10566000000E+00 0. -1.
         22    1    1    0    0    0  0.21919463794E+02  0.16698580071E+02 -0.12639286625E+02  0.30315953487E+02  0.00000000000E+00 0.  1.
</event>
<event>
 5    1  0.1766634E-003  0.9118800E+02  0.7818608E-02  0.1130116E+00
         25   -1    0    0    0    0  0.00000000000E+00  0.00000000000E+00  0.99999998245E-14  0.12500000000E+03  0.12500000000E+03 0.  0.
        -13    1    3    3    0    0 -0.17602815909E+02  0.29724042203E+02 -0.27472429636E+01  0.34654528142E+02  0.10566000000E+00 0.  1.
         23    2    1    0    0    0  0.16111249853E+02 -0.17404369817E+02 -0.18746802108E+02  0.94768773597E+02  0.89817556186E+02 0.  0.
         13    1    3    3    0    0  0.33714065762E+02 -0.47128412020E+02 -0.15999559145E+02  0.60114245455E+02  0.10566000000E+00 0. -1.
         22    1    1    0    0    0 -0.16111249853E+02  0.17404369817E+02  0.18746802108E+02  0.30231226403E+02  0.00000000000E+00 0. -1.
</event>
<event>
 5    1  0.1766634E-003  0.9118800E+02  0.7818608E-02  0.1130116E+00
         25   -1    0    0    0    0  0.00000000000E+00  0.00000000000E+00  0.99999998245E-14  0.12500000000E+03  0.12500000000E+03 0.  0.
        -13    1    3    3    0    0 -0.29281423041E+02 -0.82523765174E+01  0.31235901003E+02  0.43602707817E+02  0.10566000000E+00 0.  1.
         23    2    1    0    0    0  0.20906937177E+02 -0.10080820468E+02  0.18243971645E+02  0.95477712406E+02  0.90798833150E+02 0.  0.
         13    1    3    3    0    0  0.50188360217E+02 -0.18284439509E+01 -0.12991929358E+02  0.51875004589E+02  0.10566000000E+00 0. -1.
         22    1    1    0    0    0 -0.20906937177E+02  0.10080820468E+02 -0.18243971645E+02  0.29522287594E+02  0.00000000000E+00 0. -1.
</event>
<event>
 5    1  0.1766634E-003  0.9118800E+02  0.7818608E-02  0.1130116E+00
         25   -1    0    0    0    0  0.00000000000E+00  0.00000000000E+00  0.99999998245E-14  0.12500000000E+03  0.12500000000E+03 0.  0.
        -13    1    3    3    0    0  0.34183677588E+02 -0.13064708402E+02  0.52548919911E+01  0.36970738063E+02  0.10566000000E+00 0. -1.
         23    2    1    0    0    0 -0.18070005015E+02  0.43502571736E+01 -0.20115566126E+02  0.97612305331E+02  0.93691388786E+02 0.  0.
         13    1    3    3    0    0 -0.52253682603E+02  0.17414965575E+02 -0.25370458117E+02  0.60641567268E+02  0.10566000000E+00 0.  1.
         22    1    1    0    0    0  0.18070005015E+02 -0.43502571736E+01  0.20115566126E+02  0.27387694669E+02  0.00000000000E+00 0.  1.
</event>
<event>
 5    1  0.1766634E-003  0.9118800E+02  0.7818608E-02  0.1130116E+00
         25   -1    0    0    0    0  0.00000000000E+00  0.00000000000E+00  0.99999998245E-14  0.12500000000E+03  0.12500000000E+03 0.  0.
        -13    1    3    3    0    0 -0.15025874267E+02 -0.30736315196E+02  0.21695509402E+02  0.40511779294E+02  0.10566000000E+00 0.  1.
         23    2    1    0    0    0  0.25577420700E+02 -0.10884353861E+02 -0.97181210513E+01  0.95553175291E+02  0.90902661253E+02 0.  0.
         13    1    3    3    0    0  0.40603294967E+02  0.19851961335E+02 -0.31413630453E+02  0.55041395997E+02  0.10566000000E+00 0. -1.
         22    1    1    0    0    0 -0.25577420700E+02  0.10884353861E+02  0.97181210513E+01  0.29446824709E+02  0.00000000000E+00 0. -1.
</event>
<event>
 5    1  0.1766634E-003  0.9118800E+02  0.7818608E-02  0.1130116E+00
         25   -1    0    0    0    0  0.00000000000E+00  0.00000000000E+00  0.99999998245E-14  0.12500000000E+03  0.12500000000E+03 0.  0.
        -13    1    3    3    0    0  0.11690961552E+02  0.55413106629E+02 -0.20038384213E+01  0.56668487723E+02  0.10566000000E+00 0.  1.
         23    2    1    0    0    0  0.20307313176E+02  0.19424598017E+02  0.93613099659E+01  0.95380140095E+02  0.90664408803E+02 0.  0.
         13    1    3    3    0    0  0.86163516242E+01 -0.35988508612E+02  0.11365148387E+02  0.38711652372E+02  0.10566000000E+00 0. -1.
         22    1    1    0    0    0 -0.20307313176E+02 -0.19424598017E+02 -0.93613099659E+01  0.29619859905E+02  0.00000000000E+00 0.  1.
</event>
<event>
 5    1  0.1766634E-003  0.9118800E+02  0.7818608E-02  0.1130116E+00
         25   -1    0    0    0    0  0.00000000000E+00  0.00000000000E+00  0.99999998245E-14  0.12500000000E+03  0.12500000000E+03 0.  0.
        -13    1    3    3    0    0 -0.51974841386E+02 -0.24348258592E+02  0.74356773142E+00  0.57400225527E+02  0.10566000000E+00 0. -1.
         23    2    1    0    0    0 -0.17509817619E+02 -0.16512757866E+02 -0.15577070167E+02  0.96331027218E+02  0.91966063330E+02 0.  0.
         13    1    3    3    0    0  0.34465023766E+02  0.78355007258E+01 -0.16320637899E+02  0.38930801691E+02  0.10566000000E+00 0.  1.
         22    1    1    0    0    0  0.17509817619E+02  0.16512757866E+02  0.15577070167E+02  0.28668972782E+02  0.00000000000E+00 0. -1.
</event>
<event>
 5    1  0.1766634E-003  0.9118800E+02  0.7818608E-02  0.1130116E+00
         25   -1    0    0    0    0  0.00000000000E+00  0.00000000000E+00  0.99999998245E-14  0.12500000000E+03  0.12500000000E+03 0.  0.
        -13    1    3    3    0    0 -0.80439502157E+01  0.10583546377E+02 -0.40590795389E+02  0.42712298268E+02  0.10566000000E+00 0. -1.
         23    2    1    0    0    0  0.24821427093E+02 -0.12399126252E+02 -0.40634002192E+01  0.96958017258E+02  0.92814354033E+02 0.  0.
         13    1    3    3    0    0  0.32865377309E+02 -0.22982672628E+02  0.36527395170E+02  0.54245718990E+02  0.10566000000E+00 0.  1.
         22    1    1    0    0    0 -0.24821427093E+02  0.12399126252E+02  0.40634002192E+01  0.28041982742E+02  0.00000000000E+00 0.  1.
</event>
<event>
 5    1  0.1766634E-003  0.9118800E+02  0.7818608E-02  0.1130116E+00
         25   -1    0    0    0    0  0.00000000000E+00  0.00000000000E+00  0.99999998245E-14  0.12500000000E+03  0.12500000000E+03 0.  0.
        -13    1    3    3    0    0 -0.26796096610E+02 -0.18866794798E+02  0.49967000821E+01  0.33150639741E+02  0.10566000000E+00 0.  1.
         23    2    1    0    0    0  0.23435016770E+02  0.17503060293E+02 -0.26233023803E+01  0.95632690862E+02  0.91011937214E+02 0.  0.
         13    1    3    3    0    0  0.50231113380E+02  0.36369855091E+02 -0.76200024625E+01  0.62482051121E+02  0.10566000000E+00 0. -1.
         22    1    1    0    0    0 -0.23435016770E+02 -0.17503060293E+02  0.26233023803E+01  0.29367309138E+02  0.00000000000E+00 0. -1.
</event>
<event>
 5    1  0.1766634E-003  0.9118800E+02  0.7818608E-02  0.1130116E+00
         25   -1    0    0    0    0  0.00000000000E+00  0.00000000000E+00  0.99999998245E-14  0.12500000000E+03  0.12500000000E+03 0.  0.
        -13    1    3    3    0    0 -0.13839499162E+02 -0.41348820283E+02  0.18220998024E+02  0.47257513783E+02  0.10566000000E+00 0. -1.
         23    2    1    0    0    0 -0.18246839222E+02 -0.57994375364E+01 -0.18371691165E+02  0.98465123825E+02  0.94822365275E+02 0.  0.
         13    1    3    3    0    0 -0.44073400599E+01  0.35549382747E+02 -0.36592689190E+02  0.51207610043E+02  0.10566000000E+00 0.  1.
         22    1    1    0    0    0  0.18246839222E+02  0.57994375364E+01  0.18371691165E+02  0.26534876175E+02  0.00000000000E+00 0.  1.
</event>
<event>
 5    1  0.1766634E-003  0.9118800E+02  0.7818608E-02  0.1130116E+00
         25   -1    0    0    0    0  0.00000000000E+00  0.00000000000E+00  0.99999998245E-14  0.12500000000E+03  0.12500000000E+03 0.  0.
        -13    1    3    3    0    0 -0.47853259053E+01 -0.19361616759E+02 -0.56883861691E+02  0.60278988317E+02  0.10566000000E+00 0.  1.
         23    2    1    0    0    0  0.95690106303E+01 -0.90690765402E+01 -0.25581738335E+02  0.96220850430E+02  0.91816189246E+02 0.  0.
         13    1    3    3    0    0  0.14354336536E+02  0.10292540218E+02  0.31302123357E+02  0.35941862114E+02  0.10566000000E+00 0. -1.
         22    1    1    0    0    0 -0.95690106303E+01  0.90690765402E+01  0.25581738335E+02  0.28779149570E+02  0.00000000000E+00 0.  1.
</event>
<event>
 5    1  0.1766634E-003  0.9118800E+02  0.7818608E-02  0.1130116E+00
         25   -1    0    0    0    0  0.00000000000E+00  0.00000000000E+00  0.99999998245E-14  0.12500000000E+03  0.12500000000E+03 0.  0.
        -13    1    3    3    0    0  0.32117428953E+02 -0.75152240230E+01  0.47023239269E+02  0.57438698019E+02  0.10566000000E+00 0.  1.
         23    2    1    0    0    0  0.21257206484E+02  0.12011662741E+02  0.15493653792E+02  0.96082839401E+02  0.91628106224E+02 0.  0.
         13    1    3    3    0    0 -0.10860222469E+02  0.19526886764E+02 -0.31529585477E+02  0.38644141382E+02  0.10566000000E+00 0. -1.
         22    1    1    0    0    0 -0.21257206484E+02 -0.12011662741E+02 -0.15493653792E+02  0.28917160599E+02  0.00000000000E+00 0.  1.
</event>
<event>
 5    1  0.1766634E-003  0.9118800E+02  0.7818608E-02  0.1130116E+00
         25   -1    0    0    0    0  0.00000000000E+00  0.00000000000E+00  0.99999998245E-14  0.12500000000E+03  0.12500000000E+03 0.  0.
        -13    1    3    3    0    0  0.18164910344E+02 -0.20354943330E+02 -0.36938918691E+02  0.45921482597E+02  0.10566000000E+00 0. -1.
         23    2    1    0    0    0 -0.79727504564E+01  0.18884406003E+02 -0.20907161036E+02  0.95720400916E+02  0.91132322636E+02 0.  0.
         13    1    3    3    0    0 -0.26137660801E+02  0.39239349333E+02  0.16031757655E+02  0.49798918319E+02  0.10566000000E+00 0.  1.
         22    1    1    0    0    0  0.79727504564E+01 -0.18884406003E+02  0.20907161036E+02  0.29279599084E+02  0.00000000000E+00 0.  1.
</event>
<event>
 5    1  0.1766634E-003  0.9118800E+02  0.7818608E-02  0.1130116E+00
         25   -1    0    0    0    0  0.00000000000E+00  0.00000000000E+00  0.99999998245E-14  0.12500000000E+03  0.12500000000E+03 0.  0.
        -13    1    3    3    0    0 -0.23248302048E+01 -0.19293352565E+02  0.25822321272E+02  0.32317823698E+02  0.10566000000E+00 0. -1.
         23    2    1    0    0    0 -0.20287473389E+02  0.69502275921E+01 -0.24870486451E+02  0.92160567356E+02  0.86111217846E+02 0.  0.
         13    1    3    3    0    0 -0.17962643184E+02  0.26243580157E+02 -0.50692807723E+02  0.59842743658E+02  0.10566000000E+00 0.  1.
         22    1    1    0    0    0  0.20287473389E+02 -0.69502275921E+01  0.24870486451E+02  0.32839432644E+02  0.00000000000E+00 0.  1.
</event>
<event>
 5    1  0.1766634E-003  0.9118800E+02  0.7818608E-02  0.1130116E+00
         25   -1    0    0    0    0  0.00000000000E+00  0.00000000000E+00  0.99999998245E-14  0.12500000000E+03  0.12500000000E+03 0.  0.
        -13    1    3    3    0    0 -0.37509641335E+02  0.28076149004E+02  0.33029389523E+02  0.57325344066E+02  0.10566000000E+00 0.  1.
         23    2    1    0    0    0 -0.54588308352E+01  0.26028098116E+02  0.11285153117E+02  0.96110288916E+02  0.91665545485E+02 0.  0.
         13    1    3    3    0    0  0.32050810500E+02 -0.20480508878E+01 -0.21744236406E+02  0.38784944850E+02  0.10566000000E+00 0. -1.
         22    1    1    0    0    0  0.54588308352E+01 -0.26028098116E+02 -0.11285153117E+02  0.28889711084E+02  0.00000000000E+00 0.  1.
</event>
<event>
 5    1  0.1766634E-003  0.9118800E+02  0.7818608E-02  0.1130116E+00
         25   -1    0    0    0    0  0.00000000000E+00  0.00000000000E+00  0.99999998245E-14  0.12500000000E+03  0.12500000000E+03 0.  0.
        -13    1    3    3    0    0  0.28116065737E+02  0.17712552737E+02  0.20638150373E+02  0.39117669816E+02  0.10566000000E+00 0. -1.
         23    2    1    0    0    0 -0.20772367342E+02  0.20873227939E+02 -0.60955153632E+01  0.94927783634E+02  0.90038580112E+02 0.  0.
         13    1    3    3    0    0 -0.48888433079E+02  0.31606752020E+01 -0.26733665736E+02  0.55810113818E+02  0.10566000000E+00 0.  1.
         22    1    1    0    0    0  0.20772367342E+02 -0.20873227939E+02  0.60955153632E+01  0.30072216366E+02  0.00000000000E+00 0.  1.
</event>
<event>
 5    1  0.1766634E-003  0.9118800E+02  0.7818608E-02  0.1130116E+00
         25   -1    0    0    0    0  0.00000000000E+00  0.00000000000E+00  0.99999998245E-14  0.12500000000E+03  0.12500000000E+03 0.  0.
        -13    1    3    3    0    0 -0.44833647070E+02  0.31403762974E+02  0.18362461693E+01  0.54768925519E+02  0.10566000000E+00 0.  1.
         23    2    1    0    0    0 -0.70799402695E+01  0.25371424375E+02 -0.12808141938E+02  0.95710356285E+02  0.91118544058E+02 0.  0.
         13    1    3    3    0    0  0.37753706800E+02 -0.60323385989E+01 -0.14644388107E+02  0.40941430766E+02  0.10566000000E+00 0. -1.
         22    1    1    0    0    0  0.70799402695E+01 -0.25371424375E+02  0.12808141938E+02  0.29289643715E+02  0.00000000000E+00 0. -1.
</event>
<event>
 5    1  0.1766634E-003  0.9118800E+02  0.7818608E-02  0.1130116E+00
         25   -1    0    0    0    0  0.00000000000E+00  0.00000000000E+00  0.99999998245E-14  0.12500000000E+03  0.12500000000E+03 0.  0.
        -13    1    3    3    0    0  0.35364607925E+02  0.46063513836E+02  0.40021196759E+01  0.58211089378E+02  0.10566000000E+00 0. -1.
         23    2    1    0    0    0  0.26117088744E+02  0.10501162466E+02  0.93395214546E+01  0.95341891520E+02  0.90611659735E+02 0.  0.
         13    1    3    3    0    0 -0.92475191808E+01 -0.35562351370E+02  0.53374017787E+01  0.37130802142E+02  0.10566000000E+00 0.  1.
         22    1    1    0    0    0 -0.26117088744E+02 -0.10501162466E+02 -0.93395214546E+01  0.29658108480E+02  0.00000000000E+00 0. -1.
</event>
<event>
 5    1  0.1766634E-003  0.9118800E+02  0.7818608E-02  0.1130116E+00
         25   -1    0    0    0    0  0.00000000000E+00  0.00000000000E+00  0.99999998245E-14  0.12500000000E+03  0.12500000000E+03 0.  0.
        -13    1    3    3    0    0  0.28240277511E+02  0.17024610215E+02  0.81528133186E+01  0.33968075540E+02  0.10566000000E+00 0. -1.
         23    2    1    0    0    0 -0.75888402305E+01 -0.30130990382E+02 -0.10938712810E+01  0.93908785295E+02  0.88612619439E+02 0.  0.
         13    1    3    3    0    0 -0.35829117741E+02 -0.47155600597E+02 -0.92466845996E+01  0.59940709755E+02  0.10566000000E+00 0.  1.
         22    1    1    0    0    0  0.75888402305E+01  0.30130990382E+02  0.10938712810E+01  0.31091214705E+02  0.00000000000E+00 0.  1.
</event>
<event>
 5    1  0.1766634E-003  0.9118800E+02  0.7818608E-02  0.1130116E+00
         25   -1    0    0    0    0  0.00000000000E+00  0.00000000000E+00  0.99999998245E-14  0.12500000000E+03  0.12500000000E+03 0.  0.
        -13    1    3    3    0    0  0.47351958731E+02 -0.53097647435E+01  0.19470022314E+02  0.51473240915E+02  0.10566000000E+00 0.  1.
         23    2    1    0    0    0  0.11704498436E+02 -0.26733866617E+02  0.58602443033E+01  0.95233620119E+02  0.90462174580E+02 0.  0.
         13    1    3    3    0    0 -0.35647460295E+02 -0.21424101873E+02 -0.13609778011E+02  0.43760379204E+02  0.10566000000E+00 0. -1.
         22    1    1    0    0    0 -0.11704498436E+02  0.26733866617E+02 -0.58602443033E+01  0.29766379881E+02  0.00000000000E+00 0. -1.
</event>
<event>
 5    1  0.1766634E-003  0.9118800E+02  0.7818608E-02  0.1130116E+00
         25   -1    0    0    0    0  0.00000000000E+00  0.00000000000E+00  0.99999998245E-14  0.12500000000E+03  0.12500000000E+03 0.  0.
        -13    1    3    3    0    0  0.59217272612E+02  0.39709173202E+01  0.33913246471E+01  0.59447168199E+02  0.10566000000E+00 0.  1.
         23    2    1    0    0    0  0.25884988848E+02 -0.45115490030E+01 -0.10717187458E+02  0.96623163864E+02  0.92362281078E+02 0.  0.
         13    1    3    3    0    0 -0.33332283764E+02 -0.84824663232E+01 -0.14108512105E+02  0.37175995665E+02  0.10566000000E+00 0. -1.
         22    1    1    0    0    0 -0.25884988848E+02  0.45115490030E+01  0.10717187458E+02  0.28376836136E+02  0.00000000000E+00 0.  1.
</event>
<event>
 5    1  0.1766634E-003  0.9118800E+02  0.7818608E-02  0.1130116E+00
         25   -1    0    0    0    0  0.00000000000E+00  0.00000000000E+00  0.99999998245E-14  0.12500000000E+03  0.12500000000E+03 0.  0.
        -13    1    3    3    0    0 -0.10283135555E+02  0.26505948799E+02  0.13019910400E+02  0.31270392218E+02  0.10566000000E+00 0.  1.
         23    2    1    0    0    0 -0.14638387229E+02 -0.26716819146E+02  0.24517960234E+02  0.85894998018E+02  0.76477117523E+02 0.  0.
         13    1    3    3    0    0 -0.43552516744E+01 -0.53222767945E+02  0.11498049834E+02  0.54624605801E+02  0.10566000000E+00 0. -1.
         22    1    1    0    0    0  0.14638387229E+02  0.26716819146E+02 -0.24517960234E+02  0.39105001982E+02  0.00000000000E+00 0. -1.
</event>
<event>
 5    1  0.1766634E-003  0.9118800E+02  0.7818608E-02  0.1130116E+00
         25   -1    0    0    0    0  0.00000000000E+00  0.00000000000E+00  0.99999998245E-14  0.12500000000E+03  0.12500000000E+03 0.  0.
        -13    1    3    3    0    0  0.30023670674E+02 -0.38789541846E+02 -0.12498026261E+02  0.50618782896E+02  0.10566000000E+00 0.  1.
         23    2    1    0    0    0  0.12186123734E+02 -0.15341282208E+02  0.21704217278E+02  0.95760820821E+02  0.91187747013E+02 0.  0.
         13    1    3    3    0    0 -0.17837546940E+02  0.23448259639E+02  0.34202243539E+02  0.45142037925E+02  0.10566000000E+00 0. -1.
         22    1    1    0    0    0 -0.12186123734E+02  0.15341282208E+02 -0.21704217278E+02  0.29239179179E+02  0.00000000000E+00 0.  1.
</event>
<event>
 5    1  0.1766634E-003  0.9118800E+02  0.7818608E-02  0.1130116E+00
         25   -1    0    0    0    0  0.00000000000E+00  0.00000000000E+00  0.99999998245E-14  0.12500000000E+03  0.12500000000E+03 0.  0.
        -13    1    3    3    0    0 -0.49259326283E+02 -0.43028978023E+01 -0.35932679856E+02  0.61124175258E+02  0.10566000000E+00 0. -1.
         23    2    1    0    0    0 -0.21381224573E+02 -0.11111456898E+02 -0.17205880100E+02  0.95391495333E+02  0.90680063042E+02 0.  0.
         13    1    3    3    0    0  0.27878101710E+02 -0.68085590955E+01  0.18726799757E+02  0.34267320074E+02  0.10566000000E+00 0.  1.
         22    1    1    0    0    0  0.21381224573E+02  0.11111456898E+02  0.17205880100E+02  0.29608504667E+02  0.00000000000E+00 0. -1.
</event>
<event>
 5    1  0.1766634E-003  0.9118800E+02  0.7818608E-02  0.1130116E+00
         25   -1    0    0    0    0  0.00000000000E+00  0.00000000000E+00  0.99999998245E-14  0.12500000000E+03  0.12500000000E+03 0.  0.
        -13    1    3    3    0    0 -0.53858297478E+01  0.40655363754E+02  0.34468879833E+02  0.53572199927E+02  0.10566000000E+00 0. -1.
         23    2    1    0    0    0  0.19346180295E+02  0.66240593314E+01  0.12519757286E+02  0.10102298650E+03  0.98136367490E+02 0.  0.
         13    1    3    3    0    0  0.24732010043E+02 -0.34031304422E+02 -0.21949122547E+02  0.47450786570E+02  0.10566000000E+00 0.  1.
         22    1    1    0    0    0 -0.19346180295E+02 -0.66240593314E+01 -0.12519757286E+02  0.23977013503E+02  0.00000000000E+00 0. -1.
</event>
<event>
 5    1  0.1766634E-003  0.9118800E+02  0.7818608E-02  0.1130116E+00
         25   -1    0    0    0    0  0.00000000000E+00  0.00000000000E+00  0.99999998245E-14  0.12500000000E+03  0.12500000000E+03 0.  0.
        -13    1    3    3    0    0 -0.56336928802E+00  0.35902321008E+02 -0.43094253546E+02  0.56092957593E+02  0.10566000000E+00 0. -1.
         23    2    1    0    0    0 -0.41486034359E+01 -0.12774339015E+01 -0.28461714279E+02  0.96209169384E+02  0.91800285109E+02 0.  0.
         13    1    3    3    0    0 -0.35852341479E+01 -0.37179754910E+02  0.14632539267E+02  0.40116211791E+02  0.10566000000E+00 0.  1.
         22    1    1    0    0    0  0.41486034359E+01  0.12774339015E+01  0.28461714279E+02  0.28790830616E+02  0.00000000000E+00 0. -1.
</event>
<event>
 5    1  0.1766634E-003  0.9118800E+02  0.7818608E-02  0.1130116E+00
         25   -1    0    0    0    0  0.00000000000E+00  0.00000000000E+00  0.99999998245E-14  0.12500000000E+03  0.12500000000E+03 0.  0.
        -13    1    3    3    0    0 -0.44820240224E+02  0.22590687878E+02  0.34516705764E+02  0.60914753987E+02  0.10566000000E+00 0. -1.
         23    2    1    0    0    0 -0.19113867926E+02  0.18329978562E+02  0.10000892692E+02  0.96691946096E+02  0.92455321772E+02 0.  0.
         13    1    3    3    0    0  0.25706372297E+02 -0.42607093163E+01 -0.24515813072E+02  0.35777192109E+02  0.10566000000E+00 0.  1.
         22    1    1    0    0    0  0.19113867926E+02 -0.18329978562E+02 -0.10000892692E+02  0.28308053904E+02  0.00000000000E+00 0. -1.
</event>
<event>
 5    1  0.1766634E-003  0.9118800E+02  0.7818608E-02  0.1130116E+00
         25   -1    0    0    0    0  0.00000000000E+00  0.00000000000E+00  0.99999998245E-14  0.12500000000E+03  0.12500000000E+03 0.  0.
        -13    1    3    3    0    0  0.13680406601E+02  0.17115479921E+02  0.37115325796E+02  0.43100484344E+02  0.10566000000E+00 0. -1.
         23    2    1    0    0    0  0.21017958752E+02 -0.17749599688E+02 -0.36584651391E+01  0.97247752409E+02  0.93203745109E+02 0.  0.
         13    1    3    3    0    0  0.73375521503E+01 -0.34865079609E+02 -0.40773790935E+02  0.54147268065E+02  0.10566000000E+00 0.  1.
         22    1    1    0    0    0 -0.21017958752E+02  0.17749599688E+02  0.36584651391E+01  0.27752247591E+02  0.00000000000E+00 0.  1.
</event>
<event>
 5    1  0.1766634E-003  0.9118800E+02  0.7818608E-02  0.1130116E+00
         25   -1    0    0    0    0  0.00000000000E+00  0.00000000000E+00  0.99999998245E-14  0.12500000000E+03  0.12500000000E+03 0.  0.
        -13    1    3    3    0    0 -0.53732119683E+02  0.17054305760E+02  0.29791404967E+01  0.56452426633E+02  0.10566000000E+00 0. -1.
         23    2    1    0    0    0 -0.20982242284E+02  0.60531138634E+01  0.20374795133E+02  0.95133179690E+02  0.90323280069E+02 0.  0.
         13    1    3    3    0    0  0.32749877399E+02 -0.11001191896E+02  0.17395654636E+02  0.38680753057E+02  0.10566000000E+00 0.  1.
         22    1    1    0    0    0  0.20982242284E+02 -0.60531138634E+01 -0.20374795133E+02  0.29866820310E+02  0.00000000000E+00 0. -1.
</event>
<event>
 5    1  0.1766634E-003  0.9118800E+02  0.7818608E-02  0.1130116E+00
         25   -1    0    0    0    0  0.00000000000E+00  0.00000000000E+00  0.99999998245E-14  0.12500000000E+03  0.12500000000E+03 0.  0.
        -13    1    3    3    0    0  0.23793038234E+02  0.43078606506E+02 -0.76789451007E+01  0.49808155646E+02  0.10566000000E+00 0. -1.
         23    2    1    0    0    0  0.23358199625E+01  0.86337947989E+01 -0.28294165601E+02  0.95325797828E+02  0.90589455550E+02 0.  0.
         13    1    3    3    0    0 -0.21457218272E+02 -0.34444811707E+02 -0.20615220500E+02  0.45517642182E+02  0.10566000000E+00 0.  1.
         22    1    1    0    0    0 -0.23358199625E+01 -0.86337947989E+01  0.28294165601E+02  0.29674202172E+02  0.00000000000E+00 0. -1.
</event>
<event>
 5    1  0.1766634E-003  0.9118800E+02  0.7818608E-02  0.1130116E+00
         25   -1    0    0    0    0  0.00000000000E+00  0.00000000000E+00  0.99999998245E-14  0.12500000000E+03  0.12500000000E+03 0.  0.
        -13    1    3    3    0    0 -0.12594564720E+02  0.14174721843E+02 -0.33043038866E+02  0.38097235876E+02  0.10566000000E+00 0.  1.
         23    2    1    0    0    0  0.27524447292E+02 -0.94507042854E+01  0.11700357406E+01  0.95874753326E+02  0.91343791970E+02 0.  0.
         13    1    3    3    0    0  0.40119012012E+02 -0.23625426128E+02  0.34213074607E+02  0.57777517450E+02  0.10566000000E+00 0. -1.
         22    1    1    0    0    0 -0.27524447292E+02  0.94507042854E+01 -0.11700357406E+01  0.29125246674E+02  0.00000000000E+00 0. -1.
</event>
<event>
 5    1  0.1766634E-003  0.9118800E+02  0.7818608E-02  0.1130116E+00
         25   -1    0    0    0    0  0.00000000000E+00  0.00000000000E+00  0.99999998245E-14  0.12500000000E+03  0.12500000000E+03 0.  0.
        -13    1    3    3    0    0 -0.48796623449E+02 -0.18036192843E+02 -0.14672536648E+02  0.54052837188E+02  0.10566000000E+00 0.  1.
         23    2    1    0    0    0 -0.20229460320E+02 -0.70729674927E+01  0.16665803941E+02  0.97852127984E+02  0.94010807869E+02 0.  0.
         13    1    3    3    0    0  0.28567163130E+02  0.10963225351E+02  0.31338340589E+02  0.43799290797E+02  0.10566000000E+00 0. -1.
         22    1    1    0    0    0  0.20229460320E+02  0.70729674927E+01 -0.16665803941E+02  0.27147872016E+02  0.00000000000E+00 0.  1.
</event>
<event>
 5    1  0.1766634E-003  0.9118800E+02  0.7818608E-02  0.1130116E+00
         25   -1    0    0    0    0  0.00000000000E+00  0.00000000000E+00  0.99999998245E-14  0.12500000000E+03  0.12500000000E+03 0.  0.
        -13    1    3    3    0    0 -0.29187132270E+02 -0.27298647237E+02 -0.14094831364E+02  0.42376647653E+02  0.10566000000E+00 0. -1.
         23    2    1    0    0    0 -0.20185770027E+02  0.61483507526E+00  0.26015456123E+02  0.92066016168E+02  0.85973856735E+02 0.  0.
         13    1    3    3    0    0  0.90013622423E+01  0.27913482312E+02  0.40110287487E+02  0.49689368515E+02  0.10566000000E+00 0.  1.
         22    1    1    0    0    0  0.20185770027E+02 -0.61483507526E+00 -0.26015456123E+02  0.32933983832E+02  0.00000000000E+00 0. -1.
</event>
<event>
 5    1  0.1766634E-003  0.9118800E+02  0.7818608E-02  0.1130116E+00
         25   -1    0    0    0    0  0.00000000000E+00  0.00000000000E+00  0.99999998245E-14  0.12500000000E+03  0.12500000000E+03 0.  0.
        -13    1    3    3    0    0  0.33090639875E+02 -0.81211496451E+01  0.10126584558E+02  0.35545778902E+02  0.10566000000E+00 0. -1.
         23    2    1    0    0    0 -0.13361469111E+02  0.12121348201E+02 -0.22762905875E+02  0.95955106768E+02  0.91453686049E+02 0.  0.
         13    1    3    3    0    0 -0.46452108985E+02  0.20242497846E+02 -0.32889490433E+02  0.60409327866E+02  0.10566000000E+00 0.  1.
         22    1    1    0    0    0  0.13361469111E+02 -0.12121348201E+02  0.22762905875E+02  0.29044893232E+02  0.00000000000E+00 0.  1.
</event>
<event>
 5    1  0.1766634E-003  0.9118800E+02  0.7818608E-02  0.1130116E+00
         25   -1    0    0    0    0  0.00000000000E+00  0.00000000000E+00  0.99999998245E-14  0.12500000000E+03  0.12500000000E+03 0.  0.
        -13    1    3    3    0    0 -0.28357222565E+02  0.11753218868E+02 -0.23176455270E+02  0.38463352276E+02  0.10566000000E+00 0.  1.
         23    2    1    0    0    0 -0.56503169206E+01 -0.21500369304E+02  0.18252172042E+02  0.96236590157E+02  0.91837615057E+02 0.  0.
         13    1    3    3    0    0  0.22706905644E+02 -0.33253588172E+02  0.41428627313E+02  0.57773237882E+02  0.10566000000E+00 0. -1.
         22    1    1    0    0    0  0.56503169206E+01  0.21500369304E+02 -0.18252172042E+02  0.28763409843E+02  0.00000000000E+00 0. -1.
</event>
<event>
 5    1  0.1766634E-003  0.9118800E+02  0.7818608E-02  0.1130116E+00
         25   -1    0    0    0    0  0.00000000000E+00  0.00000000000E+00  0.99999998245E-14  0.12500000000E+03  0.12500000000E+03 0.  0.
        -13    1    3    3    0    0 -0.35129497188E+02  0.30616492786E+01 -0.45492430256E+02  0.57558905858E+02  0.10566000000E+00 0.  1.
         23    2    1    0    0    0  0.10921055245E+01  0.93620285052E+01 -0.21672948464E+02  0.10136619017E+03  0.98572549634E+02 0.  0.
         13    1    3    3    0    0  0.36221602713E+02  0.63003792266E+01  0.23819481792E+02  0.43807284307E+02  0.10566000000E+00 0. -1.
         22    1    1    0    0    0 -0.10921055245E+01 -0.93620285052E+01  0.21672948464E+02  0.23633809835E+02  0.00000000000E+00 0.  1.
</event>
<event>
 5    1  0.1766634E-003  0.9118800E+02  0.7818608E-02  0.1130116E+00
         25   -1    0    0    0    0  0.00000000000E+00  0.00000000000E+00  0.99999998245E-14  0.12500000000E+03  0.12500000000E+03 0.  0.
        -13    1    3    3    0    0  0.27066297468E+02  0.38537884840E+02  0.58492148749E+01  0.47455005060E+02  0.10566000000E+00 0.  1.
         23    2    1    0    0    0  0.17685612418E+02  0.35695467036E+01  0.29299501019E+02  0.90590941450E+02  0.83801762288E+02 0.  0.
         13    1    3    3    0    0 -0.93806850497E+01 -0.34968338136E+02  0.23450286144E+02  0.43135936391E+02  0.10566000000E+00 0. -1.
         22    1    1    0    0    0 -0.17685612418E+02 -0.35695467036E+01 -0.29299501019E+02  0.34409058550E+02  0.00000000000E+00 0.  1.
</event>
<event>
 5    1  0.1766634E-003  0.9118800E+02  0.7818608E-02  0.1130116E+00
         25   -1    0    0    0    0  0.00000000000E+00  0.00000000000E+00  0.99999998245E-14  0.12500000000E+03  0.12500000000E+03 0.  0.
        -13    1    3    3    0    0 -0.43481779102E+02  0.41637367373E+01  0.19197134664E+02  0.47713131953E+02  0.10566000000E+00 0.  1.
         23    2    1    0    0    0 -0.11687038144E+02  0.17963185107E+02 -0.16863492136E+02  0.97730232000E+02  0.93848590826E+02 0.  0.
         13    1    3    3    0    0  0.31794740958E+02  0.13799448369E+02 -0.36060626800E+02  0.50017100047E+02  0.10566000000E+00 0. -1.
         22    1    1    0    0    0  0.11687038144E+02 -0.17963185107E+02  0.16863492136E+02  0.27269768000E+02  0.00000000000E+00 0. -1.
</event>
<event>
 5    1  0.1766634E-003  0.9118800E+02  0.7818608E-02  0.1130116E+00
         25   -1    0    0    0    0  0.00000000000E+00  0.00000000000E+00  0.99999998245E-14  0.12500000000E+03  0.12500000000E+03 0.  0.
        -13    1    3    3    0    0 -0.41793499569E+02  0.30896556318E+02  0.10655758313E+02  0.53055161368E+02  0.10566000000E+00 0.  1.
         23    2    1    0    0    0 -0.19407610665E+02 -0.29594802574E+01  0.22309166426E+02  0.95282786441E+02  0.90530086768E+02 0.  0.
         13    1    3    3    0    0  0.22385888904E+02 -0.33856036575E+02  0.11653408113E+02  0.42227625073E+02  0.10566000000E+00 0. -1.
         22    1    1    0    0    0  0.19407610665E+02  0.29594802574E+01 -0.22309166426E+02  0.29717213559E+02  0.00000000000E+00 0.  1.
</event>
<event>
 5    1  0.1766634E-003  0.9118800E+02  0.7818608E-02  0.1130116E+00
         25   -1    0    0    0    0  0.00000000000E+00  0.00000000000E+00  0.99999998245E-14  0.12500000000E+03  0.12500000000E+03 0.  0.
        -13    1    3    3    0    0 -0.24812198046E+02 -0.12239249096E+02 -0.34128470564E+02  0.43934133170E+02  0.10566000000E+00 0.  1.
         23    2    1    0    0    0 -0.22518433645E+02  0.11782666725E+02  0.12680626583E+02  0.96597370201E+02  0.92327366204E+02 0.  0.
         13    1    3    3    0    0  0.22937644010E+01  0.24021915821E+02  0.46809097147E+02  0.52663237031E+02  0.10566000000E+00 0. -1.
         22    1    1    0    0    0  0.22518433645E+02 -0.11782666725E+02 -0.12680626583E+02  0.28402629799E+02  0.00000000000E+00 0. -1.
</event>
<event>
 5    1  0.1766634E-003  0.9118800E+02  0.7818608E-02  0.1130116E+00
         25   -1    0    0    0    0  0.00000000000E+00  0.00000000000E+00  0.99999998245E-14  0.12500000000E+03  0.12500000000E+03 0.  0.
        -13    1    3    3    0    0  0.16660335034E+02  0.79416255697E+01  0.36564994371E+02  0.40959079061E+02  0.10566000000E+00 0. -1.
         23    2    1    0    0    0  0.12590219276E+02  0.19189516545E+02 -0.17377725797E+02  0.96212215776E+02  0.91804433140E+02 0.  0.
         13    1    3    3    0    0 -0.40701157585E+01  0.11247890975E+02 -0.53942720168E+02  0.55253136715E+02  0.10566000000E+00 0.  1.
         22    1    1    0    0    0 -0.12590219276E+02 -0.19189516545E+02  0.17377725797E+02  0.28787784224E+02  0.00000000000E+00 0.  1.
</event>
<event>
 5    1  0.1766634E-003  0.9118800E+02  0.7818608E-02  0.1130116E+00
         25   -1    0    0    0    0  0.00000000000E+00  0.00000000000E+00  0.99999998245E-14  0.12500000000E+03  0.12500000000E+03 0.  0.
        -13    1    3    3    0    0  0.16376377001E+02 -0.58728598798E+01  0.29744965367E+02  0.34459401266E+02  0.10566000000E+00 0. -1.
         23    2    1    0    0    0 -0.93040470377E+01 -0.14049694489E+02 -0.24635853380E+02  0.95152312011E+02  0.90349753750E+02 0.  0.
         13    1    3    3    0    0 -0.25680424039E+02 -0.81768346096E+01 -0.54380818747E+02  0.60692910745E+02  0.10566000000E+00 0.  1.
         22    1    1    0    0    0  0.93040470377E+01  0.14049694489E+02  0.24635853380E+02  0.29847687989E+02  0.00000000000E+00 0.  1.
</event>
<event>
 5    1  0.1766634E-003  0.9118800E+02  0.7818608E-02  0.1130116E+00
         25   -1    0    0    0    0  0.00000000000E+00  0.00000000000E+00  0.99999998245E-14  0.12500000000E+03  0.12500000000E+03 0.  0.
        -13    1    3    3    0    0 -0.27025312260E+02  0.33757514579E+02  0.90583559960E+01  0.44181469766E+02  0.10566000000E+00 0.  1.
         23    2    1    0    0    0  0.11993108826E+02  0.16904516921E+02 -0.20418334841E+02  0.95905228144E+02  0.91385485916E+02 0.  0.
         13    1    3    3    0    0  0.39018421086E+02 -0.16852997658E+02 -0.29476690837E+02  0.51723758379E+02  0.10566000000E+00 0. -1.
         22    1    1    0    0    0 -0.11993108826E+02 -0.16904516921E+02  0.20418334841E+02  0.29094771856E+02  0.00000000000E+00 0. -1.
</event>
<event>
 5    1  0.1766634E-003  0.9118800E+02  0.7818608E-02  0.1130116E+00
         25   -1    0    0    0    0  0.00000000000E+00  0.00000000000E+00  0.99999998245E-14  0.12500000000E+03  0.12500000000E+03 0.  0.
        -13    1    3    3    0    0  0.18329548396E+02 -0.12330215795E+02 -0.32793677574E+02  0.39540397302E+02  0.10566000000E+00 0. -1.
         23    2    1    0    0    0 -0.28722248367E+02  0.85156876930E+00 -0.47628055259E+01  0.95873087409E+02  0.91341512207E+02 0.  0.
         13    1    3    3    0    0 -0.47051796762E+02  0.13181784565E+02  0.28030872048E+02  0.56332690107E+02  0.10566000000E+00 0.  1.
         22    1    1    0    0    0  0.28722248367E+02 -0.85156876930E+00  0.47628055259E+01  0.29126912591E+02  0.00000000000E+00 0.  1.
</event>
<event>
 5    1  0.1766634E-003  0.9118800E+02  0.7818608E-02  0.1130116E+00
         25   -1    0    0    0    0  0.00000000000E+00  0.00000000000E+00  0.99999998245E-14  0.12500000000E+03  0.12500000000E+03 0.  0.
        -13    1    3    3    0    0 -0.44992965918E+02  0.21447550161E+02  0.36678559379E+02  0.61884507530E+02  0.10566000000E+00 0.  1.
         23    2    1    0    0    0 -0.17850302696E+02  0.15346086189E+02  0.16438632244E+02  0.96288255056E+02  0.91907909149E+02 0.  0.
         13    1    3    3    0    0  0.27142663223E+02 -0.61014639714E+01 -0.20239927135E+02  0.34403747527E+02  0.10566000000E+00 0. -1.
         22    1    1    0    0    0  0.17850302696E+02 -0.15346086189E+02 -0.16438632244E+02  0.28711744944E+02  0.00000000000E+00 0.  1.
</event>
<event>
 5    1  0.1766634E-003  0.9118800E+02  0.7818608E-02  0.1130116E+00
         25   -1    0    0    0    0  0.00000000000E+00  0.00000000000E+00  0.99999998245E-14  0.12500000000E+03  0.12500000000E+03 0.  0.
        -13    1    3    3    0    0  0.37484227622E+02 -0.56949926484E+01  0.49046627903E+02  0.61992605481E+02  0.10566000000E+00 0. -1.
         23    2    1    0    0    0  0.19519719955E+02  0.22808417473E+01  0.21029415247E+02  0.96217053455E+02  0.91811019838E+02 0.  0.
         13    1    3    3    0    0 -0.17964507667E+02  0.79758343956E+01 -0.28017212656E+02  0.34224447973E+02  0.10566000000E+00 0.  1.
         22    1    1    0    0    0 -0.19519719955E+02 -0.22808417473E+01 -0.21029415247E+02  0.28782946545E+02  0.00000000000E+00 0. -1.
</event>
<event>
 5    1  0.1766634E-003  0.9118800E+02  0.7818608E-02  0.1130116E+00
         25   -1    0    0    0    0  0.00000000000E+00  0.00000000000E+00  0.99999998245E-14  0.12500000000E+03  0.12500000000E+03 0.  0.
        -13    1    3    3    0    0 -0.53016788739E+02  0.67187266667E+01 -0.16291596180E+02  0.55869029402E+02  0.10566000000E+00 0. -1.
         23    2    1    0    0    0 -0.21694403496E+02  0.19939172296E+02  0.36898840758E+01  0.95304327261E+02  0.90559824510E+02 0.  0.
         13    1    3    3    0    0  0.31322385243E+02  0.13220445630E+02  0.19981480256E+02  0.39435297859E+02  0.10566000000E+00 0.  1.
         22    1    1    0    0    0  0.21694403496E+02 -0.19939172296E+02 -0.36898840758E+01  0.29695672739E+02  0.00000000000E+00 0. -1.
</event>
<event>
 5    1  0.1766634E-003  0.9118800E+02  0.7818608E-02  0.1130116E+00
         25   -1    0    0    0    0  0.00000000000E+00  0.00000000000E+00  0.99999998245E-14  0.12500000000E+03  0.12500000000E+03 0.  0.
        -13    1    3    3    0    0 -0.41330162783E+02 -0.11757474388E+02 -0.34556686041E+02  0.55141602025E+02  0.10566000000E+00 0.  1.
         23    2    1    0    0    0 -0.27001408957E+02 -0.76089912600E+01  0.41668879960E+01  0.96639185674E+02  0.92383961912E+02 0.  0.
         13    1    3    3    0    0  0.14328753826E+02  0.41484831279E+01  0.38723574037E+02  0.41497583649E+02  0.10566000000E+00 0. -1.
         22    1    1    0    0    0  0.27001408957E+02  0.76089912600E+01 -0.41668879960E+01  0.28360814326E+02  0.00000000000E+00 0.  1.
</event>
<event>
 5    1  0.1766634E-003  0.9118800E+02  0.7818608E-02  0.1130116E+00
         25   -1    0    0    0    0  0.00000000000E+00  0.00000000000E+00  0.99999998245E-14  0.12500000000E+03  0.12500000000E+03 0.  0.
        -13    1    3    3    0    0 -0.33503872277E+02  0.45739763951E+02 -0.11744177997E+02  0.57901401924E+02  0.10566000000E+00 0.  1.
         23    2    1    0    0    0 -0.86899270436E+00  0.28974767898E+02 -0.15965166198E+01  0.95968272728E+02  0.91471679672E+02 0.  0.
         13    1    3    3    0    0  0.32634879573E+02 -0.16764996053E+02  0.10147661377E+02  0.38066870804E+02  0.10566000000E+00 0. -1.
         22    1    1    0    0    0  0.86899270436E+00 -0.28974767898E+02  0.15965166198E+01  0.29031727272E+02  0.00000000000E+00 0.  1.
</event>
<event>
 5    1  0.1766634E-003  0.9118800E+02  0.7818608E-02  0.1130116E+00
         25   -1    0    0    0    0  0.00000000000E+00  0.00000000000E+00  0.99999998245E-14  0.12500000000E+03  0.12500000000E+03 0.  0.
        -13    1    3    3    0    0  0.19375595902E+02  0.28447312999E+02 -0.28929681079E+02  0.44962216858E+02  0.10566000000E+00 0. -1.
         23    2    1    0    0    0  0.26607931165E+02 -0.56388371724E+01  0.88881838531E+01  0.96385697671E+02  0.92040341252E+02 0.  0.
         13    1    3    3    0    0  0.72323352635E+01 -0.34086150172E+02  0.37817864932E+02  0.51423480813E+02  0.10566000000E+00 0.  1.
         22    1    1    0    0    0 -0.26607931165E+02  0.56388371724E+01 -0.88881838531E+01  0.28614302329E+02  0.00000000000E+00 0.  1.
</event>
<event>
 5    1  0.1766634E-003  0.9118800E+02  0.7818608E-02  0.1130116E+00
         25   -1    0    0    0    0  0.00000000000E+00  0.00000000000E+00  0.99999998245E-14  0.12500000000E+03  0.12500000000E+03 0.  0.
        -13    1    3    3    0    0  0.17421668017E+01  0.50868748805E+02  0.18045128595E+02  0.54002801596E+02  0.10566000000E+00 0. -1.
         23    2    1    0    0    0 -0.22045124062E+02  0.21659750951E+02  0.63198954704E+01  0.93455216201E+02  0.87970472604E+02 0.  0.
         13    1    3    3    0    0 -0.23787290864E+02 -0.29208997854E+02 -0.11725233124E+02  0.39452414605E+02  0.10566000000E+00 0.  1.
         22    1    1    0    0    0  0.22045124062E+02 -0.21659750951E+02 -0.63198954704E+01  0.31544783799E+02  0.00000000000E+00 0. -1.
</event>
<event>
 5    1  0.1766634E-003  0.9118800E+02  0.7818608E-02  0.1130116E+00
         25   -1    0    0    0    0  0.00000000000E+00  0.00000000000E+00  0.99999998245E-14  0.12500000000E+03  0.12500000000E+03 0.  0.
        -13    1    3    3    0    0 -0.24036321996E+02 -0.32413826658E+01 -0.22513627780E+02  0.33092687055E+02  0.10566000000E+00 0.  1.
         23    2    1    0    0    0  0.24619839677E+02 -0.85412479494E+01  0.15155356977E+02  0.94854116908E+02  0.89936250906E+02 0.  0.
         13    1    3    3    0    0  0.48656161674E+02 -0.52998652836E+01  0.37668984757E+02  0.61761429853E+02  0.10566000000E+00 0. -1.
         22    1    1    0    0    0 -0.24619839677E+02  0.85412479494E+01 -0.15155356977E+02  0.30145883092E+02  0.00000000000E+00 0. -1.
</event>
<event>
 5    1  0.1766634E-003  0.9118800E+02  0.7818608E-02  0.1130116E+00
         25   -1    0    0    0    0  0.00000000000E+00  0.00000000000E+00  0.99999998245E-14  0.12500000000E+03  0.12500000000E+03 0.  0.
        -13    1    3    3    0    0 -0.51476656345E+02 -0.14247153006E+02 -0.20102447476E+02  0.57069668615E+02  0.10566000000E+00 0.  1.
         23    2    1    0    0    0 -0.21433178144E+02 -0.19611911084E+02  0.36193498558E+01  0.95723595250E+02  0.91136703981E+02 0.  0.
         13    1    3    3    0    0  0.30043478201E+02 -0.53647580778E+01  0.23721797332E+02  0.38653926635E+02  0.10566000000E+00 0. -1.
         22    1    1    0    0    0  0.21433178144E+02  0.19611911084E+02 -0.36193498558E+01  0.29276404750E+02  0.00000000000E+00 0.  1.
</event>
<event>
 5    1  0.1766634E-003  0.9118800E+02  0.7818608E-02  0.1130116E+00
         25   -1    0    0    0    0  0.00000000000E+00  0.00000000000E+00  0.99999998245E-14  0.12500000000E+03  0.12500000000E+03 0.  0.
        -13    1    3    3    0    0  0.76423104280E+01 -0.26270898482E+02  0.27489476556E+02  0.38784629702E+02  0.10566000000E+00 0.  1.
         23    2    1    0    0    0 -0.22893722284E+02 -0.96974405998E+01 -0.16738673775E+02  0.95027578110E+02  0.90177017735E+02 0.  0.
         13    1    3    3    0    0 -0.30536032712E+02  0.16573457882E+02 -0.44228150331E+02  0.56242948409E+02  0.10566000000E+00 0. -1.
         22    1    1    0    0    0  0.22893722284E+02  0.96974405998E+01  0.16738673775E+02  0.29972421890E+02  0.00000000000E+00 0. -1.
</event>
<event>
 5    1  0.1766634E-003  0.9118800E+02  0.7818608E-02  0.1130116E+00
         25   -1    0    0    0    0  0.00000000000E+00  0.00000000000E+00  0.99999998245E-14  0.12500000000E+03  0.12500000000E+03 0.  0.
        -13    1    3    3    0    0  0.60587160853E+02  0.10421589634E+01  0.47926702561E+01  0.60785450625E+02  0.10566000000E+00 0.  1.
         23    2    1    0    0    0  0.25438594002E+02  0.92598075754E+01 -0.31509238309E+01  0.97745744880E+02  0.93869250663E+02 0.  0.
         13    1    3    3    0    0 -0.35148566851E+02  0.82176486120E+01 -0.79435940870E+01  0.36960294255E+02  0.10566000000E+00 0. -1.
         22    1    1    0    0    0 -0.25438594002E+02 -0.92598075754E+01  0.31509238309E+01  0.27254255120E+02  0.00000000000E+00 0.  1.
</event>
<event>
 5    1  0.1766634E-003  0.9118800E+02  0.7818608E-02  0.1130116E+00
         25   -1    0    0    0    0  0.00000000000E+00  0.00000000000E+00  0.99999998245E-14  0.12500000000E+03  0.12500000000E+03 0.  0.
        -13    1    3    3    0    0 -0.29131980295E+02 -0.17873161668E+02  0.24110276375E+02  0.41826292865E+02  0.10566000000E+00 0.  1.
         23    2    1    0    0    0 -0.72567780224E+01  0.27922586111E+02  0.86602649168E+01  0.94878050680E+02  0.89969509669E+02 0.  0.
         13    1    3    3    0    0  0.21875202273E+02  0.45795747779E+02 -0.15450011458E+02  0.53051757815E+02  0.10566000000E+00 0. -1.
         22    1    1    0    0    0  0.72567780224E+01 -0.27922586111E+02 -0.86602649168E+01  0.30121949320E+02  0.00000000000E+00 0. -1.
</event>
<event>
 5    1  0.1766634E-003  0.9118800E+02  0.7818608E-02  0.1130116E+00
         25   -1    0    0    0    0  0.00000000000E+00  0.00000000000E+00  0.99999998245E-14  0.12500000000E+03  0.12500000000E+03 0.  0.
        -13    1    3    3    0    0  0.37520777277E+02  0.38711194700E+01  0.32376133800E+02  0.49709350200E+02  0.10566000000E+00 0. -1.
         23    2    1    0    0    0  0.18137804007E+02  0.21599911222E+02 -0.59505191678E+01  0.96173887231E+02  0.91752230533E+02 0.  0.
         13    1    3    3    0    0 -0.19382973270E+02  0.17728791752E+02 -0.38326652968E+02  0.46464537031E+02  0.10566000000E+00 0.  1.
         22    1    1    0    0    0 -0.18137804007E+02 -0.21599911222E+02  0.59505191678E+01  0.28826112769E+02  0.00000000000E+00 0.  1.
</event>
<event>
 5    1  0.1766634E-003  0.9118800E+02  0.7818608E-02  0.1130116E+00
         25   -1    0    0    0    0  0.00000000000E+00  0.00000000000E+00  0.99999998245E-14  0.12500000000E+03  0.12500000000E+03 0.  0.
        -13    1    3    3    0    0 -0.33958495056E+02  0.27188926463E+02 -0.31575915301E+02  0.53753759866E+02  0.10566000000E+00 0. -1.
         23    2    1    0    0    0 -0.16365364859E+02  0.24146322978E+02  0.58764165078E+01  0.95244288762E+02  0.90476915235E+02 0.  0.
         13    1    3    3    0    0  0.17593130197E+02 -0.30426034851E+01  0.37452331808E+02  0.41490528895E+02  0.10566000000E+00 0.  1.
         22    1    1    0    0    0  0.16365364859E+02 -0.24146322978E+02 -0.58764165078E+01  0.29755711238E+02  0.00000000000E+00 0. -1.
</event>
<event>
 5    1  0.1766634E-003  0.9118800E+02  0.7818608E-02  0.1130116E+00
         25   -1    0    0    0    0  0.00000000000E+00  0.00000000000E+00  0.99999998245E-14  0.12500000000E+03  0.12500000000E+03 0.  0.
        -13    1    3    3    0    0 -0.41450525434E+01  0.74401990057E+01  0.48660773968E+02  0.49400608387E+02  0.10566000000E+00 0.  1.
         23    2    1    0    0    0  0.15118349410E+02  0.26657657112E+02  0.25704647486E+02  0.85000949087E+02  0.75001581795E+02 0.  0.
         13    1    3    3    0    0  0.19263401953E+02  0.19217458106E+02 -0.22956126482E+02  0.35600340700E+02  0.10566000000E+00 0. -1.
         22    1    1    0    0    0 -0.15118349410E+02 -0.26657657112E+02 -0.25704647486E+02  0.39999050913E+02  0.00000000000E+00 0. -1.
</event>
<event>
 5    1  0.1766634E-003  0.9118800E+02  0.7818608E-02  0.1130116E+00
         25   -1    0    0    0    0  0.00000000000E+00  0.00000000000E+00  0.99999998245E-14  0.12500000000E+03  0.12500000000E+03 0.  0.
        -13    1    3    3    0    0 -0.26453991199E+02 -0.65663263750E+01 -0.30555721814E+02  0.40946228056E+02  0.10566000000E+00 0. -1.
         23    2    1    0    0    0  0.25364629883E+02  0.26889538353E+01 -0.12494873693E+02  0.96597239740E+02  0.92327189575E+02 0.  0.
         13    1    3    3    0    0  0.51818621081E+02  0.92552802103E+01  0.18060848121E+02  0.55651011684E+02  0.10566000000E+00 0.  1.
         22    1    1    0    0    0 -0.25364629883E+02 -0.26889538353E+01  0.12494873693E+02  0.28402760260E+02  0.00000000000E+00 0.  1.
</event>
<event>
 5    1  0.1766634E-003  0.9118800E+02  0.7818608E-02  0.1130116E+00
         25   -1    0    0    0    0  0.00000000000E+00  0.00000000000E+00  0.99999998245E-14  0.12500000000E+03  0.12500000000E+03 0.  0.
        -13    1    3    3    0    0  0.39868601843E+01 -0.43508836176E+02 -0.77733631528E+01  0.44377361551E+02  0.10566000000E+00 0. -1.
         23    2    1    0    0    0 -0.97727260630E+01 -0.47161151374E+01  0.25488556884E+02  0.97297753725E+02  0.93270780157E+02 0.  0.
         13    1    3    3    0    0 -0.13759586247E+02  0.38792721038E+02  0.33261920037E+02  0.52920392174E+02  0.10566000000E+00 0.  1.
         22    1    1    0    0    0  0.97727260630E+01  0.47161151374E+01 -0.25488556884E+02  0.27702246275E+02  0.00000000000E+00 0.  1.
</event>
<event>
 5    1  0.1766634E-003  0.9118800E+02  0.7818608E-02  0.1130116E+00
         25   -1    0    0    0    0  0.00000000000E+00  0.00000000000E+00  0.99999998245E-14  0.12500000000E+03  0.12500000000E+03 0.  0.
        -13    1    3    3    0    0  0.25020119849E+02  0.25563750785E+02 -0.27459852031E+00  0.35771473549E+02  0.10566000000E+00 0.  1.
         23    2    1    0    0    0 -0.18625210280E+02 -0.80644937236E+01  0.21879252536E+02  0.95156471245E+02  0.90355507919E+02 0.  0.
         13    1    3    3    0    0 -0.43645330128E+02 -0.33628244509E+02  0.22153851057E+02  0.59384997697E+02  0.10566000000E+00 0. -1.
         22    1    1    0    0    0  0.18625210280E+02  0.80644937236E+01 -0.21879252536E+02  0.29843528755E+02  0.00000000000E+00 0. -1.
</event>
<event>
 5    1  0.1766634E-003  0.9118800E+02  0.7818608E-02  0.1130116E+00
         25   -1    0    0    0    0  0.00000000000E+00  0.00000000000E+00  0.99999998245E-14  0.12500000000E+03  0.12500000000E+03 0.  0.
        -13    1    3    3    0    0  0.39671997390E+02 -0.79526931972E+01 -0.44012132167E+02  0.59784543554E+02  0.10566000000E+00 0. -1.
         23    2    1    0    0    0  0.20384995195E+02 -0.14772770532E+02 -0.13744352439E+02  0.96317426855E+02  0.91947575899E+02 0.  0.
         13    1    3    3    0    0 -0.19287002195E+02 -0.68200773346E+01  0.30267779728E+02  0.36532883301E+02  0.10566000000E+00 0.  1.
         22    1    1    0    0    0 -0.20384995195E+02  0.14772770532E+02  0.13744352439E+02  0.28682573145E+02  0.00000000000E+00 0. -1.
</event>
<event>
 5    1  0.1766634E-003  0.9118800E+02  0.7818608E-02  0.1130116E+00
         25   -1    0    0    0    0  0.00000000000E+00  0.00000000000E+00  0.99999998245E-14  0.12500000000E+03  0.12500000000E+03 0.  0.
        -13    1    3    3    0    0 -0.22641291883E+02 -0.17772908545E+02 -0.40300263641E+01  0.29064697707E+02  0.10566000000E+00 0. -1.
         23    2    1    0    0    0  0.15251875977E+01  0.33242505611E+02 -0.17928161182E+02  0.87200405559E+02  0.78581813353E+02 0.  0.
         13    1    3    3    0    0  0.24166479480E+02  0.51015414156E+02 -0.13898134818E+02  0.58135707852E+02  0.10566000000E+00 0.  1.
         22    1    1    0    0    0 -0.15251875977E+01 -0.33242505611E+02  0.17928161182E+02  0.37799594441E+02  0.00000000000E+00 0.  1.
</event>
<event>
 5    1  0.1766634E-003  0.9118800E+02  0.7818608E-02  0.1130116E+00
         25   -1    0    0    0    0  0.00000000000E+00  0.00000000000E+00  0.99999998245E-14  0.12500000000E+03  0.12500000000E+03 0.  0.
        -13    1    3    3    0    0  0.29992544758E+02  0.38247538448E+02 -0.14632109096E+02  0.50759597309E+02  0.10566000000E+00 0.  1.
         23    2    1    0    0    0  0.31487238161E+01  0.12422504445E+02 -0.31006621808E+02  0.91449386380E+02  0.85072596028E+02 0.  0.
         13    1    3    3    0    0 -0.26843820942E+02 -0.25825034003E+02 -0.16374512713E+02  0.40689789071E+02  0.10566000000E+00 0. -1.
         22    1    1    0    0    0 -0.31487238161E+01 -0.12422504445E+02  0.31006621808E+02  0.33550613620E+02  0.00000000000E+00 0. -1.
</event>
<event>
 5    1  0.1766634E-003  0.9118800E+02  0.7818608E-02  0.1130116E+00
         25   -1    0    0    0    0  0.00000000000E+00  0.00000000000E+00  0.99999998245E-14  0.12500000000E+03  0.12500000000E+03 0.  0.
        -13    1    3    3    0    0 -0.18777173468E+02  0.37973703761E+02  0.89601328584E+01  0.43299879511E+02  0.10566000000E+00 0.  1.
         23    2    1    0    0    0  0.23739550984E+02  0.14473508496E+02 -0.10006521600E+02  0.95450394188E+02  0.90761217196E+02 0.  0.
         13    1    3    3    0    0  0.42516724452E+02 -0.23500195265E+02 -0.18966654458E+02  0.52150514677E+02  0.10566000000E+00 0. -1.
         22    1    1    0    0    0 -0.23739550984E+02 -0.14473508496E+02  0.10006521600E+02  0.29549605812E+02  0.00000000000E+00 0. -1.
</event>
<event>
 5    1  0.1766634E-003  0.9118800E+02  0.7818608E-02  0.1130116E+00
         25   -1    0    0    0    0  0.00000000000E+00  0.00000000000E+00  0.99999998245E-14  0.12500000000E+03  0.12500000000E+03 0.  0.
        -13    1    3    3    0    0 -0.86735877874E-01  0.29815430655E+02 -0.18185873090E+02  0.34924269103E+02  0.10566000000E+00 0. -1.
         23    2    1    0    0    0 -0.25251299300E+02 -0.49632995790E+01  0.20022792717E+02  0.92393640386E+02  0.86448887191E+02 0.  0.
         13    1    3    3    0    0 -0.25164563422E+02 -0.34778730234E+02  0.38208665808E+02  0.57469371284E+02  0.10566000000E+00 0.  1.
         22    1    1    0    0    0  0.25251299300E+02  0.49632995790E+01 -0.20022792717E+02  0.32606359614E+02  0.00000000000E+00 0.  1.
</event>
<event>
 5    1  0.1766634E-003  0.9118800E+02  0.7818608E-02  0.1130116E+00
         25   -1    0    0    0    0  0.00000000000E+00  0.00000000000E+00  0.99999998245E-14  0.12500000000E+03  0.12500000000E+03 0.  0.
        -13    1    3    3    0    0 -0.38334015075E+02 -0.20144087020E+02 -0.36402449148E+02  0.56572346793E+02  0.10566000000E+00 0. -1.
         23    2    1    0    0    0 -0.11840662559E+01 -0.16511928938E+02 -0.23878144905E+02  0.95944680104E+02  0.91439433648E+02 0.  0.
         13    1    3    3    0    0  0.37149948819E+02  0.36321580815E+01  0.12524304243E+02  0.39372333311E+02  0.10566000000E+00 0.  1.
         22    1    1    0    0    0  0.11840662559E+01  0.16511928938E+02  0.23878144905E+02  0.29055319896E+02  0.00000000000E+00 0. -1.
</event>
<event>
 5    1  0.1766634E-003  0.9118800E+02  0.7818608E-02  0.1130116E+00
         25   -1    0    0    0    0  0.00000000000E+00  0.00000000000E+00  0.99999998245E-14  0.12500000000E+03  0.12500000000E+03 0.  0.
        -13    1    3    3    0    0  0.62236834916E+01 -0.45577664052E+02 -0.47441994041E+00  0.46003194834E+02  0.10566000000E+00 0.  1.
         23    2    1    0    0    0 -0.14129108765E+02 -0.73650829646E+01  0.24342565504E+02  0.95906415537E+02  0.91387110056E+02 0.  0.
         13    1    3    3    0    0 -0.20352792257E+02  0.38212581087E+02  0.24816985444E+02  0.49903220703E+02  0.10566000000E+00 0. -1.
         22    1    1    0    0    0  0.14129108765E+02  0.73650829646E+01 -0.24342565504E+02  0.29093584463E+02  0.00000000000E+00 0. -1.
</event>
<event>
 5    1  0.1766634E-003  0.9118800E+02  0.7818608E-02  0.1130116E+00
         25   -1    0    0    0    0  0.00000000000E+00  0.00000000000E+00  0.99999998245E-14  0.12500000000E+03  0.12500000000E+03 0.  0.
        -13    1    3    3    0    0 -0.38178206798E+02  0.16531304200E+02 -0.17197070409E+02  0.45017884085E+02  0.10566000000E+00 0. -1.
         23    2    1    0    0    0  0.19301770067E+01  0.27725284389E+02  0.10785896532E+02  0.95188046999E+02  0.90399180027E+02 0.  0.
         13    1    3    3    0    0  0.40108383804E+02  0.11193980190E+02  0.27982966941E+02  0.50170162913E+02  0.10566000000E+00 0.  1.
         22    1    1    0    0    0 -0.19301770067E+01 -0.27725284389E+02 -0.10785896532E+02  0.29811953001E+02  0.00000000000E+00 0.  1.
</event>
<event>
 5    1  0.1766634E-003  0.9118800E+02  0.7818608E-02  0.1130116E+00
         25   -1    0    0    0    0  0.00000000000E+00  0.00000000000E+00  0.99999998245E-14  0.12500000000E+03  0.12500000000E+03 0.  0.
        -13    1    3    3    0    0  0.17142393955E+02  0.56233094806E+02 -0.81302302472E+01  0.59347573075E+02  0.10566000000E+00 0. -1.
         23    2    1    0    0    0  0.74455964788E+01  0.27138014475E+02  0.10189506179E+02  0.95071171544E+02  0.90237425085E+02 0.  0.
         13    1    3    3    0    0 -0.96967974765E+01 -0.29095080331E+02  0.18319736426E+02  0.35723598468E+02  0.10566000000E+00 0.  1.
         22    1    1    0    0    0 -0.74455964788E+01 -0.27138014475E+02 -0.10189506179E+02  0.29928828456E+02  0.00000000000E+00 0. -1.
</event>
<event>
 5    1  0.1766634E-003  0.9118800E+02  0.7818608E-02  0.1130116E+00
         25   -1    0    0    0    0  0.00000000000E+00  0.00000000000E+00  0.99999998245E-14  0.12500000000E+03  0.12500000000E+03 0.  0.
        -13    1    3    3    0    0 -0.31041570570E+02 -0.62651531463E+00  0.29298522470E+02  0.42689415642E+02  0.10566000000E+00 0. -1.
         23    2    1    0    0    0  0.21309064308E+02 -0.82772684802E+01  0.15546517776E+02  0.97354320227E+02  0.93346558890E+02 0.  0.
         13    1    3    3    0    0  0.52350634878E+02 -0.76507531655E+01 -0.13752004694E+02  0.54664904585E+02  0.10566000000E+00 0.  1.
         22    1    1    0    0    0 -0.21309064308E+02  0.82772684802E+01 -0.15546517776E+02  0.27645679773E+02  0.00000000000E+00 0.  1.
</event>
<event>
 5    1  0.1766634E-003  0.9118800E+02  0.7818608E-02  0.1130116E+00
         25   -1    0    0    0    0  0.00000000000E+00  0.00000000000E+00  0.99999998245E-14  0.12500000000E+03  0.12500000000E+03 0.  0.
        -13    1    3    3    0    0  0.56489680921E+02 -0.55516376991E+01 -0.91551730129E+01  0.57495504943E+02  0.10566000000E+00 0. -1.
         23    2    1    0    0    0  0.19352698208E+02 -0.14732258037E+02 -0.15335862879E+02  0.96246651586E+02  0.91851308627E+02 0.  0.
         13    1    3    3    0    0 -0.37136982714E+02 -0.91806203382E+01 -0.61806898661E+01  0.38751146643E+02  0.10566000000E+00 0.  1.
         22    1    1    0    0    0 -0.19352698208E+02  0.14732258037E+02  0.15335862879E+02  0.28753348414E+02  0.00000000000E+00 0. -1.
</event>
<event>
 5    1  0.1766634E-003  0.9118800E+02  0.7818608E-02  0.1130116E+00
         25   -1    0    0    0    0  0.00000000000E+00  0.00000000000E+00  0.99999998245E-14  0.12500000000E+03  0.12500000000E+03 0.  0.
        -13    1    3    3    0    0 -0.77721072415E+01 -0.87976604711E+01 -0.55580885957E+02  0.56807134487E+02  0.10566000000E+00 0.  1.
         23    2    1    0    0    0 -0.21505721107E+02 -0.32690539996E+01 -0.19581610170E+02  0.95731890884E+02  0.91148081280E+02 0.  0.
         13    1    3    3    0    0 -0.13733613866E+02  0.55286064716E+01  0.35999275788E+02  0.38924756397E+02  0.10566000000E+00 0. -1.
         22    1    1    0    0    0  0.21505721107E+02  0.32690539996E+01  0.19581610170E+02  0.29268109116E+02  0.00000000000E+00 0.  1.
</event>
<event>
 5    1  0.1766634E-003  0.9118800E+02  0.7818608E-02  0.1130116E+00
         25   -1    0    0    0    0  0.00000000000E+00  0.00000000000E+00  0.99999998245E-14  0.12500000000E+03  0.12500000000E+03 0.  0.
        -13    1    3    3    0    0  0.14797735317E+02 -0.36039408460E+02 -0.34919438165E+02  0.52318163753E+02  0.10566000000E+00 0.  1.
         23    2    1    0    0    0  0.66030281264E+01 -0.28325574165E+02  0.64645305609E+01  0.95205230533E+02  0.90422937540E+02 0.  0.
         13    1    3    3    0    0 -0.81947071902E+01  0.77138342955E+01  0.41383968726E+02  0.42887066781E+02  0.10566000000E+00 0. -1.
         22    1    1    0    0    0 -0.66030281264E+01  0.28325574165E+02 -0.64645305609E+01  0.29794769467E+02  0.00000000000E+00 0.  1.
</event>
<event>
 5    1  0.1766634E-003  0.9118800E+02  0.7818608E-02  0.1130116E+00
         25   -1    0    0    0    0  0.00000000000E+00  0.00000000000E+00  0.99999998245E-14  0.12500000000E+03  0.12500000000E+03 0.  0.
        -13    1    3    3    0    0  0.12841826097E+02 -0.32527273203E+02 -0.85415246264E+01  0.35998677844E+02  0.10566000000E+00 0.  1.
         23    2    1    0    0    0 -0.17128601985E+02  0.20326323940E+02 -0.95182838484E+01  0.96766222742E+02  0.92555689643E+02 0.  0.
         13    1    3    3    0    0 -0.29970428082E+02  0.52853597143E+02 -0.97675922207E+00  0.60767544898E+02  0.10566000000E+00 0. -1.
         22    1    1    0    0    0  0.17128601985E+02 -0.20326323940E+02  0.95182838484E+01  0.28233777258E+02  0.00000000000E+00 0. -1.
</event>
<event>
 5    1  0.1766634E-003  0.9118800E+02  0.7818608E-02  0.1130116E+00
         25   -1    0    0    0    0  0.00000000000E+00  0.00000000000E+00  0.99999998245E-14  0.12500000000E+03  0.12500000000E+03 0.  0.
        -13    1    3    3    0    0 -0.14426052080E+02 -0.50517402863E+02  0.14151432979E+02  0.54409495403E+02  0.10566000000E+00 0. -1.
         23    2    1    0    0    0  0.11707909637E+02 -0.20932841759E+02  0.19294795335E+02  0.94217730117E+02  0.89047361158E+02 0.  0.
         13    1    3    3    0    0  0.26133961716E+02  0.29584561104E+02  0.51433623560E+01  0.39808234714E+02  0.10566000000E+00 0.  1.
         22    1    1    0    0    0 -0.11707909637E+02  0.20932841759E+02 -0.19294795335E+02  0.30782269883E+02  0.00000000000E+00 0. -1.
</event>
<event>
 5    1  0.1766634E-003  0.9118800E+02  0.7818608E-02  0.1130116E+00
         25   -1    0    0    0    0  0.00000000000E+00  0.00000000000E+00  0.99999998245E-14  0.12500000000E+03  0.12500000000E+03 0.  0.
        -13    1    3    3    0    0  0.23739719078E+02 -0.39491425435E+02  0.41605846501E+02  0.62082240390E+02  0.10566000000E+00 0. -1.
         23    2    1    0    0    0  0.11287519132E+02 -0.20557284517E+02  0.14443483044E+02  0.97456865877E+02  0.93483776503E+02 0.  0.
         13    1    3    3    0    0 -0.12452199946E+02  0.18934140918E+02 -0.27162363457E+02  0.35374625487E+02  0.10566000000E+00 0.  1.
         22    1    1    0    0    0 -0.11287519132E+02  0.20557284517E+02 -0.14443483044E+02  0.27543134123E+02  0.00000000000E+00 0. -1.
</event>
<event>
 5    1  0.1766634E-003  0.9118800E+02  0.7818608E-02  0.1130116E+00
         25   -1    0    0    0    0  0.00000000000E+00  0.00000000000E+00  0.99999998245E-14  0.12500000000E+03  0.12500000000E+03 0.  0.
        -13    1    3    3    0    0  0.33150704463E+02 -0.49845133861E+01  0.17832430520E+02  0.37971322368E+02  0.10566000000E+00 0.  1.
         23    2    1    0    0    0 -0.18715900684E+02  0.20146631720E+02  0.71453205698E+01  0.96588253941E+02  0.92315023074E+02 0.  0.
         13    1    3    3    0    0 -0.51866605148E+02  0.25131145106E+02 -0.10687109950E+02  0.58616931573E+02  0.10566000000E+00 0. -1.
         22    1    1    0    0    0  0.18715900684E+02 -0.20146631720E+02 -0.71453205698E+01  0.28411746059E+02  0.00000000000E+00 0. -1.
</event>
<event>
 5    1  0.1766634E-003  0.9118800E+02  0.7818608E-02  0.1130116E+00
         25   -1    0    0    0    0  0.00000000000E+00  0.00000000000E+00  0.99999998245E-14  0.12500000000E+03  0.12500000000E+03 0.  0.
        -13    1    3    3    0    0  0.31694076747E+02 -0.20239297824E+02 -0.11559949588E+02  0.39341927707E+02  0.10566000000E+00 0.  1.
         23    2    1    0    0    0  0.23405205210E+01  0.26960198996E+01 -0.39143451701E+02  0.85694066979E+02  0.76147992387E+02 0.  0.
         13    1    3    3    0    0 -0.29353556226E+02  0.22935317723E+02 -0.27583502113E+02  0.46352139271E+02  0.10566000000E+00 0. -1.
         22    1    1    0    0    0 -0.23405205210E+01 -0.26960198996E+01  0.39143451701E+02  0.39305933021E+02  0.00000000000E+00 0. -1.
</event>
<event>
 5    1  0.1766634E-003  0.9118800E+02  0.7818608E-02  0.1130116E+00
         25   -1    0    0    0    0  0.00000000000E+00  0.00000000000E+00  0.99999998245E-14  0.12500000000E+03  0.12500000000E+03 0.  0.
        -13    1    3    3    0    0  0.12745895006E+02  0.47824163634E+02  0.30322313144E+02  0.58043624156E+02  0.10566000000E+00 0. -1.
         23    2    1    0    0    0 -0.29341845946E+01  0.13129020685E+02  0.25164296591E+02  0.96465416661E+02  0.92148544022E+02 0.  0.
         13    1    3    3    0    0 -0.15680079600E+02 -0.34695142949E+02 -0.51580165524E+01  0.38421792505E+02  0.10566000000E+00 0.  1.
         22    1    1    0    0    0  0.29341845946E+01 -0.13129020685E+02 -0.25164296591E+02  0.28534583339E+02  0.00000000000E+00 0. -1.
</event>
<event>
 5    1  0.1766634E-003  0.9118800E+02  0.7818608E-02  0.1130116E+00
         25   -1    0    0    0    0  0.00000000000E+00  0.00000000000E+00  0.99999998245E-14  0.12500000000E+03  0.12500000000E+03 0.  0.
        -13    1    3    3    0    0  0.32309871878E+02  0.12997365640E+02 -0.10760296452E+02  0.36450712999E+02  0.10566000000E+00 0. -1.
         23    2    1    0    0    0 -0.11242744137E+02  0.29774976313E+01  0.27410878107E+02  0.95223817799E+02  0.90448628789E+02 0.  0.
         13    1    3    3    0    0 -0.43552616015E+02 -0.10019868009E+02  0.38171174559E+02  0.58773104800E+02  0.10566000000E+00 0.  1.
         22    1    1    0    0    0  0.11242744137E+02 -0.29774976313E+01 -0.27410878107E+02  0.29776182201E+02  0.00000000000E+00 0.  1.
</event>
<event>
 5    1  0.1766634E-003  0.9118800E+02  0.7818608E-02  0.1130116E+00
         25   -1    0    0    0    0  0.00000000000E+00  0.00000000000E+00  0.99999998245E-14  0.12500000000E+03  0.12500000000E+03 0.  0.
        -13    1    3    3    0    0  0.81163555160E+01 -0.37604146090E+02 -0.70502703759E+01  0.39110925666E+02  0.10566000000E+00 0.  1.
         23    2    1    0    0    0  0.21306411815E+02  0.11550669675E+02  0.16995025517E+02  0.95399120846E+02  0.90690573995E+02 0.  0.
         13    1    3    3    0    0  0.13190056299E+02  0.49154815765E+02  0.24045295893E+02  0.56288195180E+02  0.10566000000E+00 0. -1.
         22    1    1    0    0    0 -0.21306411815E+02 -0.11550669675E+02 -0.16995025517E+02  0.29600879154E+02  0.00000000000E+00 0. -1.
</event>
<event>
 5    1  0.1766634E-003  0.9118800E+02  0.7818608E-02  0.1130116E+00
         25   -1    0    0    0    0  0.00000000000E+00  0.00000000000E+00  0.99999998245E-14  0.12500000000E+03  0.12500000000E+03 0.  0.
        -13    1    3    3    0    0  0.12917982838E+02  0.28147964744E+02  0.22670205956E+02  0.38381396561E+02  0.10566000000E+00 0.  1.
         23    2    1    0    0    0  0.19666664684E+02  0.94632588340E+01 -0.26061429255E+02  0.91006926259E+02  0.84419971362E+02 0.  0.
         13    1    3    3    0    0  0.67486818461E+01 -0.18684705910E+02 -0.48731635211E+02  0.52625529698E+02  0.10566000000E+00 0. -1.
         22    1    1    0    0    0 -0.19666664684E+02 -0.94632588340E+01  0.26061429255E+02  0.33993073741E+02  0.00000000000E+00 0. -1.
</event>
<event>
 5    1  0.1766634E-003  0.9118800E+02  0.7818608E-02  0.1130116E+00
         25   -1    0    0    0    0  0.00000000000E+00  0.00000000000E+00  0.99999998245E-14  0.12500000000E+03  0.12500000000E+03 0.  0.
        -13    1    3    3    0    0 -0.40288642483E+02  0.34310668813E+02  0.11724829273E+02  0.54202209300E+02  0.10566000000E+00 0. -1.
         23    2    1    0    0    0 -0.25715666972E+02  0.50333022193E+01 -0.13517979739E+02  0.95514996434E+02  0.90850146442E+02 0.  0.
         13    1    3    3    0    0  0.14572975511E+02 -0.29277366594E+02 -0.25242809012E+02  0.41312787134E+02  0.10566000000E+00 0.  1.
         22    1    1    0    0    0  0.25715666972E+02 -0.50333022193E+01  0.13517979739E+02  0.29485003566E+02  0.00000000000E+00 0. -1.
</event>
<event>
 5    1  0.1766634E-003  0.9118800E+02  0.7818608E-02  0.1130116E+00
         25   -1    0    0    0    0  0.00000000000E+00  0.00000000000E+00  0.99999998245E-14  0.12500000000E+03  0.12500000000E+03 0.  0.
        -13    1    3    3    0    0  0.56000501010E+02  0.18419452002E+02 -0.69458831843E+01  0.59359824652E+02  0.10566000000E+00 0.  1.
         23    2    1    0    0    0  0.31787268578E+02 -0.30981799738E+01  0.21031781032E+01  0.92992930142E+02  0.87311124924E+02 0.  0.
         13    1    3    3    0    0 -0.24213232432E+02 -0.21517631976E+02  0.90490612875E+01  0.33633105490E+02  0.10566000000E+00 0. -1.
         22    1    1    0    0    0 -0.31787268578E+02  0.30981799738E+01 -0.21031781032E+01  0.32007069858E+02  0.00000000000E+00 0.  1.
</event>
<event>
 5    1  0.1766634E-003  0.9118800E+02  0.7818608E-02  0.1130116E+00
         25   -1    0    0    0    0  0.00000000000E+00  0.00000000000E+00  0.99999998245E-14  0.12500000000E+03  0.12500000000E+03 0.  0.
        -13    1    3    3    0    0  0.29378928333E+02 -0.14749528737E+02 -0.28025381299E+02  0.43198416511E+02  0.10566000000E+00 0. -1.
         23    2    1    0    0    0  0.14487770633E+02  0.27485862045E+02 -0.50836776786E+01  0.93516482265E+02  0.88057484442E+02 0.  0.
         13    1    3    3    0    0 -0.14891157701E+02  0.42235390782E+02  0.22941703621E+02  0.50318065754E+02  0.10566000000E+00 0.  1.
         22    1    1    0    0    0 -0.14487770633E+02 -0.27485862045E+02  0.50836776786E+01  0.31483517735E+02  0.00000000000E+00 0. -1.
</event>
<event>
 5    1  0.1766634E-003  0.9118800E+02  0.7818608E-02  0.1130116E+00
         25   -1    0    0    0    0  0.00000000000E+00  0.00000000000E+00  0.99999998245E-14  0.12500000000E+03  0.12500000000E+03 0.  0.
        -13    1    3    3    0    0  0.41686324575E+02  0.41704425521E+02 -0.61547526746E+01  0.59286599743E+02  0.10566000000E+00 0.  1.
         23    2    1    0    0    0  0.82543558464E+01  0.27141681381E+02  0.16661998378E+01  0.96582021878E+02  0.92306584107E+02 0.  0.
         13    1    3    3    0    0 -0.33431968729E+02 -0.14562744140E+02  0.78209525123E+01  0.37295422134E+02  0.10566000000E+00 0. -1.
         22    1    1    0    0    0 -0.82543558464E+01 -0.27141681381E+02 -0.16661998378E+01  0.28417978122E+02  0.00000000000E+00 0.  1.
</event>
<event>
 5    1  0.1766634E-003  0.9118800E+02  0.7818608E-02  0.1130116E+00
         25   -1    0    0    0    0  0.00000000000E+00  0.00000000000E+00  0.99999998245E-14  0.12500000000E+03  0.12500000000E+03 0.  0.
        -13    1    3    3    0    0  0.43743547314E+02  0.56297724401E+00 -0.36959937148E+02  0.57270088117E+02  0.10566000000E+00 0.  1.
         23    2    1    0    0    0  0.28955978856E+02  0.38705338748E+01 -0.15970948124E+01  0.95742856328E+02  0.91163117992E+02 0.  0.
         13    1    3    3    0    0 -0.14787568458E+02  0.33075566308E+01  0.35362842335E+02  0.38472768211E+02  0.10566000000E+00 0. -1.
         22    1    1    0    0    0 -0.28955978856E+02 -0.38705338748E+01  0.15970948124E+01  0.29257143672E+02  0.00000000000E+00 0.  1.
</event>
<event>
 5    1  0.1766634E-003  0.9118800E+02  0.7818608E-02  0.1130116E+00
         25   -1    0    0    0    0  0.00000000000E+00  0.00000000000E+00  0.99999998245E-14  0.12500000000E+03  0.12500000000E+03 0.  0.
        -13    1    3    3    0    0  0.40524239935E+01  0.32565584606E+02  0.16106714386E+02  0.36556488525E+02  0.10566000000E+00 0.  1.
         23    2    1    0    0    0 -0.18235404118E+02 -0.11507244618E+02 -0.18276041047E+02  0.96734113876E+02  0.92512315229E+02 0.  0.
         13    1    3    3    0    0 -0.22287828111E+02 -0.44072829224E+02 -0.34382755432E+02  0.60177625351E+02  0.10566000000E+00 0. -1.
         22    1    1    0    0    0  0.18235404118E+02  0.11507244618E+02  0.18276041047E+02  0.28265886124E+02  0.00000000000E+00 0. -1.
</event>
<event>
 5    1  0.1766634E-003  0.9118800E+02  0.7818608E-02  0.1130116E+00
         25   -1    0    0    0    0  0.00000000000E+00  0.00000000000E+00  0.99999998245E-14  0.12500000000E+03  0.12500000000E+03 0.  0.
        -13    1    3    3    0    0  0.32796539090E+02  0.18274047606E+01  0.32545122459E+02  0.46240118343E+02  0.10566000000E+00 0.  1.
         23    2    1    0    0    0 -0.85704274785E+01  0.23275395034E+02  0.14897709203E+02  0.96066663161E+02  0.91606035774E+02 0.  0.
         13    1    3    3    0    0 -0.41366966568E+02  0.21447990274E+02 -0.17647413256E+02  0.49826544818E+02  0.10566000000E+00 0. -1.
         22    1    1    0    0    0  0.85704274785E+01 -0.23275395034E+02 -0.14897709203E+02  0.28933336839E+02  0.00000000000E+00 0. -1.
</event>
<event>
 5    1  0.1766634E-003  0.9118800E+02  0.7818608E-02  0.1130116E+00
         25   -1    0    0    0    0  0.00000000000E+00  0.00000000000E+00  0.99999998245E-14  0.12500000000E+03  0.12500000000E+03 0.  0.
        -13    1    3    3    0    0  0.52729635655E+02  0.13929822326E+02 -0.10653260150E+02  0.55569393934E+02  0.10566000000E+00 0. -1.
         23    2    1    0    0    0  0.17662490942E+02  0.23252161056E+02  0.54982900233E+01  0.95287077336E+02  0.90536011256E+02 0.  0.
         13    1    3    3    0    0 -0.35067144714E+02  0.93223387303E+01  0.16151550173E+02  0.39717683402E+02  0.10566000000E+00 0.  1.
         22    1    1    0    0    0 -0.17662490942E+02 -0.23252161056E+02 -0.54982900233E+01  0.29712922664E+02  0.00000000000E+00 0. -1.
</event>
<event>
 5    1  0.1766634E-003  0.9118800E+02  0.7818608E-02  0.1130116E+00
         25   -1    0    0    0    0  0.00000000000E+00  0.00000000000E+00  0.99999998245E-14  0.12500000000E+03  0.12500000000E+03 0.  0.
        -13    1    3    3    0    0  0.33306339898E+02 -0.16399662608E+02 -0.65689348189E+01  0.37701767594E+02  0.10566000000E+00 0. -1.
         23    2    1    0    0    0 -0.12256522055E+01  0.16612659166E+02  0.24996654618E+02  0.94961434622E+02  0.90085285455E+02 0.  0.
         13    1    3    3    0    0 -0.34531992103E+02  0.33012321775E+02  0.31565589436E+02  0.57259667027E+02  0.10566000000E+00 0.  1.
         22    1    1    0    0    0  0.12256522055E+01 -0.16612659166E+02 -0.24996654618E+02  0.30038565378E+02  0.00000000000E+00 0.  1.
</event>
<event>
 5    1  0.1766634E-003  0.9118800E+02  0.7818608E-02  0.1130116E+00
         25   -1    0    0    0    0  0.00000000000E+00  0.00000000000E+00  0.99999998245E-14  0.12500000000E+03  0.12500000000E+03 0.  0.
        -13    1    3    3    0    0 -0.21361022629E+02  0.65534933279E+01 -0.21642632858E+02  0.31107174151E+02  0.10566000000E+00 0.  1.
         23    2    1    0    0    0 -0.97666938417E+01  0.31133969648E+02  0.24182755641E+02  0.84385740866E+02  0.73969150438E+02 0.  0.
         13    1    3    3    0    0  0.11594328788E+02  0.24580476320E+02  0.45825388499E+02  0.53278566715E+02  0.10566000000E+00 0. -1.
         22    1    1    0    0    0  0.97666938417E+01 -0.31133969648E+02 -0.24182755641E+02  0.40614259134E+02  0.00000000000E+00 0. -1.
</event>
<event>
 5    1  0.1766634E-003  0.9118800E+02  0.7818608E-02  0.1130116E+00
         25   -1    0    0    0    0  0.00000000000E+00  0.00000000000E+00  0.99999998245E-14  0.12500000000E+03  0.12500000000E+03 0.  0.
        -13    1    3    3    0    0 -0.39492051397E+02 -0.24239846433E+02  0.17352555817E+02  0.49480447007E+02  0.10566000000E+00 0.  1.
         23    2    1    0    0    0  0.19632579623E+01 -0.28667277734E+02 -0.34248935752E+01  0.96062185803E+02  0.91599926042E+02 0.  0.
         13    1    3    3    0    0  0.41455309359E+02 -0.44274313011E+01 -0.20777449392E+02  0.46581738796E+02  0.10566000000E+00 0. -1.
         22    1    1    0    0    0 -0.19632579623E+01  0.28667277734E+02  0.34248935752E+01  0.28937814197E+02  0.00000000000E+00 0.  1.
</event>
<event>
 5    1  0.1766634E-003  0.9118800E+02  0.7818608E-02  0.1130116E+00
         25   -1    0    0    0    0  0.00000000000E+00  0.00000000000E+00  0.99999998245E-14  0.12500000000E+03  0.12500000000E+03 0.  0.
        -13    1    3    3    0    0  0.29063092693E+02  0.30809992185E+02 -0.38478028681E+02  0.57223149429E+02  0.10566000000E+00 0.  1.
         23    2    1    0    0    0  0.27539813114E+02  0.73676360618E+01 -0.86159097124E+01  0.95218172190E+02  0.90440826221E+02 0.  0.
         13    1    3    3    0    0 -0.15232795786E+01 -0.23442356123E+02  0.29862118969E+02  0.37995022761E+02  0.10566000000E+00 0. -1.
         22    1    1    0    0    0 -0.27539813114E+02 -0.73676360618E+01  0.86159097124E+01  0.29781827810E+02  0.00000000000E+00 0.  1.
</event>
<event>
 5    1  0.1766634E-003  0.9118800E+02  0.7818608E-02  0.1130116E+00
         25   -1    0    0    0    0  0.00000000000E+00  0.00000000000E+00  0.99999998245E-14  0.12500000000E+03  0.12500000000E+03 0.  0.
        -13    1    3    3    0    0  0.50966498859E+02 -0.22298023657E+02  0.26374079264E+02  0.61566135870E+02  0.10566000000E+00 0.  1.
         23    2    1    0    0    0  0.24154281481E+02 -0.14422691709E+02  0.57802532399E+01  0.96279716619E+02  0.91896295653E+02 0.  0.
         13    1    3    3    0    0 -0.26812217378E+02  0.78753319483E+01 -0.20593826024E+02  0.34713580748E+02  0.10566000000E+00 0. -1.
         22    1    1    0    0    0 -0.24154281481E+02  0.14422691709E+02 -0.57802532399E+01  0.28720283381E+02  0.00000000000E+00 0.  1.
</event>
<event>
 5    1  0.1766634E-003  0.9118800E+02  0.7818608E-02  0.1130116E+00
         25   -1    0    0    0    0  0.00000000000E+00  0.00000000000E+00  0.99999998245E-14  0.12500000000E+03  0.12500000000E+03 0.  0.
        -13    1    3    3    0    0  0.33205383802E+01 -0.26995729214E+02  0.27404656104E+02  0.38611160448E+02  0.10566000000E+00 0. -1.
         23    2    1    0    0    0 -0.13007856966E+02  0.24556676518E+02  0.77281448583E+01  0.96156301773E+02  0.91728269597E+02 0.  0.
         13    1    3    3    0    0 -0.16328395346E+02  0.51552405732E+02 -0.19676511246E+02  0.57545141325E+02  0.10566000000E+00 0.  1.
         22    1    1    0    0    0  0.13007856966E+02 -0.24556676518E+02 -0.77281448583E+01  0.28843698227E+02  0.00000000000E+00 0.  1.
</event>
<event>
 5    1  0.1766634E-003  0.9118800E+02  0.7818608E-02  0.1130116E+00
         25   -1    0    0    0    0  0.00000000000E+00  0.00000000000E+00  0.99999998245E-14  0.12500000000E+03  0.12500000000E+03 0.  0.
        -13    1    3    3    0    0  0.65125239390E+01 -0.40485938797E+02  0.31371648530E+02  0.51630569471E+02  0.10566000000E+00 0.  1.
         23    2    1    0    0    0 -0.22455366619E+02 -0.18680245823E+02  0.81964179089E+01  0.94662295068E+02  0.89669246495E+02 0.  0.
         13    1    3    3    0    0 -0.28967890558E+02  0.21805692975E+02 -0.23175230621E+02  0.43031725597E+02  0.10566000000E+00 0. -1.
         22    1    1    0    0    0  0.22455366619E+02  0.18680245823E+02 -0.81964179089E+01  0.30337704932E+02  0.00000000000E+00 0.  1.
</event>
<event>
 5    1  0.1766634E-003  0.9118800E+02  0.7818608E-02  0.1130116E+00
         25   -1    0    0    0    0  0.00000000000E+00  0.00000000000E+00  0.99999998245E-14  0.12500000000E+03  0.12500000000E+03 0.  0.
        -13    1    3    3    0    0 -0.25029695745E+02  0.21797443233E+02 -0.42946371371E+02  0.54277216017E+02  0.10566000000E+00 0.  1.
         23    2    1    0    0    0  0.58075975924E+01  0.23890493746E+02 -0.24597764175E+02  0.90221646335E+02  0.83249093591E+02 0.  0.
         13    1    3    3    0    0  0.30837293337E+02  0.20930505127E+01  0.18348607196E+02  0.35944430318E+02  0.10566000000E+00 0. -1.
         22    1    1    0    0    0 -0.58075975924E+01 -0.23890493746E+02  0.24597764175E+02  0.34778353665E+02  0.00000000000E+00 0.  1.
</event>
<event>
 5    1  0.1766634E-003  0.9118800E+02  0.7818608E-02  0.1130116E+00
         25   -1    0    0    0    0  0.00000000000E+00  0.00000000000E+00  0.99999998245E-14  0.12500000000E+03  0.12500000000E+03 0.  0.
        -13    1    3    3    0    0  0.22170825060E+02  0.22205639838E+02  0.13928114924E+02  0.34331319139E+02  0.10566000000E+00 0.  1.
         23    2    1    0    0    0 -0.13438431603E+02  0.19449061940E+00 -0.28224007468E+02  0.93739419901E+02  0.88373383862E+02 0.  0.
         13    1    3    3    0    0 -0.35609256663E+02 -0.22011149218E+02 -0.42152122392E+02  0.59408100762E+02  0.10566000000E+00 0. -1.
         22    1    1    0    0    0  0.13438431603E+02 -0.19449061940E+00  0.28224007468E+02  0.31260580099E+02  0.00000000000E+00 0. -1.
</event>
<event>
 5    1  0.1766634E-003  0.9118800E+02  0.7818608E-02  0.1130116E+00
         25   -1    0    0    0    0  0.00000000000E+00  0.00000000000E+00  0.99999998245E-14  0.12500000000E+03  0.12500000000E+03 0.  0.
        -13    1    3    3    0    0  0.31192386911E+02  0.33602884086E+02 -0.13772728353E+02  0.47872936305E+02  0.10566000000E+00 0. -1.
         23    2    1    0    0    0  0.34245907180E+02 -0.41644717215E+01  0.49696757564E+01  0.90145693804E+02  0.83134971288E+02 0.  0.
         13    1    3    3    0    0  0.30535202689E+01 -0.37767355808E+02  0.18742404110E+02  0.42272757499E+02  0.10566000000E+00 0.  1.
         22    1    1    0    0    0 -0.34245907180E+02  0.41644717215E+01 -0.49696757564E+01  0.34854306196E+02  0.00000000000E+00 0.  1.
</event>
<event>
 5    1  0.1766634E-003  0.9118800E+02  0.7818608E-02  0.1130116E+00
         25   -1    0    0    0    0  0.00000000000E+00  0.00000000000E+00  0.99999998245E-14  0.12500000000E+03  0.12500000000E+03 0.  0.
        -13    1    3    3    0    0 -0.33268268431E+02 -0.99970690850E+00 -0.14857397981E+02  0.36449012841E+02  0.10566000000E+00 0.  1.
         23    2    1    0    0    0  0.10482738409E+02 -0.18773651031E+02  0.20382904927E+02  0.95372300278E+02  0.90653599319E+02 0.  0.
         13    1    3    3    0    0  0.43751006840E+02 -0.17773944122E+02  0.35240302908E+02  0.58923287436E+02  0.10566000000E+00 0. -1.
         22    1    1    0    0    0 -0.10482738409E+02  0.18773651031E+02 -0.20382904927E+02  0.29627699722E+02  0.00000000000E+00 0. -1.
</event>
<event>
 5    1  0.1766634E-003  0.9118800E+02  0.7818608E-02  0.1130116E+00
         25   -1    0    0    0    0  0.00000000000E+00  0.00000000000E+00  0.99999998245E-14  0.12500000000E+03  0.12500000000E+03 0.  0.
        -13    1    3    3    0    0  0.32015117192E+01  0.59488546505E+02  0.85925679782E+01  0.60191197289E+02  0.10566000000E+00 0. -1.
         23    2    1    0    0    0  0.11909826890E+02  0.26909202765E+02 -0.19072467125E+01  0.95511243499E+02  0.90844982661E+02 0.  0.
         13    1    3    3    0    0  0.87083151706E+01 -0.32579343741E+02 -0.10499814691E+02  0.35320046210E+02  0.10566000000E+00 0.  1.
         22    1    1    0    0    0 -0.11909826890E+02 -0.26909202765E+02  0.19072467125E+01  0.29488756501E+02  0.00000000000E+00 0. -1.
</event>
<event>
 5    1  0.1766634E-003  0.9118800E+02  0.7818608E-02  0.1130116E+00
         25   -1    0    0    0    0  0.00000000000E+00  0.00000000000E+00  0.99999998245E-14  0.12500000000E+03  0.12500000000E+03 0.  0.
        -13    1    3    3    0    0  0.87311929767E+01 -0.50221931368E+02 -0.22394383796E+02  0.55677605110E+02  0.10566000000E+00 0.  1.
         23    2    1    0    0    0 -0.29404112917E+01 -0.11128914712E+02 -0.25931059957E+02  0.96628912046E+02  0.92370060146E+02 0.  0.
         13    1    3    3    0    0 -0.11671604268E+02  0.39093016656E+02 -0.35366761607E+01  0.40951306936E+02  0.10566000000E+00 0. -1.
         22    1    1    0    0    0  0.29404112917E+01  0.11128914712E+02  0.25931059957E+02  0.28371087954E+02  0.00000000000E+00 0.  1.
</event>
<event>
 5    1  0.1766634E-003  0.9118800E+02  0.7818608E-02  0.1130116E+00
         25   -1    0    0    0    0  0.00000000000E+00  0.00000000000E+00  0.99999998245E-14  0.12500000000E+03  0.12500000000E+03 0.  0.
        -13    1    3    3    0    0  0.84860154233E+01  0.46014476141E+02 -0.18603162373E+02  0.50353086168E+02  0.10566000000E+00 0. -1.
         23    2    1    0    0    0  0.94661195454E+01  0.17269389605E+01 -0.27787467015E+02  0.95593656117E+02  0.90958309293E+02 0.  0.
         13    1    3    3    0    0  0.98010412205E+00 -0.44287537180E+02 -0.91843046420E+01  0.45240569950E+02  0.10566000000E+00 0.  1.
         22    1    1    0    0    0 -0.94661195454E+01 -0.17269389605E+01  0.27787467015E+02  0.29406343883E+02  0.00000000000E+00 0.  1.
</event>
<event>
 5    1  0.1766634E-003  0.9118800E+02  0.7818608E-02  0.1130116E+00
         25   -1    0    0    0    0  0.00000000000E+00  0.00000000000E+00  0.99999998245E-14  0.12500000000E+03  0.12500000000E+03 0.  0.
        -13    1    3    3    0    0 -0.60751989084E+02  0.70637988805E+01  0.12562345401E+02  0.62438170363E+02  0.10566000000E+00 0.  1.
         23    2    1    0    0    0 -0.26536133972E+02  0.31742664955E+01  0.74806356319E+01  0.97247481494E+02  0.93203381771E+02 0.  0.
         13    1    3    3    0    0  0.34215855112E+02 -0.38895323851E+01 -0.50817097694E+01  0.34809311131E+02  0.10566000000E+00 0. -1.
         22    1    1    0    0    0  0.26536133972E+02 -0.31742664955E+01 -0.74806356319E+01  0.27752518506E+02  0.00000000000E+00 0.  1.
</event>
<event>
 5    1  0.1766634E-003  0.9118800E+02  0.7818608E-02  0.1130116E+00
         25   -1    0    0    0    0  0.00000000000E+00  0.00000000000E+00  0.99999998245E-14  0.12500000000E+03  0.12500000000E+03 0.  0.
        -13    1    3    3    0    0 -0.18046264825E+02 -0.52868704454E+02 -0.23317225801E+02  0.60534880588E+02  0.10566000000E+00 0.  1.
         23    2    1    0    0    0  0.22568434989E+01 -0.24636906307E+02 -0.53043213276E+01  0.99697701296E+02  0.96433528008E+02 0.  0.
         13    1    3    3    0    0  0.20303108324E+02  0.28231798147E+02  0.18012904474E+02  0.39162820708E+02  0.10566000000E+00 0. -1.
         22    1    1    0    0    0 -0.22568434989E+01  0.24636906307E+02  0.53043213276E+01  0.25302298704E+02  0.00000000000E+00 0.  1.
</event>
<event>
 5    1  0.1766634E-003  0.9118800E+02  0.7818608E-02  0.1130116E+00
         25   -1    0    0    0    0  0.00000000000E+00  0.00000000000E+00  0.99999998245E-14  0.12500000000E+03  0.12500000000E+03 0.  0.
        -13    1    3    3    0    0 -0.57729159807E+02 -0.14301611681E+02 -0.18461870971E+02  0.62273941842E+02  0.10566000000E+00 0.  1.
         23    2    1    0    0    0 -0.27473924709E+02 -0.82380005517E+01 -0.12549518288E+02  0.93692307634E+02  0.88306720630E+02 0.  0.
         13    1    3    3    0    0  0.30255235098E+02  0.60636111293E+01  0.59123526830E+01  0.31418365792E+02  0.10566000000E+00 0. -1.
         22    1    1    0    0    0  0.27473924709E+02  0.82380005517E+01  0.12549518288E+02  0.31307692366E+02  0.00000000000E+00 0.  1.
</event>
<event>
 5    1  0.1766634E-003  0.9118800E+02  0.7818608E-02  0.1130116E+00
         25   -1    0    0    0    0  0.00000000000E+00  0.00000000000E+00  0.99999998245E-14  0.12500000000E+03  0.12500000000E+03 0.  0.
        -13    1    3    3    0    0  0.35368524030E+02 -0.50870629602E+01  0.17628386663E+02  0.39844471160E+02  0.10566000000E+00 0.  1.
         23    2    1    0    0    0 -0.90567539386E+01 -0.28509309450E+02 -0.45452289033E+01  0.94743354069E+02  0.89782172602E+02 0.  0.
         13    1    3    3    0    0 -0.44425277969E+02 -0.23422246490E+02 -0.22173615566E+02  0.54898882908E+02  0.10566000000E+00 0. -1.
         22    1    1    0    0    0  0.90567539386E+01  0.28509309450E+02  0.45452289033E+01  0.30256645931E+02  0.00000000000E+00 0. -1.
</event>
<event>
 5    1  0.1766634E-003  0.9118800E+02  0.7818608E-02  0.1130116E+00
         25   -1    0    0    0    0  0.00000000000E+00  0.00000000000E+00  0.99999998245E-14  0.12500000000E+03  0.12500000000E+03 0.  0.
        -13    1    3    3    0    0  0.22301626188E+02  0.31890516433E+02  0.24633871339E+02  0.46056555996E+02  0.10566000000E+00 0. -1.
         23    2    1    0    0    0  0.26480503134E+02 -0.13269118717E+02  0.86448461248E+01  0.94145179918E+02  0.88945460703E+02 0.  0.
         13    1    3    3    0    0  0.41788769462E+01 -0.45159635151E+02 -0.15989025214E+02  0.48088623923E+02  0.10566000000E+00 0.  1.
         22    1    1    0    0    0 -0.26480503134E+02  0.13269118717E+02 -0.86448461248E+01  0.30854820082E+02  0.00000000000E+00 0.  1.
</event>
<event>
 5    1  0.1766634E-003  0.9118800E+02  0.7818608E-02  0.1130116E+00
         25   -1    0    0    0    0  0.00000000000E+00  0.00000000000E+00  0.99999998245E-14  0.12500000000E+03  0.12500000000E+03 0.  0.
        -13    1    3    3    0    0 -0.22914556348E+02 -0.23854763555E+02  0.21229006008E+02  0.39304051916E+02  0.10566000000E+00 0. -1.
         23    2    1    0    0    0  0.46433255538E+01  0.24888074945E+02  0.14820911336E+02  0.95663398978E+02  0.91054103392E+02 0.  0.
         13    1    3    3    0    0  0.27557881902E+02  0.48742838500E+02 -0.64080946720E+01  0.56359347062E+02  0.10566000000E+00 0.  1.
         22    1    1    0    0    0 -0.46433255538E+01 -0.24888074945E+02 -0.14820911336E+02  0.29336601022E+02  0.00000000000E+00 0.  1.
</event>
<event>
 5    1  0.1766634E-003  0.9118800E+02  0.7818608E-02  0.1130116E+00
         25   -1    0    0    0    0  0.00000000000E+00  0.00000000000E+00  0.99999998245E-14  0.12500000000E+03  0.12500000000E+03 0.  0.
        -13    1    3    3    0    0  0.71616688679E+01 -0.34264458821E+02 -0.46003804410E+02  0.57807472039E+02  0.10566000000E+00 0. -1.
         23    2    1    0    0    0  0.21907847365E+01  0.20730323230E+00 -0.27812535737E+02  0.97100543795E+02  0.93006107051E+02 0.  0.
         13    1    3    3    0    0 -0.49708841314E+01  0.34471762053E+02  0.18191268673E+02  0.39293071756E+02  0.10566000000E+00 0.  1.
         22    1    1    0    0    0 -0.21907847365E+01 -0.20730323230E+00  0.27812535737E+02  0.27899456205E+02  0.00000000000E+00 0. -1.
</event>
<event>
 5    1  0.1766634E-003  0.9118800E+02  0.7818608E-02  0.1130116E+00
         25   -1    0    0    0    0  0.00000000000E+00  0.00000000000E+00  0.99999998245E-14  0.12500000000E+03  0.12500000000E+03 0.  0.
        -13    1    3    3    0    0  0.44977784224E+01  0.16148108390E+02 -0.28978083151E+02  0.33477333861E+02  0.10566000000E+00 0.  1.
         23    2    1    0    0    0  0.20638298542E+01 -0.15938472224E+02  0.24386941398E+02  0.95793541788E+02  0.91232589830E+02 0.  0.
         13    1    3    3    0    0 -0.24339485681E+01 -0.32086580615E+02  0.53365024549E+02  0.62316207927E+02  0.10566000000E+00 0. -1.
         22    1    1    0    0    0 -0.20638298542E+01  0.15938472224E+02 -0.24386941398E+02  0.29206458212E+02  0.00000000000E+00 0. -1.
</event>
<event>
 5    1  0.1766634E-003  0.9118800E+02  0.7818608E-02  0.1130116E+00
         25   -1    0    0    0    0  0.00000000000E+00  0.00000000000E+00  0.99999998245E-14  0.12500000000E+03  0.12500000000E+03 0.  0.
        -13    1    3    3    0    0  0.40516282966E+02 -0.35214909305E+02  0.17127987265E+02  0.56347476736E+02  0.10566000000E+00 0.  1.
         23    2    1    0    0    0  0.29322838215E+02 -0.35365056365E+01 -0.26691621708E+01  0.95344306789E+02  0.90614991571E+02 0.  0.
         13    1    3    3    0    0 -0.11193444751E+02  0.31678403669E+02 -0.19797149435E+02  0.38996830053E+02  0.10566000000E+00 0. -1.
         22    1    1    0    0    0 -0.29322838215E+02  0.35365056365E+01  0.26691621708E+01  0.29655693211E+02  0.00000000000E+00 0.  1.
</event>
<event>
 5    1  0.1766634E-003  0.9118800E+02  0.7818608E-02  0.1130116E+00
         25   -1    0    0    0    0  0.00000000000E+00  0.00000000000E+00  0.99999998245E-14  0.12500000000E+03  0.12500000000E+03 0.  0.
        -13    1    3    3    0    0  0.43282504235E+02 -0.11941558184E+02 -0.40388269418E+02  0.60392047948E+02  0.10566000000E+00 0. -1.
         23    2    1    0    0    0  0.13814419352E+02  0.11254364045E+01 -0.25666818963E+02  0.95829974549E+02  0.91282493597E+02 0.  0.
         13    1    3    3    0    0 -0.29468084883E+02  0.13066994588E+02  0.14721450455E+02  0.35437926601E+02  0.10566000000E+00 0.  1.
         22    1    1    0    0    0 -0.13814419352E+02 -0.11254364045E+01  0.25666818963E+02  0.29170025451E+02  0.00000000000E+00 0. -1.
</event>
<event>
 5    1  0.1766634E-003  0.9118800E+02  0.7818608E-02  0.1130116E+00
         25   -1    0    0    0    0  0.00000000000E+00  0.00000000000E+00  0.99999998245E-14  0.12500000000E+03  0.12500000000E+03 0.  0.
        -13    1    3    3    0    0  0.46004824742E+01  0.80658682154E+01 -0.44473464191E+02  0.45432618791E+02  0.10566000000E+00 0.  1.
         23    2    1    0    0    0 -0.29582191950E+02 -0.11861153086E+01 -0.13575464266E+02  0.92429980348E+02  0.86501416676E+02 0.  0.
         13    1    3    3    0    0 -0.34182674424E+02 -0.92519835241E+01  0.30897999924E+02  0.46997361557E+02  0.10566000000E+00 0. -1.
         22    1    1    0    0    0  0.29582191950E+02  0.11861153086E+01  0.13575464266E+02  0.32570019652E+02  0.00000000000E+00 0. -1.
</event>
<event>
 5    1  0.1766634E-003  0.9118800E+02  0.7818608E-02  0.1130116E+00
         25   -1    0    0    0    0  0.00000000000E+00  0.00000000000E+00  0.99999998245E-14  0.12500000000E+03  0.12500000000E+03 0.  0.
        -13    1    3    3    0    0  0.17685586633E+02  0.42652550647E+02  0.38339564798E+02  0.60016276494E+02  0.10566000000E+00 0.  1.
         23    2    1    0    0    0  0.40319304098E+01  0.26977309265E+02  0.84118727977E+01  0.96455450924E+02  0.92135024453E+02 0.  0.
         13    1    3    3    0    0 -0.13653656223E+02 -0.15675241382E+02 -0.29927692000E+02  0.36439174430E+02  0.10566000000E+00 0. -1.
         22    1    1    0    0    0 -0.40319304098E+01 -0.26977309265E+02 -0.84118727977E+01  0.28544549076E+02  0.00000000000E+00 0.  1.
</event>
<event>
 5    1  0.1766634E-003  0.9118800E+02  0.7818608E-02  0.1130116E+00
         25   -1    0    0    0    0  0.00000000000E+00  0.00000000000E+00  0.99999998245E-14  0.12500000000E+03  0.12500000000E+03 0.  0.
        -13    1    3    3    0    0  0.16217320641E+02  0.22427573908E+02 -0.24423825046E+02  0.36912490489E+02  0.10566000000E+00 0.  1.
         23    2    1    0    0    0 -0.61498188275E+01 -0.28216495448E+02 -0.43896984795E+01  0.95789379675E+02  0.91226887039E+02 0.  0.
         13    1    3    3    0    0 -0.22367139469E+02 -0.50644069356E+02  0.20034126567E+02  0.58876889187E+02  0.10566000000E+00 0. -1.
         22    1    1    0    0    0  0.61498188275E+01  0.28216495448E+02  0.43896984795E+01  0.29210620325E+02  0.00000000000E+00 0. -1.
</event>
<event>
 5    1  0.1766634E-003  0.9118800E+02  0.7818608E-02  0.1130116E+00
         25   -1    0    0    0    0  0.00000000000E+00  0.00000000000E+00  0.99999998245E-14  0.12500000000E+03  0.12500000000E+03 0.  0.
        -13    1    3    3    0    0  0.11184766401E+02  0.53142522663E+02  0.11265774292E+02  0.55463100787E+02  0.10566000000E+00 0.  1.
         23    2    1    0    0    0  0.24648735305E+02  0.16935428436E+02  0.32252709436E+01  0.94920584097E+02  0.90028584484E+02 0.  0.
         13    1    3    3    0    0  0.13463968904E+02 -0.36207094227E+02 -0.80405033484E+01  0.39457483310E+02  0.10566000000E+00 0. -1.
         22    1    1    0    0    0 -0.24648735305E+02 -0.16935428436E+02 -0.32252709436E+01  0.30079415903E+02  0.00000000000E+00 0.  1.
</event>
<event>
 5    1  0.1766634E-003  0.9118800E+02  0.7818608E-02  0.1130116E+00
         25   -1    0    0    0    0  0.00000000000E+00  0.00000000000E+00  0.99999998245E-14  0.12500000000E+03  0.12500000000E+03 0.  0.
        -13    1    3    3    0    0 -0.40864206992E+02 -0.37196130416E+02 -0.50635565184E+01  0.55489515222E+02  0.10566000000E+00 0.  1.
         23    2    1    0    0    0 -0.11353741165E+02 -0.16324424652E+02 -0.21947747776E+02  0.95384161144E+02  0.90669952499E+02 0.  0.
         13    1    3    3    0    0  0.29510465826E+02  0.20871705764E+02 -0.16884191258E+02  0.39894645922E+02  0.10566000000E+00 0. -1.
         22    1    1    0    0    0  0.11353741165E+02  0.16324424652E+02  0.21947747776E+02  0.29615838856E+02  0.00000000000E+00 0.  1.
</event>
<event>
 5    1  0.1766634E-003  0.9118800E+02  0.7818608E-02  0.1130116E+00
         25   -1    0    0    0    0  0.00000000000E+00  0.00000000000E+00  0.99999998245E-14  0.12500000000E+03  0.12500000000E+03 0.  0.
        -13    1    3    3    0    0 -0.32364530400E+02  0.37923846610E+02  0.20125619333E+02  0.53765534381E+02  0.10566000000E+00 0.  1.
         23    2    1    0    0    0 -0.23721803220E+02 -0.27537963531E+01  0.17422385352E+02  0.95439099241E+02  0.90745660007E+02 0.  0.
         13    1    3    3    0    0  0.86427271801E+01 -0.40677642963E+02 -0.27032339810E+01  0.41673564860E+02  0.10566000000E+00 0. -1.
         22    1    1    0    0    0  0.23721803220E+02  0.27537963531E+01 -0.17422385352E+02  0.29560900759E+02  0.00000000000E+00 0.  1.
</event>
<event>
 5    1  0.1766634E-003  0.9118800E+02  0.7818608E-02  0.1130116E+00
         25   -1    0    0    0    0  0.00000000000E+00  0.00000000000E+00  0.99999998245E-14  0.12500000000E+03  0.12500000000E+03 0.  0.
        -13    1    3    3    0    0 -0.15507662252E+02 -0.25397199408E+02  0.17952992060E+02  0.34753797120E+02  0.10566000000E+00 0.  1.
         23    2    1    0    0    0  0.61580464398E+01 -0.59187065180E+01 -0.31615857450E+02  0.92250724205E+02  0.86241991229E+02 0.  0.
         13    1    3    3    0    0  0.21665708692E+02  0.19478492890E+02 -0.49568849510E+02  0.57496927085E+02  0.10566000000E+00 0. -1.
         22    1    1    0    0    0 -0.61580464398E+01  0.59187065180E+01  0.31615857450E+02  0.32749275795E+02  0.00000000000E+00 0. -1.
</event>
<event>
 5    1  0.1766634E-003  0.9118800E+02  0.7818608E-02  0.1130116E+00
         25   -1    0    0    0    0  0.00000000000E+00  0.00000000000E+00  0.99999998245E-14  0.12500000000E+03  0.12500000000E+03 0.  0.
        -13    1    3    3    0    0 -0.94852123911E+00 -0.32617766385E+02  0.50119448848E+01  0.33014377656E+02  0.10566000000E+00 0. -1.
         23    2    1    0    0    0  0.96839298218E+01  0.27797435133E+02 -0.49161217139E+01  0.95156338202E+02  0.90355323864E+02 0.  0.
         13    1    3    3    0    0  0.10632451061E+02  0.60415201518E+02 -0.99280665986E+01  0.62141960546E+02  0.10566000000E+00 0.  1.
         22    1    1    0    0    0 -0.96839298218E+01 -0.27797435133E+02  0.49161217139E+01  0.29843661798E+02  0.00000000000E+00 0.  1.
</event>
<event>
 5    1  0.1766634E-003  0.9118800E+02  0.7818608E-02  0.1130116E+00
         25   -1    0    0    0    0  0.00000000000E+00  0.00000000000E+00  0.99999998245E-14  0.12500000000E+03  0.12500000000E+03 0.  0.
        -13    1    3    3    0    0 -0.24135238748E+02 -0.71026005611E+01  0.49047402277E+02  0.55123638471E+02  0.10566000000E+00 0. -1.
         23    2    1    0    0    0 -0.11168735570E+02  0.18168513393E+02  0.19662343319E+02  0.95992358284E+02  0.91504587704E+02 0.  0.
         13    1    3    3    0    0  0.12966503178E+02  0.25271113954E+02 -0.29385058958E+02  0.40868719813E+02  0.10566000000E+00 0.  1.
         22    1    1    0    0    0  0.11168735570E+02 -0.18168513393E+02 -0.19662343319E+02  0.29007641716E+02  0.00000000000E+00 0. -1.
</event>
<event>
 5    1  0.1766634E-003  0.9118800E+02  0.7818608E-02  0.1130116E+00
         25   -1    0    0    0    0  0.00000000000E+00  0.00000000000E+00  0.99999998245E-14  0.12500000000E+03  0.12500000000E+03 0.  0.
        -13    1    3    3    0    0  0.48335015338E+02 -0.10540867758E+02 -0.26922353232E+01  0.49544352816E+02  0.10566000000E+00 0.  1.
         23    2    1    0    0    0  0.13892543191E+02  0.22935450844E+02  0.34412834261E+01  0.97965205875E+02  0.94161040079E+02 0.  0.
         13    1    3    3    0    0 -0.34442472147E+02  0.33476318602E+02  0.61335187493E+01  0.48420853060E+02  0.10566000000E+00 0. -1.
         22    1    1    0    0    0 -0.13892543191E+02 -0.22935450844E+02 -0.34412834261E+01  0.27034794125E+02  0.00000000000E+00 0. -1.
</event>
<event>
 5    1  0.1766634E-003  0.9118800E+02  0.7818608E-02  0.1130116E+00
         25   -1    0    0    0    0  0.00000000000E+00  0.00000000000E+00  0.99999998245E-14  0.12500000000E+03  0.12500000000E+03 0.  0.
        -13    1    3    3    0    0 -0.40898663234E+02  0.10476975014E+02  0.12001798414E+02  0.43892163184E+02  0.10566000000E+00 0. -1.
         23    2    1    0    0    0  0.80756637183E+00 -0.20110395326E+02 -0.12692487682E+02  0.10120547527E+03  0.98368535707E+02 0.  0.
         13    1    3    3    0    0  0.41706229606E+02 -0.30587370340E+02 -0.24694286096E+02  0.57313312084E+02  0.10566000000E+00 0.  1.
         22    1    1    0    0    0 -0.80756637183E+00  0.20110395326E+02  0.12692487682E+02  0.23794524731E+02  0.00000000000E+00 0.  1.
</event>
<event>
 5    1  0.1766634E-003  0.9118800E+02  0.7818608E-02  0.1130116E+00
         25   -1    0    0    0    0  0.00000000000E+00  0.00000000000E+00  0.99999998245E-14  0.12500000000E+03  0.12500000000E+03 0.  0.
        -13    1    3    3    0    0 -0.29076413614E+02  0.35514099424E+02 -0.81388428809E+01  0.46614815392E+02  0.10566000000E+00 0.  1.
         23    2    1    0    0    0  0.60980885720E+01  0.63050303240E+01 -0.27402029429E+02  0.96228289790E+02  0.91826316747E+02 0.  0.
         13    1    3    3    0    0  0.35174502186E+02 -0.29209069100E+02 -0.19263186548E+02  0.49613474397E+02  0.10566000000E+00 0. -1.
         22    1    1    0    0    0 -0.60980885720E+01 -0.63050303240E+01  0.27402029429E+02  0.28771710210E+02  0.00000000000E+00 0.  1.
</event>
<event>
 5    1  0.1766634E-003  0.9118800E+02  0.7818608E-02  0.1130116E+00
         25   -1    0    0    0    0  0.00000000000E+00  0.00000000000E+00  0.99999998245E-14  0.12500000000E+03  0.12500000000E+03 0.  0.
        -13    1    3    3    0    0  0.24017837152E+02 -0.69143382315E+01 -0.40840763260E+02  0.47881558896E+02  0.10566000000E+00 0.  1.
         23    2    1    0    0    0  0.22935744058E+02 -0.20613563019E+02  0.31811644922E+01  0.93998594493E+02  0.88739216941E+02 0.  0.
         13    1    3    3    0    0 -0.10820930933E+01 -0.13699224788E+02  0.44021927752E+02  0.46117035597E+02  0.10566000000E+00 0. -1.
         22    1    1    0    0    0 -0.22935744058E+02  0.20613563019E+02 -0.31811644922E+01  0.31001405507E+02  0.00000000000E+00 0.  1.
</event>
<event>
 5    1  0.1766634E-003  0.9118800E+02  0.7818608E-02  0.1130116E+00
         25   -1    0    0    0    0  0.00000000000E+00  0.00000000000E+00  0.99999998245E-14  0.12500000000E+03  0.12500000000E+03 0.  0.
        -13    1    3    3    0    0  0.18774946272E+02  0.39289551719E+02 -0.30658222400E+02  0.53255095968E+02  0.10566000000E+00 0. -1.
         23    2    1    0    0    0 -0.13099052828E+02  0.13234560224E+02 -0.23460460318E+02  0.95047838681E+02  0.90205097807E+02 0.  0.
         13    1    3    3    0    0 -0.31873999100E+02 -0.26054991495E+02  0.71977620816E+01  0.41792742713E+02  0.10566000000E+00 0.  1.
         22    1    1    0    0    0  0.13099052828E+02 -0.13234560224E+02  0.23460460318E+02  0.29952161319E+02  0.00000000000E+00 0. -1.
</event>
<event>
 5    1  0.1766634E-003  0.9118800E+02  0.7818608E-02  0.1130116E+00
         25   -1    0    0    0    0  0.00000000000E+00  0.00000000000E+00  0.99999998245E-14  0.12500000000E+03  0.12500000000E+03 0.  0.
        -13    1    3    3    0    0 -0.33163466699E+02 -0.36365719198E+02  0.12547294233E+02  0.50791011142E+02  0.10566000000E+00 0. -1.
         23    2    1    0    0    0 -0.26389999178E+02  0.82220309588E+01  0.10213440094E+01  0.97339974814E+02  0.93327347029E+02 0.  0.
         13    1    3    3    0    0  0.67734675206E+01  0.44587750157E+02 -0.11525950223E+02  0.46548963671E+02  0.10566000000E+00 0.  1.
         22    1    1    0    0    0  0.26389999178E+02 -0.82220309588E+01 -0.10213440094E+01  0.27660025186E+02  0.00000000000E+00 0. -1.
</event>
<event>
 5    1  0.1766634E-003  0.9118800E+02  0.7818608E-02  0.1130116E+00
         25   -1    0    0    0    0  0.00000000000E+00  0.00000000000E+00  0.99999998245E-14  0.12500000000E+03  0.12500000000E+03 0.  0.
        -13    1    3    3    0    0  0.10776722270E+02 -0.51368195576E+01 -0.31899070709E+02  0.34060043074E+02  0.10566000000E+00 0.  1.
         23    2    1    0    0    0 -0.22955811924E+01  0.15143178495E+02  0.24897174203E+02  0.95768940641E+02  0.91198876968E+02 0.  0.
         13    1    3    3    0    0 -0.13072303463E+02  0.20279998053E+02  0.56796244912E+02  0.61708897567E+02  0.10566000000E+00 0. -1.
         22    1    1    0    0    0  0.22955811924E+01 -0.15143178495E+02 -0.24897174203E+02  0.29231059359E+02  0.00000000000E+00 0. -1.
</event>
<event>
 5    1  0.1766634E-003  0.9118800E+02  0.7818608E-02  0.1130116E+00
         25   -1    0    0    0    0  0.00000000000E+00  0.00000000000E+00  0.99999998245E-14  0.12500000000E+03  0.12500000000E+03 0.  0.
        -13    1    3    3    0    0 -0.42384408271E+02 -0.70030433450E+01 -0.19167294957E+02  0.47041227031E+02  0.10566000000E+00 0.  1.
         23    2    1    0    0    0 -0.17759782603E+02  0.13703605390E+02  0.18028377905E+02  0.96221169435E+02  0.91816623543E+02 0.  0.
         13    1    3    3    0    0  0.24624625668E+02  0.20706648735E+02  0.37195672862E+02  0.49179942404E+02  0.10566000000E+00 0. -1.
         22    1    1    0    0    0  0.17759782603E+02 -0.13703605390E+02 -0.18028377905E+02  0.28778830565E+02  0.00000000000E+00 0. -1.
</event>
<event>
 5    1  0.1766634E-003  0.9118800E+02  0.7818608E-02  0.1130116E+00
         25   -1    0    0    0    0  0.00000000000E+00  0.00000000000E+00  0.99999998245E-14  0.12500000000E+03  0.12500000000E+03 0.  0.
        -13    1    3    3    0    0  0.42322741345E+02  0.42629495392E+02 -0.60819288370E+01  0.60377887796E+02  0.10566000000E+00 0. -1.
         23    2    1    0    0    0  0.19906041786E+02  0.17693849971E+02 -0.14115490821E+02  0.94857506615E+02  0.89940962045E+02 0.  0.
         13    1    3    3    0    0 -0.22416699558E+02 -0.24935645421E+02 -0.80335619837E+01  0.34479618818E+02  0.10566000000E+00 0.  1.
         22    1    1    0    0    0 -0.19906041786E+02 -0.17693849971E+02  0.14115490821E+02  0.30142493385E+02  0.00000000000E+00 0. -1.
</event>
<event>
 5    1  0.1766634E-003  0.9118800E+02  0.7818608E-02  0.1130116E+00
         25   -1    0    0    0    0  0.00000000000E+00  0.00000000000E+00  0.99999998245E-14  0.12500000000E+03  0.12500000000E+03 0.  0.
        -13    1    3    3    0    0  0.13352823215E+02  0.13483359950E+02  0.41033589858E+02  0.45209131202E+02  0.10566000000E+00 0.  1.
         23    2    1    0    0    0  0.17274390375E+02 -0.16940437054E+02 -0.47735526491E+01  0.10033890158E+03  0.97261119646E+02 0.  0.
         13    1    3    3    0    0  0.39215671604E+01 -0.30423797004E+02 -0.45807142507E+02  0.55129770377E+02  0.10566000000E+00 0. -1.
         22    1    1    0    0    0 -0.17274390375E+02  0.16940437054E+02  0.47735526491E+01  0.24661098420E+02  0.00000000000E+00 0. -1.
</event>
<event>
 5    1  0.1766634E-003  0.9118800E+02  0.7818608E-02  0.1130116E+00
         25   -1    0    0    0    0  0.00000000000E+00  0.00000000000E+00  0.99999998245E-14  0.12500000000E+03  0.12500000000E+03 0.  0.
        -13    1    3    3    0    0  0.20294114117E+02  0.34971025298E+02 -0.25039528467E+02  0.47558520037E+02  0.10566000000E+00 0.  1.
         23    2    1    0    0    0 -0.21702979087E+02  0.17143007678E+02 -0.93607438454E+01  0.95801960017E+02  0.91244123122E+02 0.  0.
         13    1    3    3    0    0 -0.41997093204E+02 -0.17828017621E+02  0.15678784622E+02  0.48243439980E+02  0.10566000000E+00 0. -1.
         22    1    1    0    0    0  0.21702979087E+02 -0.17143007678E+02  0.93607438454E+01  0.29198039983E+02  0.00000000000E+00 0.  1.
</event>
<event>
 5    1  0.1766634E-003  0.9118800E+02  0.7818608E-02  0.1130116E+00
         25   -1    0    0    0    0  0.00000000000E+00  0.00000000000E+00  0.99999998245E-14  0.12500000000E+03  0.12500000000E+03 0.  0.
        -13    1    3    3    0    0  0.19820785767E+02  0.88272431125E+01 -0.32190985953E+02  0.38820799967E+02  0.10566000000E+00 0.  1.
         23    2    1    0    0    0 -0.44045303696E+01  0.35313116534E+02  0.32523938946E+01  0.89264945038E+02  0.81799977136E+02 0.  0.
         13    1    3    3    0    0 -0.24225316137E+02  0.26485873421E+02  0.35443379848E+02  0.50444145071E+02  0.10566000000E+00 0. -1.
         22    1    1    0    0    0  0.44045303696E+01 -0.35313116534E+02 -0.32523938946E+01  0.35735054962E+02  0.00000000000E+00 0. -1.
</event>
<event>
 5    1  0.1766634E-003  0.9118800E+02  0.7818608E-02  0.1130116E+00
         25   -1    0    0    0    0  0.00000000000E+00  0.00000000000E+00  0.99999998245E-14  0.12500000000E+03  0.12500000000E+03 0.  0.
        -13    1    3    3    0    0 -0.57470354073E+01 -0.36369362639E+02  0.83135492862E+01  0.37747651855E+02  0.10566000000E+00 0.  1.
         23    2    1    0    0    0 -0.47249446359E+01  0.18294732921E+02  0.23837017577E+02  0.94582476080E+02  0.89557908752E+02 0.  0.
         13    1    3    3    0    0  0.10220907714E+01  0.54664095560E+02  0.15523468291E+02  0.56834824226E+02  0.10566000000E+00 0. -1.
         22    1    1    0    0    0  0.47249446359E+01 -0.18294732921E+02 -0.23837017577E+02  0.30417523920E+02  0.00000000000E+00 0. -1.
</event>
<event>
 5    1  0.1766634E-003  0.9118800E+02  0.7818608E-02  0.1130116E+00
         25   -1    0    0    0    0  0.00000000000E+00  0.00000000000E+00  0.99999998245E-14  0.12500000000E+03  0.12500000000E+03 0.  0.
        -13    1    3    3    0    0  0.16014055929E+02  0.43936486708E+02 -0.17629507737E+02  0.49976750181E+02  0.10566000000E+00 0. -1.
         23    2    1    0    0    0 -0.67335079598E+01  0.35965511138E+01 -0.26753527772E+02  0.97178667221E+02  0.93111045560E+02 0.  0.
         13    1    3    3    0    0 -0.22747563889E+02 -0.40339935594E+02 -0.91240200353E+01  0.47201917040E+02  0.10566000000E+00 0.  1.
         22    1    1    0    0    0  0.67335079598E+01 -0.35965511138E+01  0.26753527772E+02  0.27821332779E+02  0.00000000000E+00 0. -1.
</event>
<event>
 5    1  0.1766634E-003  0.9118800E+02  0.7818608E-02  0.1130116E+00
         25   -1    0    0    0    0  0.00000000000E+00  0.00000000000E+00  0.99999998245E-14  0.12500000000E+03  0.12500000000E+03 0.  0.
        -13    1    3    3    0    0  0.48744925464E+02 -0.28126711478E+02 -0.25459841035E+02  0.61768878301E+02  0.10566000000E+00 0.  1.
         23    2    1    0    0    0  0.25946827004E+02 -0.73106727240E+01 -0.13180493190E+02  0.94993181308E+02  0.90129325566E+02 0.  0.
         13    1    3    3    0    0 -0.22798098460E+02  0.20816038754E+02  0.12279347845E+02  0.33224303007E+02  0.10566000000E+00 0. -1.
         22    1    1    0    0    0 -0.25946827004E+02  0.73106727240E+01  0.13180493190E+02  0.30006818692E+02  0.00000000000E+00 0.  1.
</event>
<event>
 5    1  0.1766634E-003  0.9118800E+02  0.7818608E-02  0.1130116E+00
         25   -1    0    0    0    0  0.00000000000E+00  0.00000000000E+00  0.99999998245E-14  0.12500000000E+03  0.12500000000E+03 0.  0.
        -13    1    3    3    0    0 -0.14677478978E+02 -0.42284373939E+02 -0.37505171042E+00  0.44761015363E+02  0.10566000000E+00 0.  1.
         23    2    1    0    0    0 -0.25258972241E+02  0.51380375675E+01  0.14306839914E+02  0.95519484790E+02  0.90856321725E+02 0.  0.
         13    1    3    3    0    0 -0.10581493264E+02  0.47422411506E+02  0.14681891625E+02  0.50758469426E+02  0.10566000000E+00 0. -1.
         22    1    1    0    0    0  0.25258972241E+02 -0.51380375675E+01 -0.14306839914E+02  0.29480515210E+02  0.00000000000E+00 0.  1.
</event>
<event>
 5    1  0.1766634E-003  0.9118800E+02  0.7818608E-02  0.1130116E+00
         25   -1    0    0    0    0  0.00000000000E+00  0.00000000000E+00  0.99999998245E-14  0.12500000000E+03  0.12500000000E+03 0.  0.
        -13    1    3    3    0    0 -0.24088939020E+02 -0.25571780071E+02 -0.89618596455E+01  0.36256296163E+02  0.10566000000E+00 0.  1.
         23    2    1    0    0    0  0.29575185886E+02 -0.18982377706E+01 -0.30484712456E+01  0.95207583116E+02  0.90426189675E+02 0.  0.
         13    1    3    3    0    0  0.53664124906E+02  0.23673542301E+02  0.59133883999E+01  0.58951286953E+02  0.10566000000E+00 0. -1.
         22    1    1    0    0    0 -0.29575185886E+02  0.18982377706E+01  0.30484712456E+01  0.29792416884E+02  0.00000000000E+00 0. -1.
</event>
<event>
 5    1  0.1766634E-003  0.9118800E+02  0.7818608E-02  0.1130116E+00
         25   -1    0    0    0    0  0.00000000000E+00  0.00000000000E+00  0.99999998245E-14  0.12500000000E+03  0.12500000000E+03 0.  0.
        -13    1    3    3    0    0 -0.24150153512E+02  0.27341277357E+02  0.35877768776E+01  0.36655949983E+02  0.10566000000E+00 0.  1.
         23    2    1    0    0    0  0.79778921676E+01 -0.12274093673E+02 -0.25663962922E+02  0.95454456651E+02  0.90766812012E+02 0.  0.
         13    1    3    3    0    0  0.32128045680E+02 -0.39615371030E+02 -0.29251739799E+02  0.58798506668E+02  0.10566000000E+00 0. -1.
         22    1    1    0    0    0 -0.79778921676E+01  0.12274093673E+02  0.25663962922E+02  0.29545543349E+02  0.00000000000E+00 0. -1.
</event>
<event>
 5    1  0.1766634E-003  0.9118800E+02  0.7818608E-02  0.1130116E+00
         25   -1    0    0    0    0  0.00000000000E+00  0.00000000000E+00  0.99999998245E-14  0.12500000000E+03  0.12500000000E+03 0.  0.
        -13    1    3    3    0    0 -0.38087805888E+02 -0.71579883930E+01  0.13893341952E+02  0.41169817461E+02  0.10566000000E+00 0.  1.
         23    2    1    0    0    0  0.12152659755E+02 -0.24565482263E+02  0.13741652564E+02  0.94340856614E+02  0.89220032244E+02 0.  0.
         13    1    3    3    0    0  0.50240465643E+02 -0.17407493870E+02 -0.15168938775E+00  0.53171039153E+02  0.10566000000E+00 0. -1.
         22    1    1    0    0    0 -0.12152659755E+02  0.24565482263E+02 -0.13741652564E+02  0.30659143386E+02  0.00000000000E+00 0. -1.
</event>
<event>
 5    1  0.1766634E-003  0.9118800E+02  0.7818608E-02  0.1130116E+00
         25   -1    0    0    0    0  0.00000000000E+00  0.00000000000E+00  0.99999998245E-14  0.12500000000E+03  0.12500000000E+03 0.  0.
        -13    1    3    3    0    0 -0.53915102878E+02  0.40627222688E+01 -0.12206676253E+02  0.55428856562E+02  0.10566000000E+00 0.  1.
         23    2    1    0    0    0 -0.20554679849E+02 -0.18871041398E+02 -0.30901870521E+01  0.96925806812E+02  0.92770963684E+02 0.  0.
         13    1    3    3    0    0  0.33360423029E+02 -0.22933763667E+02  0.91164892007E+01  0.41496950250E+02  0.10566000000E+00 0. -1.
         22    1    1    0    0    0  0.20554679849E+02  0.18871041398E+02  0.30901870521E+01  0.28074193188E+02  0.00000000000E+00 0. -1.
</event>
<event>
 5    1  0.1766634E-003  0.9118800E+02  0.7818608E-02  0.1130116E+00
         25   -1    0    0    0    0  0.00000000000E+00  0.00000000000E+00  0.99999998245E-14  0.12500000000E+03  0.12500000000E+03 0.  0.
        -13    1    3    3    0    0 -0.39105268549E+02 -0.27929275465E+02 -0.23919433368E+01  0.48114436641E+02  0.10566000000E+00 0.  1.
         23    2    1    0    0    0 -0.25166387135E+02  0.16578984209E+02 -0.25624288391E+01  0.94754739208E+02  0.89798022262E+02 0.  0.
         13    1    3    3    0    0  0.13938881415E+02  0.44508259673E+02 -0.17048550233E+00  0.46640302568E+02  0.10566000000E+00 0. -1.
         22    1    1    0    0    0  0.25166387135E+02 -0.16578984209E+02  0.25624288391E+01  0.30245260792E+02  0.00000000000E+00 0.  1.
</event>
<event>
 5    1  0.1766634E-003  0.9118800E+02  0.7818608E-02  0.1130116E+00
         25   -1    0    0    0    0  0.00000000000E+00  0.00000000000E+00  0.99999998245E-14  0.12500000000E+03  0.12500000000E+03 0.  0.
        -13    1    3    3    0    0  0.10410017329E+02 -0.40308428263E+02 -0.18029179541E+02  0.45367392792E+02  0.10566000000E+00 0.  1.
         23    2    1    0    0    0  0.27911525918E+02  0.51343908739E+01 -0.23631607544E+01  0.96521942176E+02  0.92225189313E+02 0.  0.
         13    1    3    3    0    0  0.17501508589E+02  0.45442819136E+02  0.15666018787E+02  0.51154549383E+02  0.10566000000E+00 0. -1.
         22    1    1    0    0    0 -0.27911525918E+02 -0.51343908739E+01  0.23631607544E+01  0.28478057824E+02  0.00000000000E+00 0. -1.
</event>
<event>
 5    1  0.1766634E-003  0.9118800E+02  0.7818608E-02  0.1130116E+00
         25   -1    0    0    0    0  0.00000000000E+00  0.00000000000E+00  0.99999998245E-14  0.12500000000E+03  0.12500000000E+03 0.  0.
        -13    1    3    3    0    0  0.22024222473E+02  0.11485814147E+02 -0.47836082112E+02  0.53900762685E+02  0.10566000000E+00 0.  1.
         23    2    1    0    0    0  0.17172942223E+02  0.22408039772E+02 -0.77597239552E+01  0.95721278940E+02  0.91133526954E+02 0.  0.
         13    1    3    3    0    0 -0.48512802506E+01  0.10922225626E+02  0.40076358157E+02  0.41820516255E+02  0.10566000000E+00 0. -1.
         22    1    1    0    0    0 -0.17172942223E+02 -0.22408039772E+02  0.77597239552E+01  0.29278721060E+02  0.00000000000E+00 0.  1.
</event>
<event>
 5    1  0.1766634E-003  0.9118800E+02  0.7818608E-02  0.1130116E+00
         25   -1    0    0    0    0  0.00000000000E+00  0.00000000000E+00  0.99999998245E-14  0.12500000000E+03  0.12500000000E+03 0.  0.
        -13    1    3    3    0    0 -0.26996949057E+01 -0.37621531223E+02  0.55299741280E+01  0.38121644010E+02  0.10566000000E+00 0.  1.
         23    2    1    0    0    0 -0.26236982617E+02  0.13834912138E+02 -0.23218979854E+01  0.95248104918E+02  0.90482187361E+02 0.  0.
         13    1    3    3    0    0 -0.23537287711E+02  0.51456443361E+02 -0.78518721135E+01  0.57126460908E+02  0.10566000000E+00 0. -1.
         22    1    1    0    0    0  0.26236982617E+02 -0.13834912138E+02  0.23218979854E+01  0.29751895082E+02  0.00000000000E+00 0. -1.
</event>
<event>
 5    1  0.1766634E-003  0.9118800E+02  0.7818608E-02  0.1130116E+00
         25   -1    0    0    0    0  0.00000000000E+00  0.00000000000E+00  0.99999998245E-14  0.12500000000E+03  0.12500000000E+03 0.  0.
        -13    1    3    3    0    0  0.44168588336E+02  0.32853908645E+02  0.27506605166E+02  0.61537533267E+02  0.10566000000E+00 0.  1.
         23    2    1    0    0    0  0.22296439097E+02  0.21219513624E+02  0.76592142926E+01  0.93281511410E+02  0.87723302791E+02 0.  0.
         13    1    3    3    0    0 -0.21872149238E+02 -0.11634395021E+02 -0.19847390874E+02  0.31743978143E+02  0.10566000000E+00 0. -1.
         22    1    1    0    0    0 -0.22296439097E+02 -0.21219513624E+02 -0.76592142926E+01  0.31718488590E+02  0.00000000000E+00 0.  1.
</event>
<event>
 5    1  0.1766634E-003  0.9118800E+02  0.7818608E-02  0.1130116E+00
         25   -1    0    0    0    0  0.00000000000E+00  0.00000000000E+00  0.99999998245E-14  0.12500000000E+03  0.12500000000E+03 0.  0.
        -13    1    3    3    0    0 -0.23667635685E+02  0.48087718204E+02 -0.14530111851E+02  0.55531260884E+02  0.10566000000E+00 0.  1.
         23    2    1    0    0    0 -0.70645690981E+01  0.12697895987E+02 -0.25074419749E+02  0.96019468176E+02  0.91541613729E+02 0.  0.
         13    1    3    3    0    0  0.16603066587E+02 -0.35389822217E+02 -0.10544307898E+02  0.40488207292E+02  0.10566000000E+00 0. -1.
         22    1    1    0    0    0  0.70645690981E+01 -0.12697895987E+02  0.25074419749E+02  0.28980531824E+02  0.00000000000E+00 0.  1.
</event>
<event>
 5    1  0.1766634E-003  0.9118800E+02  0.7818608E-02  0.1130116E+00
         25   -1    0    0    0    0  0.00000000000E+00  0.00000000000E+00  0.99999998245E-14  0.12500000000E+03  0.12500000000E+03 0.  0.
        -13    1    3    3    0    0 -0.42884802525E+02 -0.19373781171E+02  0.38638491905E+02  0.60888372496E+02  0.10566000000E+00 0.  1.
         23    2    1    0    0    0 -0.27821491662E+02 -0.17745356952E+02  0.15510151395E+02  0.88537719655E+02  0.80681038130E+02 0.  0.
         13    1    3    3    0    0  0.15063310863E+02  0.16284242187E+01 -0.23128340509E+02  0.27649347160E+02  0.10566000000E+00 0. -1.
         22    1    1    0    0    0  0.27821491662E+02  0.17745356952E+02 -0.15510151395E+02  0.36462280345E+02  0.00000000000E+00 0.  1.
</event>
<event>
 5    1  0.1766634E-003  0.9118800E+02  0.7818608E-02  0.1130116E+00
         25   -1    0    0    0    0  0.00000000000E+00  0.00000000000E+00  0.99999998245E-14  0.12500000000E+03  0.12500000000E+03 0.  0.
        -13    1    3    3    0    0 -0.33661835002E+02 -0.18414688300E+01  0.30880554138E+01  0.33853469445E+02  0.10566000000E+00 0.  1.
         23    2    1    0    0    0  0.27870538294E+02  0.71570010710E+01 -0.13069105916E+01  0.96195528396E+02  0.91781708956E+02 0.  0.
         13    1    3    3    0    0  0.61532373296E+02  0.89984699010E+01 -0.43949660053E+01  0.62342058951E+02  0.10566000000E+00 0. -1.
         22    1    1    0    0    0 -0.27870538294E+02 -0.71570010710E+01  0.13069105916E+01  0.28804471604E+02  0.00000000000E+00 0. -1.
</event>
<event>
 5    1  0.1766634E-003  0.9118800E+02  0.7818608E-02  0.1130116E+00
         25   -1    0    0    0    0  0.00000000000E+00  0.00000000000E+00  0.99999998245E-14  0.12500000000E+03  0.12500000000E+03 0.  0.
        -13    1    3    3    0    0  0.55502362611E+02  0.22099884502E+02 -0.11214018388E+02  0.60783900195E+02  0.10566000000E+00 0.  1.
         23    2    1    0    0    0  0.20497151271E+02  0.18350181009E+02 -0.89800877576E+01  0.96060332942E+02  0.91597397536E+02 0.  0.
         13    1    3    3    0    0 -0.35005211340E+02 -0.37497034932E+01  0.22339306308E+01  0.35276432747E+02  0.10566000000E+00 0. -1.
         22    1    1    0    0    0 -0.20497151271E+02 -0.18350181009E+02  0.89800877576E+01  0.28939667058E+02  0.00000000000E+00 0.  1.
</event>
<event>
 5    1  0.1766634E-003  0.9118800E+02  0.7818608E-02  0.1130116E+00
         25   -1    0    0    0    0  0.00000000000E+00  0.00000000000E+00  0.99999998245E-14  0.12500000000E+03  0.12500000000E+03 0.  0.
        -13    1    3    3    0    0 -0.20097751564E+02  0.12350444599E+01  0.33850775648E+02  0.39386941094E+02  0.10566000000E+00 0.  1.
         23    2    1    0    0    0  0.21002717648E+02 -0.20740306159E+02  0.28867192326E+01  0.95341820756E+02  0.90611562115E+02 0.  0.
         13    1    3    3    0    0  0.41100469212E+02 -0.21975350619E+02 -0.30964056415E+02  0.55954879662E+02  0.10566000000E+00 0. -1.
         22    1    1    0    0    0 -0.21002717648E+02  0.20740306159E+02 -0.28867192326E+01  0.29658179244E+02  0.00000000000E+00 0. -1.
</event>
<event>
 5    1  0.1766634E-003  0.9118800E+02  0.7818608E-02  0.1130116E+00
         25   -1    0    0    0    0  0.00000000000E+00  0.00000000000E+00  0.99999998245E-14  0.12500000000E+03  0.12500000000E+03 0.  0.
        -13    1    3    3    0    0  0.20284849226E+01 -0.57995279139E+00  0.37837515787E+02  0.37896435997E+02  0.10566000000E+00 0.  1.
         23    2    1    0    0    0  0.13298260776E+02  0.21131356063E+02 -0.14824774843E+02  0.95962922015E+02  0.91464367399E+02 0.  0.
         13    1    3    3    0    0  0.11269775854E+02  0.21711308855E+02 -0.52662290630E+02  0.58066486018E+02  0.10566000000E+00 0. -1.
         22    1    1    0    0    0 -0.13298260776E+02 -0.21131356063E+02  0.14824774843E+02  0.29037077985E+02  0.00000000000E+00 0. -1.
</event>
<event>
 5    1  0.1766634E-003  0.9118800E+02  0.7818608E-02  0.1130116E+00
         25   -1    0    0    0    0  0.00000000000E+00  0.00000000000E+00  0.99999998245E-14  0.12500000000E+03  0.12500000000E+03 0.  0.
        -13    1    3    3    0    0 -0.11414985083E+02 -0.20326556188E+02 -0.46626077282E+02  0.52129387275E+02  0.10566000000E+00 0. -1.
         23    2    1    0    0    0 -0.25744841349E+02 -0.13862607006E+02 -0.67518131641E+01  0.94990739594E+02  0.90125939100E+02 0.  0.
         13    1    3    3    0    0 -0.14329856266E+02  0.64639491823E+01  0.39874264118E+02  0.42861352319E+02  0.10566000000E+00 0.  1.
         22    1    1    0    0    0  0.25744841349E+02  0.13862607006E+02  0.67518131641E+01  0.30009260406E+02  0.00000000000E+00 0. -1.
</event>
<event>
 5    1  0.1766634E-003  0.9118800E+02  0.7818608E-02  0.1130116E+00
         25   -1    0    0    0    0  0.00000000000E+00  0.00000000000E+00  0.99999998245E-14  0.12500000000E+03  0.12500000000E+03 0.  0.
        -13    1    3    3    0    0 -0.15341167587E+02  0.33590392053E+02 -0.20234041766E+02  0.42108116455E+02  0.10566000000E+00 0.  1.
         23    2    1    0    0    0  0.11280934678E+02  0.13511402493E+02  0.22576508689E+02  0.96372806126E+02  0.92022831577E+02 0.  0.
         13    1    3    3    0    0  0.26622102265E+02 -0.20078989560E+02  0.42810550455E+02  0.54264689671E+02  0.10566000000E+00 0. -1.
         22    1    1    0    0    0 -0.11280934678E+02 -0.13511402493E+02 -0.22576508689E+02  0.28627193874E+02  0.00000000000E+00 0. -1.
</event>
<event>
 5    1  0.1766634E-003  0.9118800E+02  0.7818608E-02  0.1130116E+00
         25   -1    0    0    0    0  0.00000000000E+00  0.00000000000E+00  0.99999998245E-14  0.12500000000E+03  0.12500000000E+03 0.  0.
        -13    1    3    3    0    0  0.23655034469E+01  0.51797318060E+01 -0.37608253745E+02  0.38037049595E+02  0.10566000000E+00 0.  1.
         23    2    1    0    0    0  0.13998211069E+02  0.23969275102E+02  0.13805350633E+02  0.93998971499E+02  0.88739747997E+02 0.  0.
         13    1    3    3    0    0  0.11632707622E+02  0.18789543296E+02  0.51413604378E+02  0.55961921903E+02  0.10566000000E+00 0. -1.
         22    1    1    0    0    0 -0.13998211069E+02 -0.23969275102E+02 -0.13805350633E+02  0.31001028501E+02  0.00000000000E+00 0. -1.
</event>
<event>
 5    1  0.1766634E-003  0.9118800E+02  0.7818608E-02  0.1130116E+00
         25   -1    0    0    0    0  0.00000000000E+00  0.00000000000E+00  0.99999998245E-14  0.12500000000E+03  0.12500000000E+03 0.  0.
        -13    1    3    3    0    0 -0.53107971150E+02 -0.16168574372E+01 -0.15636787307E+02  0.55385838524E+02  0.10566000000E+00 0.  1.
         23    2    1    0    0    0 -0.17340536108E+02  0.17074750318E+02 -0.16231964604E+02  0.95747342585E+02  0.91169269199E+02 0.  0.
         13    1    3    3    0    0  0.35767435043E+02  0.18691607756E+02 -0.59517729615E+00  0.40361504061E+02  0.10566000000E+00 0. -1.
         22    1    1    0    0    0  0.17340536108E+02 -0.17074750318E+02  0.16231964604E+02  0.29252657415E+02  0.00000000000E+00 0.  1.
</event>
<event>
 5    1  0.1766634E-003  0.9118800E+02  0.7818608E-02  0.1130116E+00
         25   -1    0    0    0    0  0.00000000000E+00  0.00000000000E+00  0.99999998245E-14  0.12500000000E+03  0.12500000000E+03 0.  0.
        -13    1    3    3    0    0  0.12737097291E+02 -0.38146627897E+02 -0.39981691491E+02  0.56709308635E+02  0.10566000000E+00 0.  1.
         23    2    1    0    0    0  0.19902334919E+02 -0.46504761878E+01 -0.20193613273E+02  0.96268277444E+02  0.91880734439E+02 0.  0.
         13    1    3    3    0    0  0.71652376289E+01  0.33496151709E+02  0.19788078219E+02  0.39558968809E+02  0.10566000000E+00 0. -1.
         22    1    1    0    0    0 -0.19902334919E+02  0.46504761878E+01  0.20193613273E+02  0.28731722556E+02  0.00000000000E+00 0.  1.
</event>
<event>
 5    1  0.1766634E-003  0.9118800E+02  0.7818608E-02  0.1130116E+00
         25   -1    0    0    0    0  0.00000000000E+00  0.00000000000E+00  0.99999998245E-14  0.12500000000E+03  0.12500000000E+03 0.  0.
        -13    1    3    3    0    0  0.14213432406E+02 -0.24145971393E+01 -0.20095537419E+02  0.24732442830E+02  0.10566000000E+00 0.  1.
         23    2    1    0    0    0  0.41928581043E+02 -0.13890126133E+02  0.21387465533E+02  0.75924902505E+02  0.57932940769E+02 0.  0.
         13    1    3    3    0    0  0.27715148636E+02 -0.11475528994E+02  0.41483002952E+02  0.51192459675E+02  0.10566000000E+00 0. -1.
         22    1    1    0    0    0 -0.41928581043E+02  0.13890126133E+02 -0.21387465533E+02  0.49075097495E+02  0.00000000000E+00 0. -1.
</event>
<event>
 5    1  0.1766634E-003  0.9118800E+02  0.7818608E-02  0.1130116E+00
         25   -1    0    0    0    0  0.00000000000E+00  0.00000000000E+00  0.99999998245E-14  0.12500000000E+03  0.12500000000E+03 0.  0.
        -13    1    3    3    0    0  0.12080366221E+02 -0.25886678164E+02 -0.23075526659E+02  0.36722560491E+02  0.10566000000E+00 0. -1.
         23    2    1    0    0    0  0.34385932918E+02  0.14737179077E+02 -0.18418599938E+02  0.83300819511E+02  0.72112446067E+02 0.  0.
         13    1    3    3    0    0  0.22305566697E+02  0.40623857240E+02  0.46569267213E+01  0.46578259020E+02  0.10566000000E+00 0.  1.
         22    1    1    0    0    0 -0.34385932918E+02 -0.14737179077E+02  0.18418599938E+02  0.41699180489E+02  0.00000000000E+00 0.  1.
</event>
<event>
 5    1  0.1766634E-003  0.9118800E+02  0.7818608E-02  0.1130116E+00
         25   -1    0    0    0    0  0.00000000000E+00  0.00000000000E+00  0.99999998245E-14  0.12500000000E+03  0.12500000000E+03 0.  0.
        -13    1    3    3    0    0  0.32364964192E+02 -0.34611722040E+02 -0.74843777317E+01  0.47973839577E+02  0.10566000000E+00 0. -1.
         23    2    1    0    0    0 -0.55409306343E+01 -0.17342168431E+02  0.20058787868E+02  0.97911115030E+02  0.94089206381E+02 0.  0.
         13    1    3    3    0    0 -0.37905894826E+02  0.17269553609E+02  0.27543165599E+02  0.49937275453E+02  0.10566000000E+00 0.  1.
         22    1    1    0    0    0  0.55409306343E+01  0.17342168431E+02 -0.20058787868E+02  0.27088884970E+02  0.00000000000E+00 0. -1.
</event>
<event>
 5    1  0.1766634E-003  0.9118800E+02  0.7818608E-02  0.1130116E+00
         25   -1    0    0    0    0  0.00000000000E+00  0.00000000000E+00  0.99999998245E-14  0.12500000000E+03  0.12500000000E+03 0.  0.
        -13    1    3    3    0    0 -0.42364601396E-01 -0.60927305343E+02 -0.45096421348E+00  0.60929080609E+02  0.10566000000E+00 0. -1.
         23    2    1    0    0    0  0.33462115242E+01 -0.33744233165E+02 -0.95102777900E+01  0.89781882686E+02  0.82586140917E+02 0.  0.
         13    1    3    3    0    0  0.33885761256E+01  0.27183072178E+02 -0.90593135765E+01  0.28852802077E+02  0.10566000000E+00 0.  1.
         22    1    1    0    0    0 -0.33462115242E+01  0.33744233165E+02  0.95102777900E+01  0.35218117314E+02  0.00000000000E+00 0. -1.
</event>
<event>
 5    1  0.1766634E-003  0.9118800E+02  0.7818608E-02  0.1130116E+00
         25   -1    0    0    0    0  0.00000000000E+00  0.00000000000E+00  0.99999998245E-14  0.12500000000E+03  0.12500000000E+03 0.  0.
        -13    1    3    3    0    0 -0.38921966355E+01 -0.29109920725E+02 -0.32469907246E+02  0.43781762412E+02  0.10566000000E+00 0.  1.
         23    2    1    0    0    0 -0.25161907362E+02  0.12195028195E+02 -0.13204006089E+02  0.94077741486E+02  0.88850635178E+02 0.  0.
         13    1    3    3    0    0 -0.21269710727E+02  0.41304948920E+02  0.19265901157E+02  0.50295979075E+02  0.10566000000E+00 0. -1.
         22    1    1    0    0    0  0.25161907362E+02 -0.12195028195E+02  0.13204006089E+02  0.30922258514E+02  0.00000000000E+00 0.  1.
</event>
<event>
 5    1  0.1766634E-003  0.9118800E+02  0.7818608E-02  0.1130116E+00
         25   -1    0    0    0    0  0.00000000000E+00  0.00000000000E+00  0.99999998245E-14  0.12500000000E+03  0.12500000000E+03 0.  0.
        -13    1    3    3    0    0 -0.23844175601E+01  0.42611251303E+02 -0.17594691256E+01  0.42714295972E+02  0.10566000000E+00 0.  1.
         23    2    1    0    0    0 -0.26378379106E+02  0.14997769314E+02  0.23031808930E+02  0.86905168445E+02  0.78110768215E+02 0.  0.
         13    1    3    3    0    0 -0.23993961546E+02 -0.27613481989E+02  0.24791278056E+02  0.44190872473E+02  0.10566000000E+00 0. -1.
         22    1    1    0    0    0  0.26378379106E+02 -0.14997769314E+02 -0.23031808930E+02  0.38094831555E+02  0.00000000000E+00 0. -1.
</event>
<event>
 5    1  0.1766634E-003  0.9118800E+02  0.7818608E-02  0.1130116E+00
         25   -1    0    0    0    0  0.00000000000E+00  0.00000000000E+00  0.99999998245E-14  0.12500000000E+03  0.12500000000E+03 0.  0.
        -13    1    3    3    0    0 -0.34365274768E+02  0.38896158304E+02 -0.33291308980E+01  0.52009398355E+02  0.10566000000E+00 0.  1.
         23    2    1    0    0    0 -0.26886480957E+02 -0.11188349588E+01  0.12036694062E+02  0.95520911583E+02  0.90858284685E+02 0.  0.
         13    1    3    3    0    0  0.74787938108E+01 -0.40014993263E+02  0.15365824960E+02  0.43511513228E+02  0.10566000000E+00 0. -1.
         22    1    1    0    0    0  0.26886480957E+02  0.11188349588E+01 -0.12036694062E+02  0.29479088417E+02  0.00000000000E+00 0.  1.
</event>
<event>
 5    1  0.1766634E-003  0.9118800E+02  0.7818608E-02  0.1130116E+00
         25   -1    0    0    0    0  0.00000000000E+00  0.00000000000E+00  0.99999998245E-14  0.12500000000E+03  0.12500000000E+03 0.  0.
        -13    1    3    3    0    0  0.40178232032E+02 -0.22912924731E+02 -0.13097912829E+02  0.48071394129E+02  0.10566000000E+00 0.  1.
         23    2    1    0    0    0  0.19736242094E+02  0.19632705788E+02 -0.10164111904E+02  0.95364353232E+02  0.90642640673E+02 0.  0.
         13    1    3    3    0    0 -0.20441989939E+02  0.42545630519E+02  0.29338009246E+01  0.47292959104E+02  0.10566000000E+00 0. -1.
         22    1    1    0    0    0 -0.19736242094E+02 -0.19632705788E+02  0.10164111904E+02  0.29635646768E+02  0.00000000000E+00 0.  1.
</event>
<event>
 5    1  0.1766634E-003  0.9118800E+02  0.7818608E-02  0.1130116E+00
         25   -1    0    0    0    0  0.00000000000E+00  0.00000000000E+00  0.99999998245E-14  0.12500000000E+03  0.12500000000E+03 0.  0.
        -13    1    3    3    0    0  0.12253949593E+01  0.19210944686E+02 -0.20685003663E+02  0.28256725378E+02  0.10566000000E+00 0.  1.
         23    2    1    0    0    0  0.33821051771E+02 -0.19495517302E+02 -0.24347044799E+02  0.78992203615E+02  0.64210987406E+02 0.  0.
         13    1    3    3    0    0  0.32595656812E+02 -0.38706461988E+02 -0.36620411362E+01  0.50735478237E+02  0.10566000000E+00 0. -1.
         22    1    1    0    0    0 -0.33821051771E+02  0.19495517302E+02  0.24347044799E+02  0.46007796385E+02  0.00000000000E+00 0.  1.
</event>
<event>
 5    1  0.1766634E-003  0.9118800E+02  0.7818608E-02  0.1130116E+00
         25   -1    0    0    0    0  0.00000000000E+00  0.00000000000E+00  0.99999998245E-14  0.12500000000E+03  0.12500000000E+03 0.  0.
        -13    1    3    3    0    0  0.58756612309E+02  0.11405040508E+02 -0.17779739999E+02  0.62438327633E+02  0.10566000000E+00 0.  1.
         23    2    1    0    0    0  0.26249469372E+02  0.57588053019E+01 -0.99042563481E+01  0.96359246263E+02  0.92004410577E+02 0.  0.
         13    1    3    3    0    0 -0.32507142937E+02 -0.56462352064E+01  0.78754836513E+01  0.33920918630E+02  0.10566000000E+00 0. -1.
         22    1    1    0    0    0 -0.26249469372E+02 -0.57588053019E+01  0.99042563481E+01  0.28640753737E+02  0.00000000000E+00 0.  1.
</event>
<event>
 5    1  0.1766634E-003  0.9118800E+02  0.7818608E-02  0.1130116E+00
         25   -1    0    0    0    0  0.00000000000E+00  0.00000000000E+00  0.99999998245E-14  0.12500000000E+03  0.12500000000E+03 0.  0.
        -13    1    3    3    0    0  0.39318313385E+02  0.37151914678E+01 -0.42605556760E+01  0.39722737994E+02  0.10566000000E+00 0. -1.
         23    2    1    0    0    0 -0.14110266628E+02 -0.65955490577E+01 -0.22955498175E+02  0.97259131446E+02  0.93219004830E+02 0.  0.
         13    1    3    3    0    0 -0.53428580013E+02 -0.10310740525E+02 -0.18694942499E+02  0.57536393452E+02  0.10566000000E+00 0.  1.
         22    1    1    0    0    0  0.14110266628E+02  0.65955490577E+01  0.22955498175E+02  0.27740868554E+02  0.00000000000E+00 0.  1.
</event>
<event>
 5    1  0.1766634E-003  0.9118800E+02  0.7818608E-02  0.1130116E+00
         25   -1    0    0    0    0  0.00000000000E+00  0.00000000000E+00  0.99999998245E-14  0.12500000000E+03  0.12500000000E+03 0.  0.
        -13    1    3    3    0    0 -0.78348365405E+01  0.21465609473E+02  0.24038581917E+02  0.33166574112E+02  0.10566000000E+00 0.  1.
         23    2    1    0    0    0  0.85234629489E+01 -0.22050280950E+02 -0.17561212908E+02  0.95550712922E+02  0.90899275192E+02 0.  0.
         13    1    3    3    0    0  0.16358299489E+02 -0.43515890424E+02 -0.41599794825E+02  0.62384138810E+02  0.10566000000E+00 0. -1.
         22    1    1    0    0    0 -0.85234629489E+01  0.22050280950E+02  0.17561212908E+02  0.29449287078E+02  0.00000000000E+00 0. -1.
</event>
<event>
 5    1  0.1766634E-003  0.9118800E+02  0.7818608E-02  0.1130116E+00
         25   -1    0    0    0    0  0.00000000000E+00  0.00000000000E+00  0.99999998245E-14  0.12500000000E+03  0.12500000000E+03 0.  0.
        -13    1    3    3    0    0  0.35262441811E+02 -0.13693450856E+01 -0.14222237533E+01  0.35317825427E+02  0.10566000000E+00 0.  1.
         23    2    1    0    0    0 -0.20908581305E+02  0.18426835449E+02 -0.97914214306E+01  0.95460383034E+02  0.90774973195E+02 0.  0.
         13    1    3    3    0    0 -0.56171023116E+02  0.19796180535E+02 -0.83691976774E+01  0.60142557607E+02  0.10566000000E+00 0. -1.
         22    1    1    0    0    0  0.20908581305E+02 -0.18426835449E+02  0.97914214306E+01  0.29539616966E+02  0.00000000000E+00 0. -1.
</event>
<event>
 5    1  0.1766634E-003  0.9118800E+02  0.7818608E-02  0.1130116E+00
         25   -1    0    0    0    0  0.00000000000E+00  0.00000000000E+00  0.99999998245E-14  0.12500000000E+03  0.12500000000E+03 0.  0.
        -13    1    3    3    0    0 -0.11836914588E+02  0.34791103218E+02 -0.47418742585E+02  0.59992347199E+02  0.10566000000E+00 0.  1.
         23    2    1    0    0    0 -0.17345948134E+02  0.15295245976E+02 -0.18086466890E+02  0.95641070342E+02  0.91023445251E+02 0.  0.
         13    1    3    3    0    0 -0.55090335457E+01 -0.19495857242E+02  0.29332275695E+02  0.35648723143E+02  0.10566000000E+00 0. -1.
         22    1    1    0    0    0  0.17345948134E+02 -0.15295245976E+02  0.18086466890E+02  0.29358929658E+02  0.00000000000E+00 0.  1.
</event>
<event>
 5    1  0.1766634E-003  0.9118800E+02  0.7818608E-02  0.1130116E+00
         25   -1    0    0    0    0  0.00000000000E+00  0.00000000000E+00  0.99999998245E-14  0.12500000000E+03  0.12500000000E+03 0.  0.
        -13    1    3    3    0    0  0.51988991836E+02  0.17808534210E+01  0.31738932258E+02  0.60937654171E+02  0.10566000000E+00 0.  1.
         23    2    1    0    0    0  0.25581361431E+02 -0.82209917925E+01  0.11037033512E+02  0.95951646045E+02  0.91448955769E+02 0.  0.
         13    1    3    3    0    0 -0.26407630404E+02 -0.10001845214E+02 -0.20701898746E+02  0.35013991874E+02  0.10566000000E+00 0. -1.
         22    1    1    0    0    0 -0.25581361431E+02  0.82209917925E+01 -0.11037033512E+02  0.29048353955E+02  0.00000000000E+00 0.  1.
</event>
<event>
 5    1  0.1766634E-003  0.9118800E+02  0.7818608E-02  0.1130116E+00
         25   -1    0    0    0    0  0.00000000000E+00  0.00000000000E+00  0.99999998245E-14  0.12500000000E+03  0.12500000000E+03 0.  0.
        -13    1    3    3    0    0 -0.27746586101E+02  0.25213468119E+02 -0.18521442136E+02  0.41816826729E+02  0.10566000000E+00 0.  1.
         23    2    1    0    0    0 -0.19473933218E+02 -0.23734885811E+02 -0.12608490580E+02  0.91810349292E+02  0.85601327811E+02 0.  0.
         13    1    3    3    0    0  0.82726528825E+01 -0.48948353930E+02  0.59129515555E+01  0.49993522563E+02  0.10566000000E+00 0. -1.
         22    1    1    0    0    0  0.19473933218E+02  0.23734885811E+02  0.12608490580E+02  0.33189650708E+02  0.00000000000E+00 0. -1.
</event>
<event>
 5    1  0.1766634E-003  0.9118800E+02  0.7818608E-02  0.1130116E+00
         25   -1    0    0    0    0  0.00000000000E+00  0.00000000000E+00  0.99999998245E-14  0.12500000000E+03  0.12500000000E+03 0.  0.
        -13    1    3    3    0    0 -0.26302972648E+02  0.26980356665E+02  0.64088035905E+01  0.38221328383E+02  0.10566000000E+00 0.  1.
         23    2    1    0    0    0  0.14735601220E+02  0.37115465127E+00 -0.24735353919E+02  0.96205670131E+02  0.91795520222E+02 0.  0.
         13    1    3    3    0    0  0.41038573868E+02 -0.26609202014E+02 -0.31144157510E+02  0.57984341748E+02  0.10566000000E+00 0. -1.
         22    1    1    0    0    0 -0.14735601220E+02 -0.37115465127E+00  0.24735353919E+02  0.28794329869E+02  0.00000000000E+00 0. -1.
</event>
<event>
 5    1  0.1766634E-003  0.9118800E+02  0.7818608E-02  0.1130116E+00
         25   -1    0    0    0    0  0.00000000000E+00  0.00000000000E+00  0.99999998245E-14  0.12500000000E+03  0.12500000000E+03 0.  0.
        -13    1    3    3    0    0 -0.44079229340E+02 -0.36090454985E+02  0.43130427086E+01  0.57132415507E+02  0.10566000000E+00 0.  1.
         23    2    1    0    0    0 -0.56507479226E+01 -0.26988368396E+02  0.64500362047E+01  0.96682056080E+02  0.92441949461E+02 0.  0.
         13    1    3    3    0    0  0.38428481417E+02  0.91020865884E+01  0.21369934961E+01  0.39549640574E+02  0.10566000000E+00 0. -1.
         22    1    1    0    0    0  0.56507479226E+01  0.26988368396E+02 -0.64500362047E+01  0.28317943920E+02  0.00000000000E+00 0.  1.
</event>
<event>
 4    1  0.1766634E-003  0.9118800E+02  0.7818608E-02  0.1130116E+00
         25   -1    0    0    0    0  0.00000000000E+00  0.00000000000E+00  0.99999998245E-14  0.12500000000E+03  0.12500000000E+03 0.  0.
        -13    1    1    0    0    0  0.14295567973E+01  0.52188862386E+01  0.94681782948E+01  0.10905868625E+02  0.10566000000E+00 0.  1.
         13    1    1    0    0    0 -0.49494710600E+02  0.26079550514E+02  0.93324017540E-01  0.55945412733E+02  0.10566000000E+00 0. -1.
         22    1    1    0    0    0  0.48065153803E+02 -0.31298436753E+02 -0.95615023123E+01  0.58148718642E+02  0.00000000000E+00 0. -1.
</event>
<event>
 5    1  0.1766634E-003  0.9118800E+02  0.7818608E-02  0.1130116E+00
         25   -1    0    0    0    0  0.00000000000E+00  0.00000000000E+00  0.99999998245E-14  0.12500000000E+03  0.12500000000E+03 0.  0.
        -13    1    3    3    0    0 -0.11673738407E+01 -0.48206338334E+02  0.11427374894E+02  0.49556128564E+02  0.10566000000E+00 0. -1.
         23    2    1    0    0    0  0.25043185629E+02 -0.12737032048E+02 -0.46962755273E+01  0.96514071268E+02  0.92214520641E+02 0.  0.
         13    1    3    3    0    0  0.26210559470E+02  0.35469306286E+02 -0.16123650421E+02  0.46957942705E+02  0.10566000000E+00 0.  1.
         22    1    1    0    0    0 -0.25043185629E+02  0.12737032048E+02  0.46962755273E+01  0.28485928732E+02  0.00000000000E+00 0. -1.
</event>
<event>
 5    1  0.1766634E-003  0.9118800E+02  0.7818608E-02  0.1130116E+00
         25   -1    0    0    0    0  0.00000000000E+00  0.00000000000E+00  0.99999998245E-14  0.12500000000E+03  0.12500000000E+03 0.  0.
        -13    1    3    3    0    0 -0.16644183524E+02 -0.34355867784E+02  0.18234300469E+02  0.42306682380E+02  0.10566000000E+00 0.  1.
         23    2    1    0    0    0 -0.23373150515E+02  0.50324328855E+01 -0.17066199798E+02  0.95625100489E+02  0.91001511648E+02 0.  0.
         13    1    3    3    0    0 -0.67289669908E+01  0.39388300670E+02 -0.35300500268E+02  0.53318418108E+02  0.10566000000E+00 0. -1.
         22    1    1    0    0    0  0.23373150515E+02 -0.50324328855E+01  0.17066199798E+02  0.29374899511E+02  0.00000000000E+00 0.  1.
</event>
<event>
 5    1  0.1766634E-003  0.9118800E+02  0.7818608E-02  0.1130116E+00
         25   -1    0    0    0    0  0.00000000000E+00  0.00000000000E+00  0.99999998245E-14  0.12500000000E+03  0.12500000000E+03 0.  0.
        -13    1    3    3    0    0 -0.20027872055E+02 -0.16233842006E+02  0.52850668426E+02  0.58803550934E+02  0.10566000000E+00 0. -1.
         23    2    1    0    0    0 -0.18993227281E+02  0.37006367264E+01  0.20559396205E+02  0.96766577128E+02  0.92556168255E+02 0.  0.
         13    1    3    3    0    0  0.10346447743E+01  0.19934478732E+02 -0.32291272221E+02  0.37963026194E+02  0.10566000000E+00 0.  1.
         22    1    1    0    0    0  0.18993227281E+02 -0.37006367264E+01 -0.20559396205E+02  0.28233422872E+02  0.00000000000E+00 0. -1.
</event>
<event>
 5    1  0.1766634E-003  0.9118800E+02  0.7818608E-02  0.1130116E+00
         25   -1    0    0    0    0  0.00000000000E+00  0.00000000000E+00  0.99999998245E-14  0.12500000000E+03  0.12500000000E+03 0.  0.
        -13    1    3    3    0    0 -0.41505761058E+02  0.16188105156E+02 -0.10966542704E+02  0.45880923840E+02  0.10566000000E+00 0. -1.
         23    2    1    0    0    0  0.76920338680E+01  0.14593937218E+02 -0.23134218014E+02  0.96586228134E+02  0.92312279971E+02 0.  0.
         13    1    3    3    0    0  0.49197794926E+02 -0.15941679389E+01 -0.12167675310E+02  0.50705304293E+02  0.10566000000E+00 0.  1.
         22    1    1    0    0    0 -0.76920338680E+01 -0.14593937218E+02  0.23134218014E+02  0.28413771866E+02  0.00000000000E+00 0.  1.
</event>
<event>
 5    1  0.1766634E-003  0.9118800E+02  0.7818608E-02  0.1130116E+00
         25   -1    0    0    0    0  0.00000000000E+00  0.00000000000E+00  0.99999998245E-14  0.12500000000E+03  0.12500000000E+03 0.  0.
        -13    1    3    3    0    0  0.33116228891E+01  0.32304851167E+02 -0.32581926686E+02  0.46001775679E+02  0.10566000000E+00 0.  1.
         23    2    1    0    0    0  0.16972762932E+02  0.14591273349E+02  0.14640342790E+02  0.98254541012E+02  0.94544356008E+02 0.  0.
         13    1    3    3    0    0  0.13661140043E+02 -0.17713577818E+02  0.47222269476E+02  0.52252765332E+02  0.10566000000E+00 0. -1.
         22    1    1    0    0    0 -0.16972762932E+02 -0.14591273349E+02 -0.14640342790E+02  0.26745458988E+02  0.00000000000E+00 0. -1.
</event>
<event>
 5    1  0.1766634E-003  0.9118800E+02  0.7818608E-02  0.1130116E+00
         25   -1    0    0    0    0  0.00000000000E+00  0.00000000000E+00  0.99999998245E-14  0.12500000000E+03  0.12500000000E+03 0.  0.
        -13    1    3    3    0    0  0.11755225066E+02  0.14356821651E+02 -0.27748602057E+02  0.33381128268E+02  0.10566000000E+00 0. -1.
         23    2    1    0    0    0 -0.97660727263E+00 -0.10803737652E+02  0.27515295922E+02  0.95423556355E+02  0.90724247524E+02 0.  0.
         13    1    3    3    0    0 -0.12731832338E+02 -0.25160559304E+02  0.55263897979E+02  0.62042428087E+02  0.10566000000E+00 0.  1.
         22    1    1    0    0    0  0.97660727263E+00  0.10803737652E+02 -0.27515295922E+02  0.29576443645E+02  0.00000000000E+00 0.  1.
</event>
<event>
 5    1  0.1766634E-003  0.9118800E+02  0.7818608E-02  0.1130116E+00
         25   -1    0    0    0    0  0.00000000000E+00  0.00000000000E+00  0.99999998245E-14  0.12500000000E+03  0.12500000000E+03 0.  0.
        -13    1    3    3    0    0  0.82001579889E+01 -0.13680037693E+02 -0.35635732009E+02  0.39042317839E+02  0.10566000000E+00 0. -1.
         23    2    1    0    0    0 -0.11386349515E+02  0.26957902266E+02 -0.13490865497E+01  0.95704992160E+02  0.91111185043E+02 0.  0.
         13    1    3    3    0    0 -0.19586507504E+02  0.40637939959E+02  0.34286645459E+02  0.56662674321E+02  0.10566000000E+00 0.  1.
         22    1    1    0    0    0  0.11386349515E+02 -0.26957902266E+02  0.13490865497E+01  0.29295007840E+02  0.00000000000E+00 0.  1.
</event>
<event>
 5    1  0.1766634E-003  0.9118800E+02  0.7818608E-02  0.1130116E+00
         25   -1    0    0    0    0  0.00000000000E+00  0.00000000000E+00  0.99999998245E-14  0.12500000000E+03  0.12500000000E+03 0.  0.
        -13    1    3    3    0    0 -0.54434440896E+02 -0.23347697005E+02  0.57214793678E+01  0.59506048443E+02  0.10566000000E+00 0.  1.
         23    2    1    0    0    0 -0.17978324932E+02 -0.18547111207E+02 -0.66935174499E+01  0.98316321893E+02  0.94626003156E+02 0.  0.
         13    1    3    3    0    0  0.36456115965E+02  0.48005857987E+01 -0.12414996818E+02  0.38810273450E+02  0.10566000000E+00 0. -1.
         22    1    1    0    0    0  0.17978324932E+02  0.18547111207E+02  0.66935174499E+01  0.26683678107E+02  0.00000000000E+00 0.  1.
</event>
<event>
 5    1  0.1766634E-003  0.9118800E+02  0.7818608E-02  0.1130116E+00
         25   -1    0    0    0    0  0.00000000000E+00  0.00000000000E+00  0.99999998245E-14  0.12500000000E+03  0.12500000000E+03 0.  0.
        -13    1    3    3    0    0 -0.44722750119E+01  0.55186636633E+02 -0.19961609086E+02  0.58856122094E+02  0.10566000000E+00 0.  1.
         23    2    1    0    0    0 -0.16665132359E+02  0.22542496821E+02 -0.64294612694E+01  0.96238415000E+02  0.91840098813E+02 0.  0.
         13    1    3    3    0    0 -0.12192857348E+02 -0.32644139812E+02  0.13532147816E+02  0.37382292906E+02  0.10566000000E+00 0. -1.
         22    1    1    0    0    0  0.16665132359E+02 -0.22542496821E+02  0.64294612694E+01  0.28761585000E+02  0.00000000000E+00 0.  1.
</event>
<event>
 5    1  0.1766634E-003  0.9118800E+02  0.7818608E-02  0.1130116E+00
         25   -1    0    0    0    0  0.00000000000E+00  0.00000000000E+00  0.99999998245E-14  0.12500000000E+03  0.12500000000E+03 0.  0.
        -13    1    3    3    0    0  0.46247996931E+01  0.31961423255E+02 -0.39980782069E+02  0.51394507951E+02  0.10566000000E+00 0. -1.
         23    2    1    0    0    0 -0.33316841270E+01 -0.10040605308E+02 -0.26891259460E+02  0.96102704116E+02  0.91655201865E+02 0.  0.
         13    1    3    3    0    0 -0.79564838201E+01 -0.42002028563E+02  0.13089522608E+02  0.44708196165E+02  0.10566000000E+00 0.  1.
         22    1    1    0    0    0  0.33316841270E+01  0.10040605308E+02  0.26891259460E+02  0.28897295884E+02  0.00000000000E+00 0. -1.
</event>
<event>
 5    1  0.1766634E-003  0.9118800E+02  0.7818608E-02  0.1130116E+00
         25   -1    0    0    0    0  0.00000000000E+00  0.00000000000E+00  0.99999998245E-14  0.12500000000E+03  0.12500000000E+03 0.  0.
        -13    1    3    3    0    0 -0.23784379213E+02 -0.14091501484E+02 -0.35126546340E+02  0.44700699440E+02  0.10566000000E+00 0. -1.
         23    2    1    0    0    0  0.23063448976E+02 -0.66664186123E+01 -0.17452184750E+02  0.95319323318E+02  0.90580521248E+02 0.  0.
         13    1    3    3    0    0  0.46847828189E+02  0.74250828717E+01  0.17674361590E+02  0.50618623878E+02  0.10566000000E+00 0.  1.
         22    1    1    0    0    0 -0.23063448976E+02  0.66664186123E+01  0.17452184750E+02  0.29680676682E+02  0.00000000000E+00 0.  1.
</event>
<event>
 5    1  0.1766634E-003  0.9118800E+02  0.7818608E-02  0.1130116E+00
         25   -1    0    0    0    0  0.00000000000E+00  0.00000000000E+00  0.99999998245E-14  0.12500000000E+03  0.12500000000E+03 0.  0.
        -13    1    3    3    0    0  0.33377332688E+02  0.26620740772E+01 -0.45850654370E+02  0.56775229158E+02  0.10566000000E+00 0.  1.
         23    2    1    0    0    0  0.15783680483E+02 -0.17394270560E+02 -0.17469609619E+02  0.95727615777E+02  0.91142218231E+02 0.  0.
         13    1    3    3    0    0 -0.17593652205E+02 -0.20056344637E+02  0.28381044751E+02  0.38952386619E+02  0.10566000000E+00 0. -1.
         22    1    1    0    0    0 -0.15783680483E+02  0.17394270560E+02  0.17469609619E+02  0.29272384223E+02  0.00000000000E+00 0.  1.
</event>
<event>
 5    1  0.1766634E-003  0.9118800E+02  0.7818608E-02  0.1130116E+00
         25   -1    0    0    0    0  0.00000000000E+00  0.00000000000E+00  0.99999998245E-14  0.12500000000E+03  0.12500000000E+03 0.  0.
        -13    1    3    3    0    0 -0.53990120089E+02 -0.30274257992E+02 -0.54152071878E+00  0.61901277636E+02  0.10566000000E+00 0.  1.
         23    2    1    0    0    0 -0.21531166442E+02 -0.18450917712E+02  0.22260115448E+01  0.96557380217E+02  0.92273208756E+02 0.  0.
         13    1    3    3    0    0  0.32458953647E+02  0.11823340281E+02  0.27675322636E+01  0.34656102581E+02  0.10566000000E+00 0. -1.
         22    1    1    0    0    0  0.21531166442E+02  0.18450917712E+02 -0.22260115448E+01  0.28442619783E+02  0.00000000000E+00 0.  1.
</event>
<event>
 5    1  0.1766634E-003  0.9118800E+02  0.7818608E-02  0.1130116E+00
         25   -1    0    0    0    0  0.00000000000E+00  0.00000000000E+00  0.99999998245E-14  0.12500000000E+03  0.12500000000E+03 0.  0.
        -13    1    3    3    0    0 -0.25945237799E+01 -0.29559084756E+02  0.12444998552E+02  0.32177013508E+02  0.10566000000E+00 0. -1.
         23    2    1    0    0    0 -0.26448844677E+01  0.26039427639E+02 -0.15684848865E+02  0.94486696515E+02  0.89424124982E+02 0.  0.
         13    1    3    3    0    0 -0.50360687803E-01  0.55598512395E+02 -0.28129847417E+02  0.62309683008E+02  0.10566000000E+00 0.  1.
         22    1    1    0    0    0  0.26448844677E+01 -0.26039427639E+02  0.15684848865E+02  0.30513303485E+02  0.00000000000E+00 0.  1.
</event>
<event>
 5    1  0.1766634E-003  0.9118800E+02  0.7818608E-02  0.1130116E+00
         25   -1    0    0    0    0  0.00000000000E+00  0.00000000000E+00  0.99999998245E-14  0.12500000000E+03  0.12500000000E+03 0.  0.
        -13    1    3    3    0    0 -0.34391236690E+02 -0.69748980275E+01  0.29234328017E+01  0.35213122369E+02  0.10566000000E+00 0.  1.
         23    2    1    0    0    0  0.26257709764E+02 -0.11966690449E+02  0.20096089333E+01  0.96074102772E+02  0.91616186851E+02 0.  0.
         13    1    3    3    0    0  0.60648946454E+02 -0.49917924213E+01 -0.91382386840E+00  0.60860980404E+02  0.10566000000E+00 0. -1.
         22    1    1    0    0    0 -0.26257709764E+02  0.11966690449E+02 -0.20096089333E+01  0.28925897228E+02  0.00000000000E+00 0. -1.
</event>
<event>
 5    1  0.1766634E-003  0.9118800E+02  0.7818608E-02  0.1130116E+00
         25   -1    0    0    0    0  0.00000000000E+00  0.00000000000E+00  0.99999998245E-14  0.12500000000E+03  0.12500000000E+03 0.  0.
        -13    1    3    3    0    0 -0.31350978365E+02  0.30701190281E+01  0.24664863745E+02  0.40008450893E+02  0.10566000000E+00 0.  1.
         23    2    1    0    0    0  0.63496406656E+01 -0.27935534342E+02 -0.31322540326E+01  0.96181203514E+02  0.91762197437E+02 0.  0.
         13    1    3    3    0    0  0.37700619031E+02 -0.31005653371E+02 -0.27797117778E+02  0.56172752621E+02  0.10566000000E+00 0. -1.
         22    1    1    0    0    0 -0.63496406656E+01  0.27935534342E+02  0.31322540326E+01  0.28818796486E+02  0.00000000000E+00 0. -1.
</event>
<event>
 5    1  0.1766634E-003  0.9118800E+02  0.7818608E-02  0.1130116E+00
         25   -1    0    0    0    0  0.00000000000E+00  0.00000000000E+00  0.99999998245E-14  0.12500000000E+03  0.12500000000E+03 0.  0.
        -13    1    3    3    0    0 -0.60732844125E+01  0.36230413204E+02 -0.92704423163E+01  0.37887727423E+02  0.10566000000E+00 0.  1.
         23    2    1    0    0    0 -0.20097529133E+02 -0.19635238981E+02 -0.90300444099E+01  0.95487375767E+02  0.90812135432E+02 0.  0.
         13    1    3    3    0    0 -0.14024244720E+02 -0.55865652186E+02  0.24039790639E+00  0.57599648343E+02  0.10566000000E+00 0. -1.
         22    1    1    0    0    0  0.20097529133E+02  0.19635238981E+02  0.90300444099E+01  0.29512624233E+02  0.00000000000E+00 0. -1.
</event>
<event>
 5    1  0.1766634E-003  0.9118800E+02  0.7818608E-02  0.1130116E+00
         25   -1    0    0    0    0  0.00000000000E+00  0.00000000000E+00  0.99999998245E-14  0.12500000000E+03  0.12500000000E+03 0.  0.
        -13    1    3    3    0    0  0.16893617501E+02 -0.40448241694E+02 -0.37450496023E+02  0.57654187921E+02  0.10566000000E+00 0. -1.
         23    2    1    0    0    0 -0.95705449665E+01 -0.19698417016E+02 -0.18967034679E+02  0.96028093463E+02  0.91553390793E+02 0.  0.
         13    1    3    3    0    0 -0.26464162467E+02  0.20749824678E+02  0.18483461344E+02  0.38373905542E+02  0.10566000000E+00 0.  1.
         22    1    1    0    0    0  0.95705449665E+01  0.19698417016E+02  0.18967034679E+02  0.28971906537E+02  0.00000000000E+00 0. -1.
</event>
<event>
 5    1  0.1766634E-003  0.9118800E+02  0.7818608E-02  0.1130116E+00
         25   -1    0    0    0    0  0.00000000000E+00  0.00000000000E+00  0.99999998245E-14  0.12500000000E+03  0.12500000000E+03 0.  0.
        -13    1    3    3    0    0 -0.12601622746E+02  0.40558630100E+02 -0.23335216970E+02  0.48459745010E+02  0.10566000000E+00 0.  1.
         23    2    1    0    0    0 -0.28622771822E+02  0.60363565566E+01  0.42175321271E+01  0.95445165463E+02  0.90754015701E+02 0.  0.
         13    1    3    3    0    0 -0.16021149076E+02 -0.34522273543E+02  0.27552749097E+02  0.46985420453E+02  0.10566000000E+00 0. -1.
         22    1    1    0    0    0  0.28622771822E+02 -0.60363565566E+01 -0.42175321271E+01  0.29554834537E+02  0.00000000000E+00 0.  1.
</event>
<event>
 5    1  0.1766634E-003  0.9118800E+02  0.7818608E-02  0.1130116E+00
         25   -1    0    0    0    0  0.00000000000E+00  0.00000000000E+00  0.99999998245E-14  0.12500000000E+03  0.12500000000E+03 0.  0.
        -13    1    3    3    0    0  0.12639140749E+02 -0.41452860645E+02  0.40998703548E+02  0.59657291182E+02  0.10566000000E+00 0. -1.
         23    2    1    0    0    0  0.85348558822E+01 -0.27319451913E+02  0.88066388235E+01  0.95054163810E+02  0.90213862308E+02 0.  0.
         13    1    3    3    0    0 -0.41042848665E+01  0.14133408732E+02 -0.32192064724E+02  0.35396872629E+02  0.10566000000E+00 0.  1.
         22    1    1    0    0    0 -0.85348558822E+01  0.27319451913E+02 -0.88066388235E+01  0.29945836190E+02  0.00000000000E+00 0. -1.
</event>
<event>
 5    1  0.1766634E-003  0.9118800E+02  0.7818608E-02  0.1130116E+00
         25   -1    0    0    0    0  0.00000000000E+00  0.00000000000E+00  0.99999998245E-14  0.12500000000E+03  0.12500000000E+03 0.  0.
        -13    1    3    3    0    0 -0.31656907343E+02  0.85857697729E+01 -0.43095814181E+02  0.54158430452E+02  0.10566000000E+00 0.  1.
         23    2    1    0    0    0 -0.77999379288E+00  0.22303479366E+02 -0.19435291244E+02  0.95406349873E+02  0.90700537309E+02 0.  0.
         13    1    3    3    0    0  0.30876913550E+02  0.13717709593E+02  0.23660522937E+02  0.41247919421E+02  0.10566000000E+00 0. -1.
         22    1    1    0    0    0  0.77999379288E+00 -0.22303479366E+02  0.19435291244E+02  0.29593650127E+02  0.00000000000E+00 0.  1.
</event>
<event>
 5    1  0.1766634E-003  0.9118800E+02  0.7818608E-02  0.1130116E+00
         25   -1    0    0    0    0  0.00000000000E+00  0.00000000000E+00  0.99999998245E-14  0.12500000000E+03  0.12500000000E+03 0.  0.
        -13    1    3    3    0    0 -0.48901781552E+02  0.64358551844E+01  0.11524858459E+02  0.50652127275E+02  0.10566000000E+00 0.  1.
         23    2    1    0    0    0 -0.60920657740E+01  0.15049381168E+02  0.23961229424E+02  0.96056301991E+02  0.91591896463E+02 0.  0.
         13    1    3    3    0    0  0.42809715778E+02  0.86135259835E+01  0.12436370965E+02  0.45404174716E+02  0.10566000000E+00 0. -1.
         22    1    1    0    0    0  0.60920657740E+01 -0.15049381168E+02 -0.23961229424E+02  0.28943698009E+02  0.00000000000E+00 0. -1.
</event>
<event>
 5    1  0.1766634E-003  0.9118800E+02  0.7818608E-02  0.1130116E+00
         25   -1    0    0    0    0  0.00000000000E+00  0.00000000000E+00  0.99999998245E-14  0.12500000000E+03  0.12500000000E+03 0.  0.
        -13    1    3    3    0    0 -0.91896312661E+01 -0.28966089116E+02  0.41036691387E+02  0.51063733172E+02  0.10566000000E+00 0.  1.
         23    2    1    0    0    0 -0.27532798792E+02 -0.83944330645E+00  0.22586572422E+02  0.89378195889E+02  0.81972855094E+02 0.  0.
         13    1    3    3    0    0 -0.18343167526E+02  0.28126645810E+02 -0.18450118965E+02  0.38314462716E+02  0.10566000000E+00 0. -1.
         22    1    1    0    0    0  0.27532798792E+02  0.83944330645E+00 -0.22586572422E+02  0.35621804111E+02  0.00000000000E+00 0.  1.
</event>
<event>
 5    1  0.1766634E-003  0.9118800E+02  0.7818608E-02  0.1130116E+00
         25   -1    0    0    0    0  0.00000000000E+00  0.00000000000E+00  0.99999998245E-14  0.12500000000E+03  0.12500000000E+03 0.  0.
        -13    1    3    3    0    0 -0.39318485779E+02  0.23018017577E+02  0.20827682332E+02  0.50095668200E+02  0.10566000000E+00 0. -1.
         23    2    1    0    0    0 -0.24442560573E+02 -0.14748325509E+02 -0.14836812177E+01  0.96414108678E+02  0.92078918160E+02 0.  0.
         13    1    3    3    0    0  0.14875925206E+02 -0.37766343086E+02 -0.22311363550E+02  0.46318440478E+02  0.10566000000E+00 0.  1.
         22    1    1    0    0    0  0.24442560573E+02  0.14748325509E+02  0.14836812177E+01  0.28585891322E+02  0.00000000000E+00 0. -1.
</event>
<event>
 5    1  0.1766634E-003  0.9118800E+02  0.7818608E-02  0.1130116E+00
         25   -1    0    0    0    0  0.00000000000E+00  0.00000000000E+00  0.99999998245E-14  0.12500000000E+03  0.12500000000E+03 0.  0.
        -13    1    3    3    0    0  0.29147219306E+02 -0.31382874396E+02 -0.20650764509E+01  0.42880309041E+02  0.10566000000E+00 0.  1.
         23    2    1    0    0    0  0.19324910024E+02  0.98533880008E+01  0.24005449876E+02  0.92645664491E+02  0.86812534364E+02 0.  0.
         13    1    3    3    0    0 -0.98223092829E+01  0.41236262397E+02  0.26070526326E+02  0.49765355450E+02  0.10566000000E+00 0. -1.
         22    1    1    0    0    0 -0.19324910024E+02 -0.98533880008E+01 -0.24005449876E+02  0.32354335509E+02  0.00000000000E+00 0.  1.
</event>
<event>
 5    1  0.1766634E-003  0.9118800E+02  0.7818608E-02  0.1130116E+00
         25   -1    0    0    0    0  0.00000000000E+00  0.00000000000E+00  0.99999998245E-14  0.12500000000E+03  0.12500000000E+03 0.  0.
        -13    1    3    3    0    0 -0.41300266465E+01 -0.42172665228E+01 -0.42688677479E+02  0.43094974254E+02  0.10566000000E+00 0.  1.
         23    2    1    0    0    0  0.25041919876E+02  0.15373235367E+02 -0.40249398096E+01  0.95341371286E+02  0.90610942063E+02 0.  0.
         13    1    3    3    0    0  0.29171946522E+02  0.19590501890E+02  0.38663737670E+02  0.52246397032E+02  0.10566000000E+00 0. -1.
         22    1    1    0    0    0 -0.25041919876E+02 -0.15373235367E+02  0.40249398096E+01  0.29658628714E+02  0.00000000000E+00 0. -1.
</event>
<event>
 5    1  0.1766634E-003  0.9118800E+02  0.7818608E-02  0.1130116E+00
         25   -1    0    0    0    0  0.00000000000E+00  0.00000000000E+00  0.99999998245E-14  0.12500000000E+03  0.12500000000E+03 0.  0.
        -13    1    3    3    0    0 -0.46396531101E+02  0.48503412034E+01  0.32775021754E+02  0.57012078747E+02  0.10566000000E+00 0. -1.
         23    2    1    0    0    0 -0.74583273496E+01  0.11004859219E+02  0.24249997734E+02  0.97345055354E+02  0.93334151512E+02 0.  0.
         13    1    3    3    0    0  0.38938203752E+02  0.61545180151E+01 -0.85250240197E+01  0.40332976607E+02  0.10566000000E+00 0.  1.
         22    1    1    0    0    0  0.74583273496E+01 -0.11004859219E+02 -0.24249997734E+02  0.27654944646E+02  0.00000000000E+00 0. -1.
</event>
<event>
 5    1  0.1766634E-003  0.9118800E+02  0.7818608E-02  0.1130116E+00
         25   -1    0    0    0    0  0.00000000000E+00  0.00000000000E+00  0.99999998245E-14  0.12500000000E+03  0.12500000000E+03 0.  0.
        -13    1    3    3    0    0 -0.41647702683E+02  0.92431752044E+01  0.16475617143E+02  0.45732095413E+02  0.10566000000E+00 0.  1.
         23    2    1    0    0    0  0.32029249514E+01  0.28534104661E+02  0.60649596147E+01  0.95653150217E+02  0.91040032701E+02 0.  0.
         13    1    3    3    0    0  0.44850627634E+02  0.19290929457E+02 -0.10410657528E+02  0.49921054804E+02  0.10566000000E+00 0. -1.
         22    1    1    0    0    0 -0.32029249514E+01 -0.28534104661E+02 -0.60649596147E+01  0.29346849783E+02  0.00000000000E+00 0.  1.
</event>
<event>
 5    1  0.1766634E-003  0.9118800E+02  0.7818608E-02  0.1130116E+00
         25   -1    0    0    0    0  0.00000000000E+00  0.00000000000E+00  0.99999998245E-14  0.12500000000E+03  0.12500000000E+03 0.  0.
        -13    1    3    3    0    0 -0.55865504682E+01  0.28777809842E+02  0.45684791613E+02  0.54281518348E+02  0.10566000000E+00 0. -1.
         23    2    1    0    0    0  0.63883265759E+01 -0.77334801265E+01  0.25311172917E+02  0.97773672562E+02  0.93906432903E+02 0.  0.
         13    1    3    3    0    0  0.11974877044E+02 -0.36511289968E+02 -0.20373618695E+02  0.43492154214E+02  0.10566000000E+00 0.  1.
         22    1    1    0    0    0 -0.63883265759E+01  0.77334801265E+01 -0.25311172917E+02  0.27226327438E+02  0.00000000000E+00 0. -1.
</event>
<event>
 5    1  0.1766634E-003  0.9118800E+02  0.7818608E-02  0.1130116E+00
         25   -1    0    0    0    0  0.00000000000E+00  0.00000000000E+00  0.99999998245E-14  0.12500000000E+03  0.12500000000E+03 0.  0.
        -13    1    3    3    0    0 -0.29191487867E+02  0.17313238025E+02  0.16608738690E+01  0.33980300776E+02  0.10566000000E+00 0. -1.
         23    2    1    0    0    0  0.27141340390E+02 -0.51415720833E+01 -0.97845443658E+01  0.95694276495E+02  0.91096482500E+02 0.  0.
         13    1    3    3    0    0  0.56332828257E+02 -0.22454810108E+02 -0.11445418235E+02  0.61713975719E+02  0.10566000000E+00 0.  1.
         22    1    1    0    0    0 -0.27141340390E+02  0.51415720833E+01  0.97845443658E+01  0.29305723505E+02  0.00000000000E+00 0.  1.
</event>
<event>
 5    1  0.1766634E-003  0.9118800E+02  0.7818608E-02  0.1130116E+00
         25   -1    0    0    0    0  0.00000000000E+00  0.00000000000E+00  0.99999998245E-14  0.12500000000E+03  0.12500000000E+03 0.  0.
        -13    1    3    3    0    0  0.15502552037E+02  0.14011404462E+02 -0.19482194121E+02  0.28569487684E+02  0.10566000000E+00 0. -1.
         23    2    1    0    0    0  0.10624136294E+02  0.45164296640E+02  0.15891063755E+02  0.75957040564E+02  0.58002242552E+02 0.  0.
         13    1    3    3    0    0 -0.48784157432E+01  0.31152892178E+02  0.35373257876E+02  0.47387552880E+02  0.10566000000E+00 0.  1.
         22    1    1    0    0    0 -0.10624136294E+02 -0.45164296640E+02 -0.15891063755E+02  0.49042959436E+02  0.00000000000E+00 0.  1.
</event>
<event>
 5    1  0.1766634E-003  0.9118800E+02  0.7818608E-02  0.1130116E+00
         25   -1    0    0    0    0  0.00000000000E+00  0.00000000000E+00  0.99999998245E-14  0.12500000000E+03  0.12500000000E+03 0.  0.
        -13    1    3    3    0    0  0.23344727680E+02 -0.43120235652E+01  0.45244513293E+02  0.51094490944E+02  0.10566000000E+00 0.  1.
         23    2    1    0    0    0  0.15507233586E+02  0.23282295188E+02  0.13310297046E+02  0.94020917216E+02  0.88770655647E+02 0.  0.
         13    1    3    3    0    0 -0.78374940937E+01  0.27594318753E+02 -0.31934216247E+02  0.42926426272E+02  0.10566000000E+00 0. -1.
         22    1    1    0    0    0 -0.15507233586E+02 -0.23282295188E+02 -0.13310297046E+02  0.30979082784E+02  0.00000000000E+00 0.  1.
</event>
<event>
 5    1  0.1766634E-003  0.9118800E+02  0.7818608E-02  0.1130116E+00
         25   -1    0    0    0    0  0.00000000000E+00  0.00000000000E+00  0.99999998245E-14  0.12500000000E+03  0.12500000000E+03 0.  0.
        -13    1    3    3    0    0 -0.15258580468E+02 -0.39999528120E+02 -0.12009862575E+02  0.44463856005E+02  0.10566000000E+00 0.  1.
         23    2    1    0    0    0  0.23806905955E+02 -0.19980667760E+02  0.82992352458E+01  0.92830555477E+02  0.87078349027E+02 0.  0.
         13    1    3    3    0    0  0.39065486423E+02  0.20018860360E+02  0.20309097820E+02  0.48366699472E+02  0.10566000000E+00 0. -1.
         22    1    1    0    0    0 -0.23806905955E+02  0.19980667760E+02 -0.82992352458E+01  0.32169444523E+02  0.00000000000E+00 0.  1.
</event>
<event>
 5    1  0.1766634E-003  0.9118800E+02  0.7818608E-02  0.1130116E+00
         25   -1    0    0    0    0  0.00000000000E+00  0.00000000000E+00  0.99999998245E-14  0.12500000000E+03  0.12500000000E+03 0.  0.
        -13    1    3    3    0    0  0.38086576796E+01  0.52472463618E+02 -0.31573608243E+02  0.61357715187E+02  0.10566000000E+00 0. -1.
         23    2    1    0    0    0  0.43981658868E+01  0.29410547274E+02 -0.83042159610E+01  0.94124699890E+02  0.88916674323E+02 0.  0.
         13    1    3    3    0    0  0.58950820724E+00 -0.23061916344E+02  0.23269392282E+02  0.32766984704E+02  0.10566000000E+00 0.  1.
         22    1    1    0    0    0 -0.43981658868E+01 -0.29410547274E+02  0.83042159610E+01  0.30875300110E+02  0.00000000000E+00 0. -1.
</event>
<event>
 5    1  0.1766634E-003  0.9118800E+02  0.7818608E-02  0.1130116E+00
         25   -1    0    0    0    0  0.00000000000E+00  0.00000000000E+00  0.99999998245E-14  0.12500000000E+03  0.12500000000E+03 0.  0.
        -13    1    3    3    0    0 -0.12665344071E+02  0.17457211765E+02 -0.29308443175E+02  0.36389025659E+02  0.10566000000E+00 0. -1.
         23    2    1    0    0    0  0.24769043473E+02 -0.44330799400E+01  0.12742900414E+02  0.96794695122E+02  0.92594134698E+02 0.  0.
         13    1    3    3    0    0  0.37434387543E+02 -0.21890291705E+02  0.42051343589E+02  0.60405669463E+02  0.10566000000E+00 0.  1.
         22    1    1    0    0    0 -0.24769043473E+02  0.44330799400E+01 -0.12742900414E+02  0.28205304878E+02  0.00000000000E+00 0.  1.
</event>
<event>
 5    1  0.1766634E-003  0.9118800E+02  0.7818608E-02  0.1130116E+00
         25   -1    0    0    0    0  0.00000000000E+00  0.00000000000E+00  0.99999998245E-14  0.12500000000E+03  0.12500000000E+03 0.  0.
        -13    1    3    3    0    0 -0.17646847201E+02 -0.28261834346E+02  0.35461534105E+02  0.48658751133E+02  0.10566000000E+00 0. -1.
         23    2    1    0    0    0  0.13240994574E+01 -0.29694477234E+02 -0.63589518105E+01  0.94603429705E+02  0.89587149894E+02 0.  0.
         13    1    3    3    0    0  0.18970946658E+02 -0.14326428880E+01 -0.41820485915E+02  0.45944678571E+02  0.10566000000E+00 0.  1.
         22    1    1    0    0    0 -0.13240994574E+01  0.29694477234E+02  0.63589518105E+01  0.30396570295E+02  0.00000000000E+00 0. -1.
</event>
<event>
 5    1  0.1766634E-003  0.9118800E+02  0.7818608E-02  0.1130116E+00
         25   -1    0    0    0    0  0.00000000000E+00  0.00000000000E+00  0.99999998245E-14  0.12500000000E+03  0.12500000000E+03 0.  0.
        -13    1    3    3    0    0 -0.25688901667E+02 -0.20328100542E+02  0.17786649297E+02  0.37276365136E+02  0.10566000000E+00 0.  1.
         23    2    1    0    0    0  0.23915283734E+02  0.96501140523E+01  0.14695350970E+02  0.95318038517E+02  0.90578748221E+02 0.  0.
         13    1    3    3    0    0  0.49604185401E+02  0.29978214594E+02 -0.30912983271E+01  0.58041673382E+02  0.10566000000E+00 0. -1.
         22    1    1    0    0    0 -0.23915283734E+02 -0.96501140523E+01 -0.14695350970E+02  0.29681961483E+02  0.00000000000E+00 0. -1.
</event>
<event>
 5    1  0.1766634E-003  0.9118800E+02  0.7818608E-02  0.1130116E+00
         25   -1    0    0    0    0  0.00000000000E+00  0.00000000000E+00  0.99999998245E-14  0.12500000000E+03  0.12500000000E+03 0.  0.
        -13    1    3    3    0    0 -0.58526389466E+02 -0.43401725521E+00 -0.11055221547E+02  0.59563039902E+02  0.10566000000E+00 0. -1.
         23    2    1    0    0    0 -0.23751162502E+02 -0.57502804011E+00 -0.18208473640E+02  0.95066792859E+02  0.90231359375E+02 0.  0.
         13    1    3    3    0    0  0.34775226964E+02 -0.14101078491E+00 -0.71532520933E+01  0.35503752956E+02  0.10566000000E+00 0.  1.
         22    1    1    0    0    0  0.23751162502E+02  0.57502804011E+00  0.18208473640E+02  0.29933207141E+02  0.00000000000E+00 0. -1.
</event>
<event>
 5    1  0.1766634E-003  0.9118800E+02  0.7818608E-02  0.1130116E+00
         25   -1    0    0    0    0  0.00000000000E+00  0.00000000000E+00  0.99999998245E-14  0.12500000000E+03  0.12500000000E+03 0.  0.
        -13    1    3    3    0    0 -0.43864535241E+02  0.18990312540E+02  0.27726102604E+02  0.55258278583E+02  0.10566000000E+00 0.  1.
         23    2    1    0    0    0 -0.26389296738E+02 -0.19910806951E+01 -0.51957322790E+01  0.98030479823E+02  0.94247652256E+02 0.  0.
         13    1    3    3    0    0  0.17475238503E+02 -0.20981393235E+02 -0.32921834883E+02  0.42772201240E+02  0.10566000000E+00 0. -1.
         22    1    1    0    0    0  0.26389296738E+02  0.19910806951E+01  0.51957322790E+01  0.26969520177E+02  0.00000000000E+00 0.  1.
</event>
<event>
 5    1  0.1766634E-003  0.9118800E+02  0.7818608E-02  0.1130116E+00
         25   -1    0    0    0    0  0.00000000000E+00  0.00000000000E+00  0.99999998245E-14  0.12500000000E+03  0.12500000000E+03 0.  0.
        -13    1    3    3    0    0 -0.19899525289E+02 -0.25619885685E+02 -0.10647238472E+02  0.34143000752E+02  0.10566000000E+00 0.  1.
         23    2    1    0    0    0  0.13440355765E+02  0.91704238174E+01  0.25756474236E+02  0.94534678712E+02  0.89491170951E+02 0.  0.
         13    1    3    3    0    0  0.33339881054E+02  0.34790309502E+02  0.36403712708E+02  0.60391677961E+02  0.10566000000E+00 0. -1.
         22    1    1    0    0    0 -0.13440355765E+02 -0.91704238174E+01 -0.25756474236E+02  0.30465321288E+02  0.00000000000E+00 0. -1.
</event>
<event>
 5    1  0.1766634E-003  0.9118800E+02  0.7818608E-02  0.1130116E+00
         25   -1    0    0    0    0  0.00000000000E+00  0.00000000000E+00  0.99999998245E-14  0.12500000000E+03  0.12500000000E+03 0.  0.
        -13    1    3    3    0    0 -0.40401184158E+02 -0.45310099448E+01 -0.36731601464E+02  0.54790578046E+02  0.10566000000E+00 0. -1.
         23    2    1    0    0    0 -0.42443616535E+02  0.56435349584E+01 -0.13713045716E+02  0.80040488279E+02  0.66220254225E+02 0.  0.
         13    1    3    3    0    0 -0.20424323770E+01  0.10174544903E+02  0.23018555748E+02  0.25249910232E+02  0.10566000000E+00 0.  1.
         22    1    1    0    0    0  0.42443616535E+02 -0.56435349584E+01  0.13713045716E+02  0.44959511721E+02  0.00000000000E+00 0. -1.
</event>
<event>
 5    1  0.1766634E-003  0.9118800E+02  0.7818608E-02  0.1130116E+00
         25   -1    0    0    0    0  0.00000000000E+00  0.00000000000E+00  0.99999998245E-14  0.12500000000E+03  0.12500000000E+03 0.  0.
        -13    1    3    3    0    0  0.31387943322E+02  0.11455545523E+02 -0.49458875379E+01  0.33777292324E+02  0.10566000000E+00 0.  1.
         23    2    1    0    0    0 -0.25336953887E+02 -0.13934215662E+02 -0.25619027158E+01  0.95970929331E+02  0.91475309962E+02 0.  0.
         13    1    3    3    0    0 -0.56724897209E+02 -0.25389761184E+02  0.23839848221E+01  0.62193637006E+02  0.10566000000E+00 0. -1.
         22    1    1    0    0    0  0.25336953887E+02  0.13934215662E+02  0.25619027158E+01  0.29029070669E+02  0.00000000000E+00 0. -1.
</event>
<event>
 5    1  0.1766634E-003  0.9118800E+02  0.7818608E-02  0.1130116E+00
         25   -1    0    0    0    0  0.00000000000E+00  0.00000000000E+00  0.99999998245E-14  0.12500000000E+03  0.12500000000E+03 0.  0.
        -13    1    3    3    0    0  0.76469771932E+01  0.34452839195E+02 -0.20316609142E+01  0.35349868443E+02  0.10566000000E+00 0. -1.
         23    2    1    0    0    0 -0.25702309803E+02 -0.13073831005E+02 -0.11075094746E+02  0.94110009550E+02  0.88896020089E+02 0.  0.
         13    1    3    3    0    0 -0.33349286996E+02 -0.47526670201E+02 -0.90434338315E+01  0.58760141108E+02  0.10566000000E+00 0.  1.
         22    1    1    0    0    0  0.25702309803E+02  0.13073831005E+02  0.11075094746E+02  0.30889990450E+02  0.00000000000E+00 0.  1.
</event>
<event>
 5    1  0.1766634E-003  0.9118800E+02  0.7818608E-02  0.1130116E+00
         25   -1    0    0    0    0  0.00000000000E+00  0.00000000000E+00  0.99999998245E-14  0.12500000000E+03  0.12500000000E+03 0.  0.
        -13    1    3    3    0    0  0.20140154231E+02  0.72545257117E+01  0.33235867360E+02  0.39533378290E+02  0.10566000000E+00 0.  1.
         23    2    1    0    0    0 -0.26724813620E+02  0.99557854619E+01  0.10289518073E+01  0.96462444586E+02  0.92144512298E+02 0.  0.
         13    1    3    3    0    0 -0.46864967851E+02  0.27012597502E+01 -0.32206915553E+02  0.56929066296E+02  0.10566000000E+00 0. -1.
         22    1    1    0    0    0  0.26724813620E+02 -0.99557854619E+01 -0.10289518073E+01  0.28537555414E+02  0.00000000000E+00 0. -1.
</event>
<event>
 5    1  0.1766634E-003  0.9118800E+02  0.7818608E-02  0.1130116E+00
         25   -1    0    0    0    0  0.00000000000E+00  0.00000000000E+00  0.99999998245E-14  0.12500000000E+03  0.12500000000E+03 0.  0.
        -13    1    3    3    0    0 -0.14901499707E+02  0.23032812148E+02 -0.13834582412E+02  0.30724126733E+02  0.10566000000E+00 0. -1.
         23    2    1    0    0    0  0.70619499604E+01 -0.28113181253E+02  0.13830920153E+02  0.92882770205E+02  0.87153270457E+02 0.  0.
         13    1    3    3    0    0  0.21963449667E+02 -0.51145993400E+02  0.27665502565E+02  0.62158643473E+02  0.10566000000E+00 0.  1.
         22    1    1    0    0    0 -0.70619499604E+01  0.28113181253E+02 -0.13830920153E+02  0.32117229795E+02  0.00000000000E+00 0.  1.
</event>
<event>
 5    1  0.1766634E-003  0.9118800E+02  0.7818608E-02  0.1130116E+00
         25   -1    0    0    0    0  0.00000000000E+00  0.00000000000E+00  0.99999998245E-14  0.12500000000E+03  0.12500000000E+03 0.  0.
        -13    1    3    3    0    0 -0.42885509626E+02 -0.15590259336E+02 -0.76801078692E+01  0.46273300541E+02  0.10566000000E+00 0. -1.
         23    2    1    0    0    0  0.30315119129E+01 -0.19316552477E-02 -0.26528613272E+02  0.98298738038E+02  0.94602772209E+02 0.  0.
         13    1    3    3    0    0  0.45917021539E+02  0.15588327680E+02 -0.18848505403E+02  0.52025437498E+02  0.10566000000E+00 0.  1.
         22    1    1    0    0    0 -0.30315119129E+01  0.19316552477E-02  0.26528613272E+02  0.26701261962E+02  0.00000000000E+00 0. -1.
</event>
<event>
 5    1  0.1766634E-003  0.9118800E+02  0.7818608E-02  0.1130116E+00
         25   -1    0    0    0    0  0.00000000000E+00  0.00000000000E+00  0.99999998245E-14  0.12500000000E+03  0.12500000000E+03 0.  0.
        -13    1    3    3    0    0 -0.86625839931E+01 -0.49393568658E+02 -0.30792617135E+02  0.58846932123E+02  0.10566000000E+00 0.  1.
         23    2    1    0    0    0  0.81670563825E+01 -0.27309168501E+02 -0.64450957034E+01  0.95776195443E+02  0.91208820082E+02 0.  0.
         13    1    3    3    0    0  0.16829640376E+02  0.22084400157E+02  0.24347521431E+02  0.36929263320E+02  0.10566000000E+00 0. -1.
         22    1    1    0    0    0 -0.81670563825E+01  0.27309168501E+02  0.64450957034E+01  0.29223804557E+02  0.00000000000E+00 0.  1.
</event>
<event>
 5    1  0.1766634E-003  0.9118800E+02  0.7818608E-02  0.1130116E+00
         25   -1    0    0    0    0  0.00000000000E+00  0.00000000000E+00  0.99999998245E-14  0.12500000000E+03  0.12500000000E+03 0.  0.
        -13    1    3    3    0    0 -0.21709490373E+02  0.34765036614E+02  0.26718970377E+02  0.48926723629E+02  0.10566000000E+00 0. -1.
         23    2    1    0    0    0 -0.96451075510E+01 -0.11486360363E+02  0.23867721910E+02  0.96810769375E+02  0.92615832036E+02 0.  0.
         13    1    3    3    0    0  0.12064382822E+02 -0.46251396977E+02 -0.28512484669E+01  0.47884045746E+02  0.10566000000E+00 0.  1.
         22    1    1    0    0    0  0.96451075510E+01  0.11486360363E+02 -0.23867721910E+02  0.28189230625E+02  0.00000000000E+00 0.  1.
</event>
<event>
 5    1  0.1766634E-003  0.9118800E+02  0.7818608E-02  0.1130116E+00
         25   -1    0    0    0    0  0.00000000000E+00  0.00000000000E+00  0.99999998245E-14  0.12500000000E+03  0.12500000000E+03 0.  0.
        -13    1    3    3    0    0  0.15657996793E+02 -0.20475636851E+02  0.20961062672E+02  0.33223513969E+02  0.10566000000E+00 0. -1.
         23    2    1    0    0    0 -0.69288065906E+01  0.16574566106E+02 -0.23546475854E+02  0.95383093890E+02  0.90668481141E+02 0.  0.
         13    1    3    3    0    0 -0.22586803384E+02  0.37050202957E+02 -0.44507538527E+02  0.62159579921E+02  0.10566000000E+00 0.  1.
         22    1    1    0    0    0  0.69288065906E+01 -0.16574566106E+02  0.23546475854E+02  0.29616906110E+02  0.00000000000E+00 0.  1.
</event>
<event>
 5    1  0.1766634E-003  0.9118800E+02  0.7818608E-02  0.1130116E+00
         25   -1    0    0    0    0  0.00000000000E+00  0.00000000000E+00  0.99999998245E-14  0.12500000000E+03  0.12500000000E+03 0.  0.
        -13    1    3    3    0    0  0.42696802028E+01  0.35622970743E+02  0.25679460365E+02  0.44121106766E+02  0.10566000000E+00 0. -1.
         23    2    1    0    0    0 -0.13945031668E+02  0.18721344733E+02 -0.18770645089E+02  0.95045204492E+02  0.90201447456E+02 0.  0.
         13    1    3    3    0    0 -0.18214711871E+02 -0.16901626010E+02 -0.44450105454E+02  0.50924097726E+02  0.10566000000E+00 0.  1.
         22    1    1    0    0    0  0.13945031668E+02 -0.18721344733E+02  0.18770645089E+02  0.29954795508E+02  0.00000000000E+00 0.  1.
</event>
<event>
 5    1  0.1766634E-003  0.9118800E+02  0.7818608E-02  0.1130116E+00
         25   -1    0    0    0    0  0.00000000000E+00  0.00000000000E+00  0.99999998245E-14  0.12500000000E+03  0.12500000000E+03 0.  0.
        -13    1    3    3    0    0 -0.20243588093E+02  0.36134963503E+02 -0.29674882677E+02  0.50952411839E+02  0.10566000000E+00 0. -1.
         23    2    1    0    0    0 -0.25343268002E+02 -0.54602363832E+01 -0.10732633687E+02  0.96941403452E+02  0.92791976286E+02 0.  0.
         13    1    3    3    0    0 -0.50996799086E+01 -0.41595199887E+02  0.18942248990E+02  0.45988991613E+02  0.10566000000E+00 0.  1.
         22    1    1    0    0    0  0.25343268002E+02  0.54602363832E+01  0.10732633687E+02  0.28058596548E+02  0.00000000000E+00 0.  1.
</event>
<event>
 5    1  0.1766634E-003  0.9118800E+02  0.7818608E-02  0.1130116E+00
         25   -1    0    0    0    0  0.00000000000E+00  0.00000000000E+00  0.99999998245E-14  0.12500000000E+03  0.12500000000E+03 0.  0.
        -13    1    3    3    0    0  0.66263740877E+01  0.16265408127E+02  0.34922175802E+02  0.39090176027E+02  0.10566000000E+00 0.  1.
         23    2    1    0    0    0  0.10817070608E+02 -0.27212083185E+02 -0.10838960155E+01  0.95696735363E+02  0.91099856426E+02 0.  0.
         13    1    3    3    0    0  0.41906965199E+01 -0.43477491312E+02 -0.36006071817E+02  0.56606559336E+02  0.10566000000E+00 0. -1.
         22    1    1    0    0    0 -0.10817070608E+02  0.27212083185E+02  0.10838960155E+01  0.29303264637E+02  0.00000000000E+00 0. -1.
</event>
<event>
 5    1  0.1766634E-003  0.9118800E+02  0.7818608E-02  0.1130116E+00
         25   -1    0    0    0    0  0.00000000000E+00  0.00000000000E+00  0.99999998245E-14  0.12500000000E+03  0.12500000000E+03 0.  0.
        -13    1    3    3    0    0 -0.20849405284E+02 -0.26227069999E+02  0.43035941678E+02  0.54540446841E+02  0.10566000000E+00 0.  1.
         23    2    1    0    0    0 -0.24573710890E+02 -0.15380564733E+02  0.33894568825E+01  0.95812374945E+02  0.91258389950E+02 0.  0.
         13    1    3    3    0    0 -0.37243056063E+01  0.10846505267E+02 -0.39646484796E+02  0.41271928104E+02  0.10566000000E+00 0. -1.
         22    1    1    0    0    0  0.24573710890E+02  0.15380564733E+02 -0.33894568825E+01  0.29187625055E+02  0.00000000000E+00 0.  1.
</event>
<event>
 5    1  0.1766634E-003  0.9118800E+02  0.7818608E-02  0.1130116E+00
         25   -1    0    0    0    0  0.00000000000E+00  0.00000000000E+00  0.99999998245E-14  0.12500000000E+03  0.12500000000E+03 0.  0.
        -13    1    3    3    0    0 -0.21735139787E+02 -0.12015157647E+02  0.26031880460E+02  0.35978469661E+02  0.10566000000E+00 0.  1.
         23    2    1    0    0    0  0.28155706606E+02 -0.20454599513E+01 -0.60538694011E+01  0.96128265456E+02  0.91690055971E+02 0.  0.
         13    1    3    3    0    0  0.49890846392E+02  0.99696976958E+01 -0.32085749862E+02  0.60149795794E+02  0.10566000000E+00 0. -1.
         22    1    1    0    0    0 -0.28155706606E+02  0.20454599513E+01  0.60538694011E+01  0.28871734544E+02  0.00000000000E+00 0. -1.
</event>
<event>
 5    1  0.1766634E-003  0.9118800E+02  0.7818608E-02  0.1130116E+00
         25   -1    0    0    0    0  0.00000000000E+00  0.00000000000E+00  0.99999998245E-14  0.12500000000E+03  0.12500000000E+03 0.  0.
        -13    1    3    3    0    0  0.18769699309E+02 -0.23078464029E+02  0.26604265065E+02  0.39908836086E+02  0.10566000000E+00 0.  1.
         23    2    1    0    0    0  0.20712945366E+02  0.18549145086E+02 -0.10076595382E+02  0.95425777041E+02  0.90727307136E+02 0.  0.
         13    1    3    3    0    0  0.19432460571E+01  0.41627609115E+02 -0.36680860446E+02  0.55516940955E+02  0.10566000000E+00 0. -1.
         22    1    1    0    0    0 -0.20712945366E+02 -0.18549145086E+02  0.10076595382E+02  0.29574222959E+02  0.00000000000E+00 0.  1.
</event>
<event>
 5    1  0.1766634E-003  0.9118800E+02  0.7818608E-02  0.1130116E+00
         25   -1    0    0    0    0  0.00000000000E+00  0.00000000000E+00  0.99999998245E-14  0.12500000000E+03  0.12500000000E+03 0.  0.
        -13    1    3    3    0    0 -0.22338574937E+02  0.26622948213E+02  0.17737920391E+01  0.34798718424E+02  0.10566000000E+00 0. -1.
         23    2    1    0    0    0  0.12382130138E+02 -0.20002206391E+02 -0.17098104928E+02  0.95918208457E+02  0.91403239079E+02 0.  0.
         13    1    3    3    0    0  0.34720705074E+02 -0.46625154604E+02 -0.18871896967E+02  0.61119490032E+02  0.10566000000E+00 0.  1.
         22    1    1    0    0    0 -0.12382130138E+02  0.20002206391E+02  0.17098104928E+02  0.29081791543E+02  0.00000000000E+00 0.  1.
</event>
<event>
 5    1  0.1766634E-003  0.9118800E+02  0.7818608E-02  0.1130116E+00
         25   -1    0    0    0    0  0.00000000000E+00  0.00000000000E+00  0.99999998245E-14  0.12500000000E+03  0.12500000000E+03 0.  0.
        -13    1    3    3    0    0 -0.15347110447E+02 -0.27274203251E+02  0.36547353499E+02  0.48115861977E+02  0.10566000000E+00 0.  1.
         23    2    1    0    0    0  0.10799277472E+01  0.16539005440E+02  0.22661194994E+02  0.96924482135E+02  0.92769178792E+02 0.  0.
         13    1    3    3    0    0  0.16427038194E+02  0.43813208690E+02 -0.13886158505E+02  0.48808620157E+02  0.10566000000E+00 0. -1.
         22    1    1    0    0    0 -0.10799277472E+01 -0.16539005440E+02 -0.22661194994E+02  0.28075517865E+02  0.00000000000E+00 0. -1.
</event>
<event>
 5    1  0.1766634E-003  0.9118800E+02  0.7818608E-02  0.1130116E+00
         25   -1    0    0    0    0  0.00000000000E+00  0.00000000000E+00  0.99999998245E-14  0.12500000000E+03  0.12500000000E+03 0.  0.
        -13    1    3    3    0    0 -0.23879489779E+02 -0.44352625414E+02 -0.32248505509E+02  0.59811058215E+02  0.10566000000E+00 0. -1.
         23    2    1    0    0    0 -0.21666685856E+02 -0.18942332952E+02 -0.77083567558E+01  0.95206107714E+02  0.90424150140E+02 0.  0.
         13    1    3    3    0    0  0.22128039236E+01  0.25410292462E+02  0.24540148753E+02  0.35395049499E+02  0.10566000000E+00 0.  1.
         22    1    1    0    0    0  0.21666685856E+02  0.18942332952E+02  0.77083567558E+01  0.29793892286E+02  0.00000000000E+00 0. -1.
</event>
<event>
 5    1  0.1766634E-003  0.9118800E+02  0.7818608E-02  0.1130116E+00
         25   -1    0    0    0    0  0.00000000000E+00  0.00000000000E+00  0.99999998245E-14  0.12500000000E+03  0.12500000000E+03 0.  0.
        -13    1    3    3    0    0  0.35630592976E+02 -0.91358969436E+01  0.11296245330E+02  0.38478826534E+02  0.10566000000E+00 0. -1.
         23    2    1    0    0    0 -0.20638303301E+02 -0.28698407393E+01  0.20419327726E+02  0.95825961990E+02  0.91276998732E+02 0.  0.
         13    1    3    3    0    0 -0.56268896278E+02  0.62660562044E+01  0.91230823955E+01  0.57347135457E+02  0.10566000000E+00 0.  1.
         22    1    1    0    0    0  0.20638303301E+02  0.28698407393E+01 -0.20419327726E+02  0.29174038010E+02  0.00000000000E+00 0.  1.
</event>
<event>
 5    1  0.1766634E-003  0.9118800E+02  0.7818608E-02  0.1130116E+00
         25   -1    0    0    0    0  0.00000000000E+00  0.00000000000E+00  0.99999998245E-14  0.12500000000E+03  0.12500000000E+03 0.  0.
        -13    1    3    3    0    0 -0.23661984419E+02  0.29687121368E+02  0.42066404132E+02  0.56663993880E+02  0.10566000000E+00 0.  1.
         23    2    1    0    0    0 -0.62650206144E+01  0.28542347396E+02  0.83710690441E+01  0.94602781786E+02  0.89586245856E+02 0.  0.
         13    1    3    3    0    0  0.17396963805E+02 -0.11447739717E+01 -0.33695335088E+02  0.37938787906E+02  0.10566000000E+00 0. -1.
         22    1    1    0    0    0  0.62650206144E+01 -0.28542347396E+02 -0.83710690441E+01  0.30397218214E+02  0.00000000000E+00 0.  1.
</event>
<event>
 5    1  0.1766634E-003  0.9118800E+02  0.7818608E-02  0.1130116E+00
         25   -1    0    0    0    0  0.00000000000E+00  0.00000000000E+00  0.99999998245E-14  0.12500000000E+03  0.12500000000E+03 0.  0.
        -13    1    3    3    0    0  0.21676958135E+02 -0.45215896578E+02  0.25756129462E+02  0.56371599110E+02  0.10566000000E+00 0. -1.
         23    2    1    0    0    0 -0.85925636015E+01 -0.18949955005E+02  0.18618325972E+02  0.97079129563E+02  0.92977321917E+02 0.  0.
         13    1    3    3    0    0 -0.30269521737E+02  0.26265941573E+02 -0.71378034905E+01  0.40707530453E+02  0.10566000000E+00 0.  1.
         22    1    1    0    0    0  0.85925636015E+01  0.18949955005E+02 -0.18618325972E+02  0.27920870437E+02  0.00000000000E+00 0. -1.
</event>
<event>
 5    1  0.1766634E-003  0.9118800E+02  0.7818608E-02  0.1130116E+00
         25   -1    0    0    0    0  0.00000000000E+00  0.00000000000E+00  0.99999998245E-14  0.12500000000E+03  0.12500000000E+03 0.  0.
        -13    1    3    3    0    0  0.29232844293E+02  0.17529601993E+02 -0.30210255966E+02  0.45546864448E+02  0.10566000000E+00 0.  1.
         23    2    1    0    0    0  0.75561356812E+01 -0.24798150770E+02 -0.11156603882E+02  0.96777433175E+02  0.92570828524E+02 0.  0.
         13    1    3    3    0    0 -0.21676708612E+02 -0.42327752763E+02  0.19053652084E+02  0.51230568726E+02  0.10566000000E+00 0. -1.
         22    1    1    0    0    0 -0.75561356812E+01  0.24798150770E+02  0.11156603882E+02  0.28222566825E+02  0.00000000000E+00 0.  1.
</event>
<event>
 5    1  0.1766634E-003  0.9118800E+02  0.7818608E-02  0.1130116E+00
         25   -1    0    0    0    0  0.00000000000E+00  0.00000000000E+00  0.99999998245E-14  0.12500000000E+03  0.12500000000E+03 0.  0.
        -13    1    3    3    0    0 -0.27903501159E+02 -0.93693773686E+01  0.28070863812E+02  0.40674010971E+02  0.10566000000E+00 0.  1.
         23    2    1    0    0    0 -0.35862078530E+01  0.28938037645E+02 -0.30298675217E+01  0.95683605155E+02  0.91081838413E+02 0.  0.
         13    1    3    3    0    0  0.24317293306E+02  0.38307415014E+02 -0.31100731334E+02  0.55009594184E+02  0.10566000000E+00 0. -1.
         22    1    1    0    0    0  0.35862078530E+01 -0.28938037645E+02  0.30298675217E+01  0.29316394845E+02  0.00000000000E+00 0. -1.
</event>
<event>
 5    1  0.1766634E-003  0.9118800E+02  0.7818608E-02  0.1130116E+00
         25   -1    0    0    0    0  0.00000000000E+00  0.00000000000E+00  0.99999998245E-14  0.12500000000E+03  0.12500000000E+03 0.  0.
        -13    1    3    3    0    0  0.27173552751E+02  0.96249985244E+01 -0.52824606620E+02  0.60178840088E+02  0.10566000000E+00 0.  1.
         23    2    1    0    0    0  0.14015087428E+01  0.77216152138E+01 -0.27655415226E+02  0.96252659956E+02  0.91859485025E+02 0.  0.
         13    1    3    3    0    0 -0.25772044008E+02 -0.19033833106E+01  0.25169191394E+02  0.36073819868E+02  0.10566000000E+00 0. -1.
         22    1    1    0    0    0 -0.14015087428E+01 -0.77216152138E+01  0.27655415226E+02  0.28747340044E+02  0.00000000000E+00 0.  1.
</event>
<event>
 5    1  0.1766634E-003  0.9118800E+02  0.7818608E-02  0.1130116E+00
         25   -1    0    0    0    0  0.00000000000E+00  0.00000000000E+00  0.99999998245E-14  0.12500000000E+03  0.12500000000E+03 0.  0.
        -13    1    3    3    0    0 -0.11515917429E+02 -0.26029553743E+02 -0.35975091536E+02  0.45873438909E+02  0.10566000000E+00 0. -1.
         23    2    1    0    0    0  0.79780001510E+01 -0.26811249714E+02  0.95811951543E+01  0.95431589522E+02  0.90735314958E+02 0.  0.
         13    1    3    3    0    0  0.19493917580E+02 -0.78169597100E+00  0.45556286690E+02  0.49558150613E+02  0.10566000000E+00 0.  1.
         22    1    1    0    0    0 -0.79780001510E+01  0.26811249714E+02 -0.95811951543E+01  0.29568410478E+02  0.00000000000E+00 0.  1.
</event>
<event>
 5    1  0.1766634E-003  0.9118800E+02  0.7818608E-02  0.1130116E+00
         25   -1    0    0    0    0  0.00000000000E+00  0.00000000000E+00  0.99999998245E-14  0.12500000000E+03  0.12500000000E+03 0.  0.
        -13    1    3    3    0    0 -0.10026181422E+02 -0.35534900655E+02 -0.23213596530E+01  0.36995315287E+02  0.10566000000E+00 0.  1.
         23    2    1    0    0    0 -0.11700328130E+02  0.21721857792E+02 -0.15618025756E+02  0.95799665879E+02  0.91240980210E+02 0.  0.
         13    1    3    3    0    0 -0.16741467079E+01  0.57256758447E+02 -0.13296666103E+02  0.58804350592E+02  0.10566000000E+00 0. -1.
         22    1    1    0    0    0  0.11700328130E+02 -0.21721857792E+02  0.15618025756E+02  0.29200334121E+02  0.00000000000E+00 0. -1.
</event>
<event>
 5    1  0.1766634E-003  0.9118800E+02  0.7818608E-02  0.1130116E+00
         25   -1    0    0    0    0  0.00000000000E+00  0.00000000000E+00  0.99999998245E-14  0.12500000000E+03  0.12500000000E+03 0.  0.
        -13    1    3    3    0    0  0.36112715552E+02 -0.36967886459E+01 -0.48954428002E+02  0.60945398972E+02  0.10566000000E+00 0. -1.
         23    2    1    0    0    0  0.19817632438E+02  0.38058535236E+01 -0.38024841006E+02  0.81952217130E+02  0.69735602691E+02 0.  0.
         13    1    3    3    0    0 -0.16295083114E+02  0.75026421696E+01  0.10929586996E+02  0.21006818159E+02  0.10566000000E+00 0.  1.
         22    1    1    0    0    0 -0.19817632438E+02 -0.38058535236E+01  0.38024841006E+02  0.43047782870E+02  0.00000000000E+00 0. -1.
</event>
<event>
 5    1  0.1766634E-003  0.9118800E+02  0.7818608E-02  0.1130116E+00
         25   -1    0    0    0    0  0.00000000000E+00  0.00000000000E+00  0.99999998245E-14  0.12500000000E+03  0.12500000000E+03 0.  0.
        -13    1    3    3    0    0 -0.31979264506E+02 -0.55957879648E+01  0.15732413425E+02  0.36076393909E+02  0.10566000000E+00 0.  1.
         23    2    1    0    0    0  0.68401937441E+01  0.19868075887E+02 -0.21012218936E+02  0.95283976805E+02  0.90531730357E+02 0.  0.
         13    1    3    3    0    0  0.38819458250E+02  0.25463863852E+02 -0.36744632361E+02  0.59207582896E+02  0.10566000000E+00 0. -1.
         22    1    1    0    0    0 -0.68401937441E+01 -0.19868075887E+02  0.21012218936E+02  0.29716023195E+02  0.00000000000E+00 0. -1.
</event>
<event>
 5    1  0.1766634E-003  0.9118800E+02  0.7818608E-02  0.1130116E+00
         25   -1    0    0    0    0  0.00000000000E+00  0.00000000000E+00  0.99999998245E-14  0.12500000000E+03  0.12500000000E+03 0.  0.
        -13    1    3    3    0    0  0.61207377422E+01 -0.41425916727E+02 -0.27822818552E+02  0.50276141492E+02  0.10566000000E+00 0.  1.
         23    2    1    0    0    0  0.20481131413E+02 -0.24544530049E+02  0.76744920420E+01  0.92124347499E+02  0.86058624639E+02 0.  0.
         13    1    3    3    0    0  0.14360393671E+02  0.16881386678E+02  0.35497310594E+02  0.41848206007E+02  0.10566000000E+00 0. -1.
         22    1    1    0    0    0 -0.20481131413E+02  0.24544530049E+02 -0.76744920420E+01  0.32875652501E+02  0.00000000000E+00 0.  1.
</event>
<event>
 5    1  0.1766634E-003  0.9118800E+02  0.7818608E-02  0.1130116E+00
         25   -1    0    0    0    0  0.00000000000E+00  0.00000000000E+00  0.99999998245E-14  0.12500000000E+03  0.12500000000E+03 0.  0.
        -13    1    3    3    0    0  0.12571653389E+02 -0.22789454800E+02  0.49440229345E+02  0.55872651277E+02  0.10566000000E+00 0. -1.
         23    2    1    0    0    0  0.22953636949E+02 -0.10073050656E+02  0.11088384811E+02  0.97590365263E+02  0.93662112488E+02 0.  0.
         13    1    3    3    0    0  0.10381983560E+02  0.12716404144E+02 -0.38351844534E+02  0.41717713986E+02  0.10566000000E+00 0.  1.
         22    1    1    0    0    0 -0.22953636949E+02  0.10073050656E+02 -0.11088384811E+02  0.27409634737E+02  0.00000000000E+00 0. -1.
</event>
<event>
 5    1  0.1766634E-003  0.9118800E+02  0.7818608E-02  0.1130116E+00
         25   -1    0    0    0    0  0.00000000000E+00  0.00000000000E+00  0.99999998245E-14  0.12500000000E+03  0.12500000000E+03 0.  0.
        -13    1    3    3    0    0  0.81393590181E+01  0.14826334234E+02 -0.30743716266E+02  0.35089266249E+02  0.10566000000E+00 0. -1.
         23    2    1    0    0    0  0.80465140386E+01 -0.13153121174E+02  0.23945008778E+02  0.96519929245E+02  0.92222460992E+02 0.  0.
         13    1    3    3    0    0 -0.92844979516E-01 -0.27979455408E+02  0.54688725044E+02  0.61430662996E+02  0.10566000000E+00 0.  1.
         22    1    1    0    0    0 -0.80465140386E+01  0.13153121174E+02 -0.23945008778E+02  0.28480070755E+02  0.00000000000E+00 0.  1.
</event>
<event>
 5    1  0.1766634E-003  0.9118800E+02  0.7818608E-02  0.1130116E+00
         25   -1    0    0    0    0  0.00000000000E+00  0.00000000000E+00  0.99999998245E-14  0.12500000000E+03  0.12500000000E+03 0.  0.
        -13    1    3    3    0    0  0.62380644521E+01  0.89454793862E+01  0.39402110937E+02  0.40883646607E+02  0.10566000000E+00 0. -1.
         23    2    1    0    0    0  0.29978297019E+02 -0.12547059045E+02 -0.10592643372E+01  0.92484634036E+02  0.86580358679E+02 0.  0.
         13    1    3    3    0    0  0.23740232567E+02 -0.21492538431E+02 -0.40461375274E+02  0.51600987429E+02  0.10566000000E+00 0.  1.
         22    1    1    0    0    0 -0.29978297019E+02  0.12547059045E+02  0.10592643372E+01  0.32515365964E+02  0.00000000000E+00 0.  1.
</event>
<event>
 5    1  0.1766634E-003  0.9118800E+02  0.7818608E-02  0.1130116E+00
         25   -1    0    0    0    0  0.00000000000E+00  0.00000000000E+00  0.99999998245E-14  0.12500000000E+03  0.12500000000E+03 0.  0.
        -13    1    3    3    0    0  0.33866448503E+02  0.44613771131E+01  0.13452407548E+02  0.36712649765E+02  0.10566000000E+00 0.  1.
         23    2    1    0    0    0 -0.12989657306E+02  0.24704922440E+02 -0.13008211280E+02  0.94205877990E+02  0.89030722212E+02 0.  0.
         13    1    3    3    0    0 -0.46856105808E+02  0.20243545327E+02 -0.26460618828E+02  0.57493228225E+02  0.10566000000E+00 0. -1.
         22    1    1    0    0    0  0.12989657306E+02 -0.24704922440E+02  0.13008211280E+02  0.30794122010E+02  0.00000000000E+00 0. -1.
</event>
<event>
 5    1  0.1766634E-003  0.9118800E+02  0.7818608E-02  0.1130116E+00
         25   -1    0    0    0    0  0.00000000000E+00  0.00000000000E+00  0.99999998245E-14  0.12500000000E+03  0.12500000000E+03 0.  0.
        -13    1    3    3    0    0  0.24027445196E+02  0.10745761584E+02 -0.53943277265E+02  0.60022311192E+02  0.10566000000E+00 0.  1.
         23    2    1    0    0    0  0.48552202131E+01 -0.60638484497E+01 -0.26062785700E+02  0.97804187458E+02  0.93947042873E+02 0.  0.
         13    1    3    3    0    0 -0.19172224983E+02 -0.16809610034E+02  0.27880491565E+02  0.37781876266E+02  0.10566000000E+00 0. -1.
         22    1    1    0    0    0 -0.48552202131E+01  0.60638484497E+01  0.26062785700E+02  0.27195812542E+02  0.00000000000E+00 0.  1.
</event>
<event>
 5    1  0.1766634E-003  0.9118800E+02  0.7818608E-02  0.1130116E+00
         25   -1    0    0    0    0  0.00000000000E+00  0.00000000000E+00  0.99999998245E-14  0.12500000000E+03  0.12500000000E+03 0.  0.
        -13    1    3    3    0    0 -0.92062433880E+01  0.37972876274E+02  0.43347127522E+01  0.39312786070E+02  0.10566000000E+00 0.  1.
         23    2    1    0    0    0 -0.21750226269E+02 -0.17970769016E+02  0.34894640753E+00  0.96784000188E+02  0.92579695653E+02 0.  0.
         13    1    3    3    0    0 -0.12543982881E+02 -0.55943645291E+02 -0.39857663447E+01  0.57471214119E+02  0.10566000000E+00 0. -1.
         22    1    1    0    0    0  0.21750226269E+02  0.17970769016E+02 -0.34894640753E+00  0.28215999812E+02  0.00000000000E+00 0. -1.
</event>
<event>
 5    1  0.1766634E-003  0.9118800E+02  0.7818608E-02  0.1130116E+00
         25   -1    0    0    0    0  0.00000000000E+00  0.00000000000E+00  0.99999998245E-14  0.12500000000E+03  0.12500000000E+03 0.  0.
        -13    1    3    3    0    0 -0.97116917601E+01  0.31119008680E+02  0.53093485908E+02  0.62302801446E+02  0.10566000000E+00 0.  1.
         23    2    1    0    0    0 -0.14770137597E+01  0.16048106596E+02  0.23877126091E+02  0.96193048663E+02  0.91778331679E+02 0.  0.
         13    1    3    3    0    0  0.82346780004E+01 -0.15070902084E+02 -0.29216359818E+02  0.33890247217E+02  0.10566000000E+00 0. -1.
         22    1    1    0    0    0  0.14770137597E+01 -0.16048106596E+02 -0.23877126091E+02  0.28806951337E+02  0.00000000000E+00 0.  1.
</event>
<event>
 5    1  0.1766634E-003  0.9118800E+02  0.7818608E-02  0.1130116E+00
         25   -1    0    0    0    0  0.00000000000E+00  0.00000000000E+00  0.99999998245E-14  0.12500000000E+03  0.12500000000E+03 0.  0.
        -13    1    3    3    0    0  0.36584141723E+02  0.17514035113E+01  0.15269772790E+02  0.39681783792E+02  0.10566000000E+00 0. -1.
         23    2    1    0    0    0  0.51294694149E+01 -0.11833146182E+02 -0.27584598954E+02  0.94549303710E+02  0.89511596610E+02 0.  0.
         13    1    3    3    0    0 -0.31454672308E+02 -0.13584549694E+02 -0.42854371744E+02  0.54867519918E+02  0.10566000000E+00 0.  1.
         22    1    1    0    0    0 -0.51294694149E+01  0.11833146182E+02  0.27584598954E+02  0.30450696290E+02  0.00000000000E+00 0.  1.
</event>
<event>
 5    1  0.1766634E-003  0.9118800E+02  0.7818608E-02  0.1130116E+00
         25   -1    0    0    0    0  0.00000000000E+00  0.00000000000E+00  0.99999998245E-14  0.12500000000E+03  0.12500000000E+03 0.  0.
        -13    1    3    3    0    0 -0.24077074315E+02 -0.25040051195E+02  0.15473840974E+02  0.38028418189E+02  0.10566000000E+00 0.  1.
         23    2    1    0    0    0  0.97660077416E+01 -0.56706497065E+01 -0.27027706970E+02  0.95707882982E+02  0.91115151021E+02 0.  0.
         13    1    3    3    0    0  0.33843082057E+02  0.19369401488E+02 -0.42501547945E+02  0.57679464793E+02  0.10566000000E+00 0. -1.
         22    1    1    0    0    0 -0.97660077416E+01  0.56706497065E+01  0.27027706970E+02  0.29292117018E+02  0.00000000000E+00 0. -1.
</event>
<event>
 5    1  0.1766634E-003  0.9118800E+02  0.7818608E-02  0.1130116E+00
         25   -1    0    0    0    0  0.00000000000E+00  0.00000000000E+00  0.99999998245E-14  0.12500000000E+03  0.12500000000E+03 0.  0.
        -13    1    3    3    0    0 -0.29890424300E+02 -0.91622972426E+01 -0.16325040332E+02  0.35269012766E+02  0.10566000000E+00 0.  1.
         23    2    1    0    0    0  0.14425028800E+02  0.26157138777E+02  0.26045201409E+01  0.95015655918E+02  0.90160490124E+02 0.  0.
         13    1    3    3    0    0  0.44315453099E+02  0.35319436020E+02  0.18929560473E+02  0.59746643152E+02  0.10566000000E+00 0. -1.
         22    1    1    0    0    0 -0.14425028800E+02 -0.26157138777E+02 -0.26045201409E+01  0.29984344082E+02  0.00000000000E+00 0. -1.
</event>
<event>
 5    1  0.1766634E-003  0.9118800E+02  0.7818608E-02  0.1130116E+00
         25   -1    0    0    0    0  0.00000000000E+00  0.00000000000E+00  0.99999998245E-14  0.12500000000E+03  0.12500000000E+03 0.  0.
        -13    1    3    3    0    0 -0.22371834437E+02  0.29238879294E+02  0.67169511014E+01  0.37423784343E+02  0.10566000000E+00 0.  1.
         23    2    1    0    0    0  0.13722757899E+02 -0.19462561661E+02  0.12112888173E+02  0.98282450512E+02  0.94581248818E+02 0.  0.
         13    1    3    3    0    0  0.36094592335E+02 -0.48701440955E+02  0.53959370721E+01  0.60858666169E+02  0.10566000000E+00 0. -1.
         22    1    1    0    0    0 -0.13722757899E+02  0.19462561661E+02 -0.12112888173E+02  0.26717549488E+02  0.00000000000E+00 0. -1.
</event>
<event>
 5    1  0.1766634E-003  0.9118800E+02  0.7818608E-02  0.1130116E+00
         25   -1    0    0    0    0  0.00000000000E+00  0.00000000000E+00  0.99999998245E-14  0.12500000000E+03  0.12500000000E+03 0.  0.
        -13    1    3    3    0    0 -0.16194048351E+02 -0.23239183297E+02 -0.27638054144E+02  0.39574992650E+02  0.10566000000E+00 0. -1.
         23    2    1    0    0    0 -0.17225971441E+02  0.71499036110E+01  0.20986141340E+02  0.96923794023E+02  0.92768251604E+02 0.  0.
         13    1    3    3    0    0 -0.10319230901E+01  0.30389086908E+02  0.48624195484E+02  0.57348801373E+02  0.10566000000E+00 0.  1.
         22    1    1    0    0    0  0.17225971441E+02 -0.71499036110E+01 -0.20986141340E+02  0.28076205977E+02  0.00000000000E+00 0.  1.
</event>
<event>
 5    1  0.1766634E-003  0.9118800E+02  0.7818608E-02  0.1130116E+00
         25   -1    0    0    0    0  0.00000000000E+00  0.00000000000E+00  0.99999998245E-14  0.12500000000E+03  0.12500000000E+03 0.  0.
        -13    1    3    3    0    0 -0.93497599898E+01 -0.79318734868E+01 -0.45255829872E+02  0.46887460267E+02  0.10566000000E+00 0.  1.
         23    2    1    0    0    0 -0.14718945002E+01  0.26493998888E+02 -0.10422484391E+02  0.96491639273E+02  0.92184108273E+02 0.  0.
         13    1    3    3    0    0  0.78778654896E+01  0.34425872375E+02  0.34833345480E+02  0.49604179005E+02  0.10566000000E+00 0. -1.
         22    1    1    0    0    0  0.14718945002E+01 -0.26493998888E+02  0.10422484391E+02  0.28508360727E+02  0.00000000000E+00 0.  1.
</event>
<event>
 5    1  0.1766634E-003  0.9118800E+02  0.7818608E-02  0.1130116E+00
         25   -1    0    0    0    0  0.00000000000E+00  0.00000000000E+00  0.99999998245E-14  0.12500000000E+03  0.12500000000E+03 0.  0.
        -13    1    3    3    0    0 -0.33995794116E+02 -0.95839940572E+01  0.32881771915E+02  0.48257528407E+02  0.10566000000E+00 0.  1.
         23    2    1    0    0    0  0.86731953504E+01 -0.22204704323E+02  0.17831253156E+02  0.95230438351E+02  0.90457777929E+02 0.  0.
         13    1    3    3    0    0  0.42668989466E+02 -0.12620710265E+02 -0.15050518759E+02  0.46972909944E+02  0.10566000000E+00 0. -1.
         22    1    1    0    0    0 -0.86731953504E+01  0.22204704323E+02 -0.17831253156E+02  0.29769561649E+02  0.00000000000E+00 0. -1.
</event>
<event>
 5    1  0.1766634E-003  0.9118800E+02  0.7818608E-02  0.1130116E+00
         25   -1    0    0    0    0  0.00000000000E+00  0.00000000000E+00  0.99999998245E-14  0.12500000000E+03  0.12500000000E+03 0.  0.
        -13    1    3    3    0    0  0.73138724249E+01  0.32803215026E+02  0.18433640603E+02  0.38332152507E+02  0.10566000000E+00 0.  1.
         23    2    1    0    0    0 -0.27350775120E+02  0.18017895207E+00 -0.12317910431E+02  0.95002862112E+02  0.90142750834E+02 0.  0.
         13    1    3    3    0    0 -0.34664647545E+02 -0.32623036074E+02 -0.30751551034E+02  0.56670709605E+02  0.10566000000E+00 0. -1.
         22    1    1    0    0    0  0.27350775120E+02 -0.18017895207E+00  0.12317910431E+02  0.29997137888E+02  0.00000000000E+00 0. -1.
</event>
<event>
 5    1  0.1766634E-003  0.9118800E+02  0.7818608E-02  0.1130116E+00
         25   -1    0    0    0    0  0.00000000000E+00  0.00000000000E+00  0.99999998245E-14  0.12500000000E+03  0.12500000000E+03 0.  0.
        -13    1    3    3    0    0 -0.11419030055E+02  0.34027502851E+02 -0.13285875391E+02  0.38272586098E+02  0.10566000000E+00 0. -1.
         23    2    1    0    0    0  0.27454750758E+02 -0.20835928055E+01  0.92999412211E+01  0.95938107342E+02  0.91430448076E+02 0.  0.
         13    1    3    3    0    0  0.38873780813E+02 -0.36111095657E+02  0.22585816612E+02  0.57665521244E+02  0.10566000000E+00 0.  1.
         22    1    1    0    0    0 -0.27454750758E+02  0.20835928055E+01 -0.92999412211E+01  0.29061892658E+02  0.00000000000E+00 0.  1.
</event>
<event>
 5    1  0.1766634E-003  0.9118800E+02  0.7818608E-02  0.1130116E+00
         25   -1    0    0    0    0  0.00000000000E+00  0.00000000000E+00  0.99999998245E-14  0.12500000000E+03  0.12500000000E+03 0.  0.
        -13    1    3    3    0    0  0.17278893057E+02 -0.28908937012E+02  0.39747251569E+02  0.52097427535E+02  0.10566000000E+00 0. -1.
         23    2    1    0    0    0 -0.19403859262E+01  0.90177456923E+01  0.26972892282E+02  0.96493478765E+02  0.92186602558E+02 0.  0.
         13    1    3    3    0    0 -0.19219278983E+02  0.37926682704E+02 -0.12774359287E+02  0.44396051230E+02  0.10566000000E+00 0.  1.
         22    1    1    0    0    0  0.19403859262E+01 -0.90177456923E+01 -0.26972892282E+02  0.28506521235E+02  0.00000000000E+00 0. -1.
</event>
<event>
 5    1  0.1766634E-003  0.9118800E+02  0.7818608E-02  0.1130116E+00
         25   -1    0    0    0    0  0.00000000000E+00  0.00000000000E+00  0.99999998245E-14  0.12500000000E+03  0.12500000000E+03 0.  0.
        -13    1    3    3    0    0 -0.14422878540E+02  0.39123488176E+02  0.23293942568E+02  0.47762806417E+02  0.10566000000E+00 0.  1.
         23    2    1    0    0    0  0.15612340388E+02  0.19372936743E+01  0.24849551306E+02  0.95589143514E+02  0.90952107608E+02 0.  0.
         13    1    3    3    0    0  0.30035218928E+02 -0.37186194502E+02  0.15556087380E+01  0.47826337097E+02  0.10566000000E+00 0. -1.
         22    1    1    0    0    0 -0.15612340388E+02 -0.19372936743E+01 -0.24849551306E+02  0.29410856486E+02  0.00000000000E+00 0.  1.
</event>
<event>
 5    1  0.1766634E-003  0.9118800E+02  0.7818608E-02  0.1130116E+00
         25   -1    0    0    0    0  0.00000000000E+00  0.00000000000E+00  0.99999998245E-14  0.12500000000E+03  0.12500000000E+03 0.  0.
        -13    1    3    3    0    0 -0.32780328174E+02 -0.29764113131E+02  0.22495661713E+02  0.49664054462E+02  0.10566000000E+00 0.  1.
         23    2    1    0    0    0  0.12912506804E+02 -0.13944391974E+02  0.18972195207E+02  0.98146264869E+02  0.94401092247E+02 0.  0.
         13    1    3    3    0    0  0.45692834978E+02  0.15819721156E+02 -0.35234665058E+01  0.48482210408E+02  0.10566000000E+00 0. -1.
         22    1    1    0    0    0 -0.12912506804E+02  0.13944391974E+02 -0.18972195207E+02  0.26853735131E+02  0.00000000000E+00 0. -1.
</event>
<event>
 5    1  0.1766634E-003  0.9118800E+02  0.7818608E-02  0.1130116E+00
         25   -1    0    0    0    0  0.00000000000E+00  0.00000000000E+00  0.99999998245E-14  0.12500000000E+03  0.12500000000E+03 0.  0.
        -13    1    3    3    0    0 -0.24032885254E+02  0.24056797074E+02 -0.67396958833E+01  0.34666175499E+02  0.10566000000E+00 0. -1.
         23    2    1    0    0    0 -0.57807351468E+01 -0.31272550792E+02 -0.32302989872E+01  0.93034015525E+02  0.87369925497E+02 0.  0.
         13    1    3    3    0    0  0.18252150107E+02 -0.55329347866E+02  0.35093968961E+01  0.58367840027E+02  0.10566000000E+00 0.  1.
         22    1    1    0    0    0  0.57807351468E+01  0.31272550792E+02  0.32302989872E+01  0.31965984475E+02  0.00000000000E+00 0.  1.
</event>
<event>
 5    1  0.1766634E-003  0.9118800E+02  0.7818608E-02  0.1130116E+00
         25   -1    0    0    0    0  0.00000000000E+00  0.00000000000E+00  0.99999998245E-14  0.12500000000E+03  0.12500000000E+03 0.  0.
        -13    1    3    3    0    0 -0.30123515916E+02  0.17346144733E+02 -0.11381849937E+01  0.34779614394E+02  0.10566000000E+00 0. -1.
         23    2    1    0    0    0  0.26217046043E+02  0.79608993789E+00 -0.14539518322E+02  0.95010587611E+02  0.90153463065E+02 0.  0.
         13    1    3    3    0    0  0.56340561959E+02 -0.16550054796E+02 -0.13401333329E+02  0.60230973217E+02  0.10566000000E+00 0.  1.
         22    1    1    0    0    0 -0.26217046043E+02 -0.79608993789E+00  0.14539518322E+02  0.29989412389E+02  0.00000000000E+00 0.  1.
</event>
<event>
 5    1  0.1766634E-003  0.9118800E+02  0.7818608E-02  0.1130116E+00
         25   -1    0    0    0    0  0.00000000000E+00  0.00000000000E+00  0.99999998245E-14  0.12500000000E+03  0.12500000000E+03 0.  0.
        -13    1    3    3    0    0 -0.39760138265E+01 -0.58246340459E+02  0.74272017998E+01  0.58852522065E+02  0.10566000000E+00 0.  1.
         23    2    1    0    0    0  0.36423790338E+01 -0.28145136758E+02 -0.10539373137E+02  0.94726347523E+02  0.89758491970E+02 0.  0.
         13    1    3    3    0    0  0.76183928604E+01  0.30101203701E+02 -0.17966574936E+02  0.35873825458E+02  0.10566000000E+00 0. -1.
         22    1    1    0    0    0 -0.36423790338E+01  0.28145136758E+02  0.10539373137E+02  0.30273652477E+02  0.00000000000E+00 0.  1.
</event>
<event>
 5    1  0.1766634E-003  0.9118800E+02  0.7818608E-02  0.1130116E+00
         25   -1    0    0    0    0  0.00000000000E+00  0.00000000000E+00  0.99999998245E-14  0.12500000000E+03  0.12500000000E+03 0.  0.
        -13    1    3    3    0    0  0.57783181050E+01 -0.36196068094E+02 -0.81325826197E+01  0.37545896842E+02  0.10566000000E+00 0.  1.
         23    2    1    0    0    0  0.19317390488E+02  0.19883700524E+02 -0.10676258353E+02  0.95293003952E+02  0.90544193563E+02 0.  0.
         13    1    3    3    0    0  0.13539072383E+02  0.56079768618E+02 -0.25436757337E+01  0.57747107109E+02  0.10566000000E+00 0. -1.
         22    1    1    0    0    0 -0.19317390488E+02 -0.19883700524E+02  0.10676258353E+02  0.29706996048E+02  0.00000000000E+00 0. -1.
</event>
<event>
 5    1  0.1766634E-003  0.9118800E+02  0.7818608E-02  0.1130116E+00
         25   -1    0    0    0    0  0.00000000000E+00  0.00000000000E+00  0.99999998245E-14  0.12500000000E+03  0.12500000000E+03 0.  0.
        -13    1    3    3    0    0 -0.46289637694E+02 -0.12396183187E+02 -0.23334519327E+02  0.53300158271E+02  0.10566000000E+00 0. -1.
         23    2    1    0    0    0 -0.20257441287E+02 -0.16570604205E+02  0.11017961607E+02  0.96603797275E+02  0.92336067270E+02 0.  0.
         13    1    3    3    0    0  0.26032196408E+02 -0.41744210186E+01  0.34352480934E+02  0.43303639004E+02  0.10566000000E+00 0.  1.
         22    1    1    0    0    0  0.20257441287E+02  0.16570604205E+02 -0.11017961607E+02  0.28396202725E+02  0.00000000000E+00 0. -1.
</event>
<event>
 5    1  0.1766634E-003  0.9118800E+02  0.7818608E-02  0.1130116E+00
         25   -1    0    0    0    0  0.00000000000E+00  0.00000000000E+00  0.99999998245E-14  0.12500000000E+03  0.12500000000E+03 0.  0.
        -13    1    3    3    0    0 -0.50206749028E+02 -0.19586534408E+02  0.89727351333E+01  0.54633974026E+02  0.10566000000E+00 0.  1.
         23    2    1    0    0    0 -0.17958607009E+02 -0.19903209728E+02 -0.14500508828E+02  0.94521908205E+02  0.89473331509E+02 0.  0.
         13    1    3    3    0    0  0.32248142019E+02 -0.31667531946E+00 -0.23473243962E+02  0.39887934179E+02  0.10566000000E+00 0. -1.
         22    1    1    0    0    0  0.17958607009E+02  0.19903209728E+02  0.14500508828E+02  0.30478091795E+02  0.00000000000E+00 0.  1.
</event>
<event>
 5    1  0.1766634E-003  0.9118800E+02  0.7818608E-02  0.1130116E+00
         25   -1    0    0    0    0  0.00000000000E+00  0.00000000000E+00  0.99999998245E-14  0.12500000000E+03  0.12500000000E+03 0.  0.
        -13    1    3    3    0    0 -0.21728855245E+02 -0.26287755021E+02 -0.51771898708E+02  0.61996208547E+02  0.10566000000E+00 0.  1.
         23    2    1    0    0    0 -0.10105292160E+02 -0.69540656450E+01 -0.26031128920E+02  0.96223349196E+02  0.91819591042E+02 0.  0.
         13    1    3    3    0    0  0.11623563085E+02  0.19333689376E+02  0.25740769788E+02  0.34227140649E+02  0.10566000000E+00 0. -1.
         22    1    1    0    0    0  0.10105292160E+02  0.69540656450E+01  0.26031128920E+02  0.28776650804E+02  0.00000000000E+00 0.  1.
</event>
<event>
 5    1  0.1766634E-003  0.9118800E+02  0.7818608E-02  0.1130116E+00
         25   -1    0    0    0    0  0.00000000000E+00  0.00000000000E+00  0.99999998245E-14  0.12500000000E+03  0.12500000000E+03 0.  0.
        -13    1    3    3    0    0  0.46877476823E+02  0.32351818084E+01  0.21309267803E+02  0.51595157651E+02  0.10566000000E+00 0. -1.
         23    2    1    0    0    0  0.51312953578E+01  0.22778812989E+02  0.12468473671E+02  0.98529878185E+02  0.94907689605E+02 0.  0.
         13    1    3    3    0    0 -0.41746181465E+02  0.19543631181E+02 -0.88407941326E+01  0.46934720534E+02  0.10566000000E+00 0.  1.
         22    1    1    0    0    0 -0.51312953578E+01 -0.22778812989E+02 -0.12468473671E+02  0.26470121815E+02  0.00000000000E+00 0. -1.
</event>
<event>
 5    1  0.1766634E-003  0.9118800E+02  0.7818608E-02  0.1130116E+00
         25   -1    0    0    0    0  0.00000000000E+00  0.00000000000E+00  0.99999998245E-14  0.12500000000E+03  0.12500000000E+03 0.  0.
        -13    1    3    3    0    0 -0.54096377873E+02  0.53060891432E+01 -0.98153603822E+01  0.55235180315E+02  0.10566000000E+00 0. -1.
         23    2    1    0    0    0 -0.21599680739E+02 -0.17602363016E+02 -0.11077410993E+02  0.95015029997E+02  0.90159622333E+02 0.  0.
         13    1    3    3    0    0  0.32496697134E+02 -0.22908452160E+02 -0.12620506108E+01  0.39779849682E+02  0.10566000000E+00 0.  1.
         22    1    1    0    0    0  0.21599680739E+02  0.17602363016E+02  0.11077410993E+02  0.29984970003E+02  0.00000000000E+00 0. -1.
</event>
<event>
 5    1  0.1766634E-003  0.9118800E+02  0.7818608E-02  0.1130116E+00
         25   -1    0    0    0    0  0.00000000000E+00  0.00000000000E+00  0.99999998245E-14  0.12500000000E+03  0.12500000000E+03 0.  0.
        -13    1    3    3    0    0 -0.37888005637E+02  0.19027235818E+02  0.38391660694E+02  0.57196743342E+02  0.10566000000E+00 0.  1.
         23    2    1    0    0    0 -0.96518186575E+00  0.36566912587E+01  0.25505053123E+02  0.99216076679E+02  0.95807197902E+02 0.  0.
         13    1    3    3    0    0  0.36922823772E+02 -0.15370544559E+02 -0.12886607571E+02  0.42019333337E+02  0.10566000000E+00 0. -1.
         22    1    1    0    0    0  0.96518186575E+00 -0.36566912587E+01 -0.25505053123E+02  0.25783923321E+02  0.00000000000E+00 0.  1.
</event>
<event>
 5    1  0.1766634E-003  0.9118800E+02  0.7818608E-02  0.1130116E+00
         25   -1    0    0    0    0  0.00000000000E+00  0.00000000000E+00  0.99999998245E-14  0.12500000000E+03  0.12500000000E+03 0.  0.
        -13    1    3    3    0    0  0.25510723083E+02  0.11672105672E+02 -0.21288436659E+02  0.35217094463E+02  0.10566000000E+00 0. -1.
         23    2    1    0    0    0 -0.19172370296E+02  0.83962011380E+01  0.19931789646E+02  0.96097539641E+02  0.91648158248E+02 0.  0.
         13    1    3    3    0    0 -0.44683093378E+02 -0.32759045344E+01  0.41220226305E+02  0.60880445178E+02  0.10566000000E+00 0.  1.
         22    1    1    0    0    0  0.19172370296E+02 -0.83962011380E+01 -0.19931789646E+02  0.28902460359E+02  0.00000000000E+00 0.  1.
</event>
<event>
 5    1  0.1766634E-003  0.9118800E+02  0.7818608E-02  0.1130116E+00
         25   -1    0    0    0    0  0.00000000000E+00  0.00000000000E+00  0.99999998245E-14  0.12500000000E+03  0.12500000000E+03 0.  0.
        -13    1    3    3    0    0 -0.33529438870E+02  0.12412177464E+01  0.45416355208E+02  0.56466099359E+02  0.10566000000E+00 0.  1.
         23    2    1    0    0    0 -0.17324286844E+02 -0.17920420635E+02  0.14959456110E+02  0.95930123538E+02  0.91419532292E+02 0.  0.
         13    1    3    3    0    0  0.16205152025E+02 -0.19161638382E+02 -0.30456899099E+02  0.39464024179E+02  0.10566000000E+00 0. -1.
         22    1    1    0    0    0  0.17324286844E+02  0.17920420635E+02 -0.14959456110E+02  0.29069876462E+02  0.00000000000E+00 0.  1.
</event>
<event>
 5    1  0.1766634E-003  0.9118800E+02  0.7818608E-02  0.1130116E+00
         25   -1    0    0    0    0  0.00000000000E+00  0.00000000000E+00  0.99999998245E-14  0.12500000000E+03  0.12500000000E+03 0.  0.
        -13    1    3    3    0    0  0.30766648520E+02 -0.96593515711E+01 -0.47191604816E+02  0.57157225817E+02  0.10566000000E+00 0. -1.
         23    2    1    0    0    0  0.21322013146E+02 -0.18205423452E+02 -0.12147067826E+02  0.94444854043E+02  0.89365617051E+02 0.  0.
         13    1    3    3    0    0 -0.94446353744E+01 -0.85460718809E+01  0.35044536989E+02  0.37287628227E+02  0.10566000000E+00 0.  1.
         22    1    1    0    0    0 -0.21322013146E+02  0.18205423452E+02  0.12147067826E+02  0.30555145957E+02  0.00000000000E+00 0. -1.
</event>
<event>
 5    1  0.1766634E-003  0.9118800E+02  0.7818608E-02  0.1130116E+00
         25   -1    0    0    0    0  0.00000000000E+00  0.00000000000E+00  0.99999998245E-14  0.12500000000E+03  0.12500000000E+03 0.  0.
        -13    1    3    3    0    0  0.49819349696E+02  0.18293891389E+02 -0.25587078205E+02  0.58918110979E+02  0.10566000000E+00 0.  1.
         23    2    1    0    0    0  0.29612618755E+02  0.62310704164E+01  0.13768452598E+01  0.94707606055E+02  0.89732388321E+02 0.  0.
         13    1    3    3    0    0 -0.20206730941E+02 -0.12062820973E+02  0.26963923465E+02  0.35789495076E+02  0.10566000000E+00 0. -1.
         22    1    1    0    0    0 -0.29612618755E+02 -0.62310704164E+01 -0.13768452598E+01  0.30292393945E+02  0.00000000000E+00 0.  1.
</event>
<event>
 5    1  0.1766634E-003  0.9118800E+02  0.7818608E-02  0.1130116E+00
         25   -1    0    0    0    0  0.00000000000E+00  0.00000000000E+00  0.99999998245E-14  0.12500000000E+03  0.12500000000E+03 0.  0.
        -13    1    3    3    0    0 -0.45553468422E+02  0.20661942162E+02  0.21739286632E+00  0.50020923251E+02  0.10566000000E+00 0.  1.
         23    2    1    0    0    0 -0.19130644643E+02 -0.11787435962E+02  0.18698789626E+02  0.95766971685E+02  0.91196178216E+02 0.  0.
         13    1    3    3    0    0  0.26422823779E+02 -0.32449378124E+02  0.18481396759E+02  0.45746048434E+02  0.10566000000E+00 0. -1.
         22    1    1    0    0    0  0.19130644643E+02  0.11787435962E+02 -0.18698789626E+02  0.29233028315E+02  0.00000000000E+00 0.  1.
</event>
<event>
 5    1  0.1766634E-003  0.9118800E+02  0.7818608E-02  0.1130116E+00
         25   -1    0    0    0    0  0.00000000000E+00  0.00000000000E+00  0.99999998245E-14  0.12500000000E+03  0.12500000000E+03 0.  0.
        -13    1    3    3    0    0 -0.33656370899E+02  0.17344308360E+02  0.25601910431E+02  0.45706075268E+02  0.10566000000E+00 0. -1.
         23    2    1    0    0    0 -0.20319596896E+02  0.59353578301E+00 -0.20247331252E+02  0.96308664625E+02  0.91935663137E+02 0.  0.
         13    1    3    3    0    0  0.13336774003E+02 -0.16750772577E+02 -0.45849241683E+02  0.50602589358E+02  0.10566000000E+00 0.  1.
         22    1    1    0    0    0  0.20319596896E+02 -0.59353578301E+00  0.20247331252E+02  0.28691335375E+02  0.00000000000E+00 0.  1.
</event>
<event>
 5    1  0.1766634E-003  0.9118800E+02  0.7818608E-02  0.1130116E+00
         25   -1    0    0    0    0  0.00000000000E+00  0.00000000000E+00  0.99999998245E-14  0.12500000000E+03  0.12500000000E+03 0.  0.
        -13    1    3    3    0    0 -0.12501621315E+02  0.13225865524E+02 -0.41662439464E+02  0.45464096609E+02  0.10566000000E+00 0. -1.
         23    2    1    0    0    0 -0.32229295891E+02 -0.90083692037E+01 -0.75798505401E+01  0.90687722845E+02  0.83945998781E+02 0.  0.
         13    1    3    3    0    0 -0.19727674576E+02 -0.22234234728E+02  0.34082588924E+02  0.45223626236E+02  0.10566000000E+00 0.  1.
         22    1    1    0    0    0  0.32229295891E+02  0.90083692037E+01  0.75798505401E+01  0.34312277155E+02  0.00000000000E+00 0.  1.
</event>
<event>
 5    1  0.1766634E-003  0.9118800E+02  0.7818608E-02  0.1130116E+00
         25   -1    0    0    0    0  0.00000000000E+00  0.00000000000E+00  0.99999998245E-14  0.12500000000E+03  0.12500000000E+03 0.  0.
        -13    1    3    3    0    0 -0.13479776365E+02 -0.40909685207E+02 -0.32348878939E+01  0.43194703128E+02  0.10566000000E+00 0. -1.
         23    2    1    0    0    0 -0.23018542629E+02  0.74107006323E+01  0.15927284187E+02  0.96043995956E+02  0.91575100268E+02 0.  0.
         13    1    3    3    0    0 -0.95387662636E+01  0.48320385840E+02  0.19162172081E+02  0.52849292828E+02  0.10566000000E+00 0.  1.
         22    1    1    0    0    0  0.23018542629E+02 -0.74107006323E+01 -0.15927284187E+02  0.28956004044E+02  0.00000000000E+00 0.  1.
</event>
<event>
 5    1  0.1766634E-003  0.9118800E+02  0.7818608E-02  0.1130116E+00
         25   -1    0    0    0    0  0.00000000000E+00  0.00000000000E+00  0.99999998245E-14  0.12500000000E+03  0.12500000000E+03 0.  0.
        -13    1    3    3    0    0  0.27228683213E+02  0.17682604349E+02  0.34028417852E+02  0.47032117448E+02  0.10566000000E+00 0. -1.
         23    2    1    0    0    0 -0.18645941869E+02  0.13730715766E+02  0.17580546516E+02  0.95926312250E+02  0.91414320883E+02 0.  0.
         13    1    3    3    0    0 -0.45874625082E+02 -0.39518885837E+01 -0.16447871336E+02  0.48894194802E+02  0.10566000000E+00 0.  1.
         22    1    1    0    0    0  0.18645941869E+02 -0.13730715766E+02 -0.17580546516E+02  0.29073687750E+02  0.00000000000E+00 0.  1.
</event>
<event>
 5    1  0.1766634E-003  0.9118800E+02  0.7818608E-02  0.1130116E+00
         25   -1    0    0    0    0  0.00000000000E+00  0.00000000000E+00  0.99999998245E-14  0.12500000000E+03  0.12500000000E+03 0.  0.
        -13    1    3    3    0    0 -0.20503388081E+02 -0.36539133107E+02 -0.47811286490E+01  0.42170695112E+02  0.10566000000E+00 0.  1.
         23    2    1    0    0    0 -0.13870322279E+02  0.15754750291E+02 -0.18913728373E+02  0.96745316887E+02  0.92527451180E+02 0.  0.
         13    1    3    3    0    0  0.66330658028E+01  0.52293883399E+02 -0.14132599724E+02  0.54574621775E+02  0.10566000000E+00 0. -1.
         22    1    1    0    0    0  0.13870322279E+02 -0.15754750291E+02  0.18913728373E+02  0.28254683113E+02  0.00000000000E+00 0. -1.
</event>
<event>
 5    1  0.1766634E-003  0.9118800E+02  0.7818608E-02  0.1130116E+00
         25   -1    0    0    0    0  0.00000000000E+00  0.00000000000E+00  0.99999998245E-14  0.12500000000E+03  0.12500000000E+03 0.  0.
        -13    1    3    3    0    0 -0.55884936754E+02  0.11764295988E+01  0.71619882722E+01  0.56354373235E+02  0.10566000000E+00 0.  1.
         23    2    1    0    0    0 -0.23433988133E+02  0.19258904416E+02 -0.19511397712E+01  0.94604866417E+02  0.89589154502E+02 0.  0.
         13    1    3    3    0    0  0.32450948621E+02  0.18082474817E+02 -0.91131280435E+01  0.38250493183E+02  0.10566000000E+00 0. -1.
         22    1    1    0    0    0  0.23433988133E+02 -0.19258904416E+02  0.19511397712E+01  0.30395133583E+02  0.00000000000E+00 0.  1.
</event>
<event>
 5    1  0.1766634E-003  0.9118800E+02  0.7818608E-02  0.1130116E+00
         25   -1    0    0    0    0  0.00000000000E+00  0.00000000000E+00  0.99999998245E-14  0.12500000000E+03  0.12500000000E+03 0.  0.
        -13    1    3    3    0    0 -0.28950960815E+02 -0.36189792698E+02 -0.40651150781E+02  0.61647274485E+02  0.10566000000E+00 0. -1.
         23    2    1    0    0    0 -0.14277237738E+02 -0.21910928735E+02 -0.13750929145E+02  0.95453149613E+02  0.90765012000E+02 0.  0.
         13    1    3    3    0    0  0.14673723077E+02  0.14278863963E+02  0.26900221636E+02  0.33805875128E+02  0.10566000000E+00 0.  1.
         22    1    1    0    0    0  0.14277237738E+02  0.21910928735E+02  0.13750929145E+02  0.29546850387E+02  0.00000000000E+00 0. -1.
</event>
<event>
 5    1  0.1766634E-003  0.9118800E+02  0.7818608E-02  0.1130116E+00
         25   -1    0    0    0    0  0.00000000000E+00  0.00000000000E+00  0.99999998245E-14  0.12500000000E+03  0.12500000000E+03 0.  0.
        -13    1    3    3    0    0 -0.19591797653E+02  0.37027149784E+02 -0.45615526769E+02  0.61932510064E+02  0.10566000000E+00 0. -1.
         23    2    1    0    0    0 -0.37056223044E+01  0.15803461190E+02 -0.23401804926E+02  0.96519734973E+02  0.92222197671E+02 0.  0.
         13    1    3    3    0    0  0.15886175349E+02 -0.21223688594E+02  0.22213721843E+02  0.34587224909E+02  0.10566000000E+00 0.  1.
         22    1    1    0    0    0  0.37056223044E+01 -0.15803461190E+02  0.23401804926E+02  0.28480265027E+02  0.00000000000E+00 0. -1.
</event>
<event>
 5    1  0.1766634E-003  0.9118800E+02  0.7818608E-02  0.1130116E+00
         25   -1    0    0    0    0  0.00000000000E+00  0.00000000000E+00  0.99999998245E-14  0.12500000000E+03  0.12500000000E+03 0.  0.
        -13    1    3    3    0    0 -0.36680348309E+02 -0.12230259403E+02  0.44091249462E+02  0.58643641090E+02  0.10566000000E+00 0.  1.
         23    2    1    0    0    0 -0.69056590288E+01  0.22720754666E+01  0.29114733942E+02  0.94991364808E+02  0.90126806235E+02 0.  0.
         13    1    3    3    0    0  0.29774689280E+02  0.14502334870E+02 -0.14976515520E+02  0.36347723719E+02  0.10566000000E+00 0. -1.
         22    1    1    0    0    0  0.69056590288E+01 -0.22720754666E+01 -0.29114733942E+02  0.30008635192E+02  0.00000000000E+00 0.  1.
</event>
<event>
 5    1  0.1766634E-003  0.9118800E+02  0.7818608E-02  0.1130116E+00
         25   -1    0    0    0    0  0.00000000000E+00  0.00000000000E+00  0.99999998245E-14  0.12500000000E+03  0.12500000000E+03 0.  0.
        -13    1    3    3    0    0  0.23645962648E+02  0.30625249820E+02 -0.11902979194E+02  0.40481224707E+02  0.10566000000E+00 0.  1.
         23    2    1    0    0    0  0.19671044955E+02 -0.20816111204E+02  0.71486536660E+01  0.95481129010E+02  0.90803536564E+02 0.  0.
         13    1    3    3    0    0 -0.39749176929E+01 -0.51441361024E+02  0.19051632860E+02  0.54999904303E+02  0.10566000000E+00 0. -1.
         22    1    1    0    0    0 -0.19671044955E+02  0.20816111204E+02 -0.71486536660E+01  0.29518870990E+02  0.00000000000E+00 0. -1.
</event>
<event>
 5    1  0.1766634E-003  0.9118800E+02  0.7818608E-02  0.1130116E+00
         25   -1    0    0    0    0  0.00000000000E+00  0.00000000000E+00  0.99999998245E-14  0.12500000000E+03  0.12500000000E+03 0.  0.
        -13    1    3    3    0    0  0.65476431303E+01  0.13896142897E+02 -0.35232552416E+02  0.38435898998E+02  0.10566000000E+00 0.  1.
         23    2    1    0    0    0  0.24351936896E+02  0.38574113005E+01  0.17350232561E+02  0.94851583417E+02  0.89932729606E+02 0.  0.
         13    1    3    3    0    0  0.17804293765E+02 -0.10038731597E+02  0.52582784977E+02  0.56415684420E+02  0.10566000000E+00 0. -1.
         22    1    1    0    0    0 -0.24351936896E+02 -0.38574113005E+01 -0.17350232561E+02  0.30148416583E+02  0.00000000000E+00 0. -1.
</event>
<event>
 5    1  0.1766634E-003  0.9118800E+02  0.7818608E-02  0.1130116E+00
         25   -1    0    0    0    0  0.00000000000E+00  0.00000000000E+00  0.99999998245E-14  0.12500000000E+03  0.12500000000E+03 0.  0.
        -13    1    3    3    0    0  0.61098585300E+01 -0.30287337648E+02  0.22819348644E+02  0.38410767106E+02  0.10566000000E+00 0. -1.
         23    2    1    0    0    0  0.86746976236E+01 -0.57194988304E+01 -0.28119106846E+02  0.95022554886E+02  0.90170054461E+02 0.  0.
         13    1    3    3    0    0  0.25648390936E+01  0.24567838818E+02 -0.50938455491E+02  0.56611787780E+02  0.10566000000E+00 0.  1.
         22    1    1    0    0    0 -0.86746976236E+01  0.57194988304E+01  0.28119106846E+02  0.29977445114E+02  0.00000000000E+00 0.  1.
</event>
<event>
 5    1  0.1766634E-003  0.9118800E+02  0.7818608E-02  0.1130116E+00
         25   -1    0    0    0    0  0.00000000000E+00  0.00000000000E+00  0.99999998245E-14  0.12500000000E+03  0.12500000000E+03 0.  0.
        -13    1    3    3    0    0  0.17001763114E+02  0.46033644494E+01 -0.29478868114E+02  0.34340438881E+02  0.10566000000E+00 0.  1.
         23    2    1    0    0    0 -0.47307212773E+01 -0.32505006690E+02  0.77841853971E+01  0.91242797421E+02  0.84768504500E+02 0.  0.
         13    1    3    3    0    0 -0.21732484391E+02 -0.37108371139E+02  0.37263053511E+02  0.56902358540E+02  0.10566000000E+00 0. -1.
         22    1    1    0    0    0  0.47307212773E+01  0.32505006690E+02 -0.77841853971E+01  0.33757202579E+02  0.00000000000E+00 0. -1.
</event>
<event>
 5    1  0.1766634E-003  0.9118800E+02  0.7818608E-02  0.1130116E+00
         25   -1    0    0    0    0  0.00000000000E+00  0.00000000000E+00  0.99999998245E-14  0.12500000000E+03  0.12500000000E+03 0.  0.
        -13    1    3    3    0    0  0.45210354343E+02  0.27024993280E+02  0.39812122117E+01  0.52822226537E+02  0.10566000000E+00 0. -1.
         23    2    1    0    0    0  0.26837175912E+02 -0.95781489603E+01 -0.78328153622E+01  0.95447877489E+02  0.90757751031E+02 0.  0.
         13    1    3    3    0    0 -0.18373178431E+02 -0.36603142241E+02 -0.11814027574E+02  0.42625650952E+02  0.10566000000E+00 0.  1.
         22    1    1    0    0    0 -0.26837175912E+02  0.95781489603E+01  0.78328153622E+01  0.29552122511E+02  0.00000000000E+00 0. -1.
</event>
<event>
 5    1  0.1766634E-003  0.9118800E+02  0.7818608E-02  0.1130116E+00
         25   -1    0    0    0    0  0.00000000000E+00  0.00000000000E+00  0.99999998245E-14  0.12500000000E+03  0.12500000000E+03 0.  0.
        -13    1    3    3    0    0  0.52238417083E+02  0.44685950727E+01  0.32313411964E+02  0.61587241520E+02  0.10566000000E+00 0. -1.
         23    2    1    0    0    0  0.21006239958E+02  0.83371253280E+01  0.17740437718E+02  0.96268607651E+02  0.91881183670E+02 0.  0.
         13    1    3    3    0    0 -0.31232177125E+02  0.38685302554E+01 -0.14572974246E+02  0.34681366131E+02  0.10566000000E+00 0.  1.
         22    1    1    0    0    0 -0.21006239958E+02 -0.83371253280E+01 -0.17740437718E+02  0.28731392349E+02  0.00000000000E+00 0. -1.
</event>
<event>
 5    1  0.1766634E-003  0.9118800E+02  0.7818608E-02  0.1130116E+00
         25   -1    0    0    0    0  0.00000000000E+00  0.00000000000E+00  0.99999998245E-14  0.12500000000E+03  0.12500000000E+03 0.  0.
        -13    1    3    3    0    0 -0.32111043665E+01  0.55299092467E+02  0.19744328051E+02  0.58806041128E+02  0.10566000000E+00 0.  1.
         23    2    1    0    0    0  0.60420234358E+01  0.18746470117E+02  0.20570009288E+02  0.96520859017E+02  0.92223721212E+02 0.  0.
         13    1    3    3    0    0  0.92531278023E+01 -0.36552622351E+02  0.82568123695E+00  0.37714817889E+02  0.10566000000E+00 0. -1.
         22    1    1    0    0    0 -0.60420234358E+01 -0.18746470117E+02 -0.20570009288E+02  0.28479140983E+02  0.00000000000E+00 0.  1.
</event>
<event>
 5    1  0.1766634E-003  0.9118800E+02  0.7818608E-02  0.1130116E+00
         25   -1    0    0    0    0  0.00000000000E+00  0.00000000000E+00  0.99999998245E-14  0.12500000000E+03  0.12500000000E+03 0.  0.
        -13    1    3    3    0    0  0.35152754833E+02 -0.46363407058E+02 -0.19848479929E+02  0.61475645633E+02  0.10566000000E+00 0.  1.
         23    2    1    0    0    0  0.14633147546E+02 -0.25820235543E+02 -0.26963669243E+01  0.95199262338E+02  0.90414686774E+02 0.  0.
         13    1    3    3    0    0 -0.20519607288E+02  0.20543171515E+02  0.17152113004E+02  0.33723616705E+02  0.10566000000E+00 0. -1.
         22    1    1    0    0    0 -0.14633147546E+02  0.25820235543E+02  0.26963669243E+01  0.29800737662E+02  0.00000000000E+00 0.  1.
</event>
<event>
 5    1  0.1766634E-003  0.9118800E+02  0.7818608E-02  0.1130116E+00
         25   -1    0    0    0    0  0.00000000000E+00  0.00000000000E+00  0.99999998245E-14  0.12500000000E+03  0.12500000000E+03 0.  0.
        -13    1    3    3    0    0 -0.15450010233E+01  0.18086543846E+02 -0.22082698864E+02  0.28586130371E+02  0.10566000000E+00 0.  1.
         23    2    1    0    0    0  0.28851876194E+02 -0.26312579613E+02 -0.24102425660E+01  0.85877220510E+02  0.76448055093E+02 0.  0.
         13    1    3    3    0    0  0.30396877217E+02 -0.44399123459E+02  0.19672456298E+02  0.57291090139E+02  0.10566000000E+00 0. -1.
         22    1    1    0    0    0 -0.28851876194E+02  0.26312579613E+02  0.24102425660E+01  0.39122779490E+02  0.00000000000E+00 0. -1.
</event>
<event>
 5    1  0.1766634E-003  0.9118800E+02  0.7818608E-02  0.1130116E+00
         25   -1    0    0    0    0  0.00000000000E+00  0.00000000000E+00  0.99999998245E-14  0.12500000000E+03  0.12500000000E+03 0.  0.
        -13    1    3    3    0    0  0.47033155931E+00  0.17782209549E+02 -0.30110621989E+02  0.34972688041E+02  0.10566000000E+00 0.  1.
         23    2    1    0    0    0 -0.18680672619E+02 -0.58665932965E+01  0.22143074977E+02  0.95441579612E+02  0.90749076595E+02 0.  0.
         13    1    3    3    0    0 -0.19151004179E+02 -0.23648802845E+02  0.52253696966E+02  0.60468891570E+02  0.10566000000E+00 0. -1.
         22    1    1    0    0    0  0.18680672619E+02  0.58665932965E+01 -0.22143074977E+02  0.29558420388E+02  0.00000000000E+00 0. -1.
</event>
<event>
 5    1  0.1766634E-003  0.9118800E+02  0.7818608E-02  0.1130116E+00
         25   -1    0    0    0    0  0.00000000000E+00  0.00000000000E+00  0.99999998245E-14  0.12500000000E+03  0.12500000000E+03 0.  0.
        -13    1    3    3    0    0 -0.30263006869E+02  0.13451482382E+02 -0.33585427092E+02  0.47167616434E+02  0.10566000000E+00 0. -1.
         23    2    1    0    0    0 -0.11440720256E+02  0.28004941557E+02  0.67563472278E+01  0.94002983056E+02  0.88745398551E+02 0.  0.
         13    1    3    3    0    0  0.18822286614E+02  0.14553459175E+02  0.40341774320E+02  0.46835366622E+02  0.10566000000E+00 0.  1.
         22    1    1    0    0    0  0.11440720256E+02 -0.28004941557E+02 -0.67563472278E+01  0.30997016944E+02  0.00000000000E+00 0. -1.
</event>
<event>
 5    1  0.1766634E-003  0.9118800E+02  0.7818608E-02  0.1130116E+00
         25   -1    0    0    0    0  0.00000000000E+00  0.00000000000E+00  0.99999998245E-14  0.12500000000E+03  0.12500000000E+03 0.  0.
        -13    1    3    3    0    0 -0.39569265667E+02 -0.12048915701E+02  0.21004501775E+02  0.46390768628E+02  0.10566000000E+00 0.  1.
         23    2    1    0    0    0 -0.91190669436E+01 -0.35688004157E+02  0.64007198636E+01  0.87613368200E+02  0.79235989613E+02 0.  0.
         13    1    3    3    0    0  0.30450198724E+02 -0.23639088456E+02 -0.14603781911E+02  0.41222599572E+02  0.10566000000E+00 0. -1.
         22    1    1    0    0    0  0.91190669436E+01  0.35688004157E+02 -0.64007198636E+01  0.37386631800E+02  0.00000000000E+00 0. -1.
</event>
<event>
 5    1  0.1766634E-003  0.9118800E+02  0.7818608E-02  0.1130116E+00
         25   -1    0    0    0    0  0.00000000000E+00  0.00000000000E+00  0.99999998245E-14  0.12500000000E+03  0.12500000000E+03 0.  0.
        -13    1    3    3    0    0  0.15289524943E+00 -0.33177088203E+02 -0.35262865455E+01  0.33364478408E+02  0.10566000000E+00 0. -1.
         23    2    1    0    0    0  0.32959051599E+02  0.57137557120E+01  0.16072408305E+02  0.87888433132E+02  0.79668740940E+02 0.  0.
         13    1    3    3    0    0  0.32806156350E+02  0.38890843915E+02  0.19598694851E+02  0.54523954724E+02  0.10566000000E+00 0.  1.
         22    1    1    0    0    0 -0.32959051599E+02 -0.57137557120E+01 -0.16072408305E+02  0.37111566868E+02  0.00000000000E+00 0. -1.
</event>
<event>
 5    1  0.1766634E-003  0.9118800E+02  0.7818608E-02  0.1130116E+00
         25   -1    0    0    0    0  0.00000000000E+00  0.00000000000E+00  0.99999998245E-14  0.12500000000E+03  0.12500000000E+03 0.  0.
        -13    1    3    3    0    0 -0.50716657610E+01  0.44377779110E+02  0.87240738329E+00  0.44675287699E+02  0.10566000000E+00 0.  1.
         23    2    1    0    0    0 -0.11577064007E+02  0.83598383008E+01 -0.29492618709E+02  0.92232182469E+02  0.86215112464E+02 0.  0.
         13    1    3    3    0    0 -0.65053982457E+01 -0.36017940809E+02 -0.30365026092E+02  0.47556894769E+02  0.10566000000E+00 0. -1.
         22    1    1    0    0    0  0.11577064007E+02 -0.83598383008E+01  0.29492618709E+02  0.32767817531E+02  0.00000000000E+00 0. -1.
</event>
<event>
 5    1  0.1766634E-003  0.9118800E+02  0.7818608E-02  0.1130116E+00
         25   -1    0    0    0    0  0.00000000000E+00  0.00000000000E+00  0.99999998245E-14  0.12500000000E+03  0.12500000000E+03 0.  0.
        -13    1    3    3    0    0  0.70292594724E+01  0.20293862494E+02  0.25497122876E+02  0.33337153187E+02  0.10566000000E+00 0. -1.
         23    2    1    0    0    0 -0.12742688497E+02  0.22521704444E+01 -0.28552875916E+02  0.93651712887E+02  0.88249239214E+02 0.  0.
         13    1    3    3    0    0 -0.19771947969E+02 -0.18041692049E+02 -0.54049998791E+02  0.60314559700E+02  0.10566000000E+00 0.  1.
         22    1    1    0    0    0  0.12742688497E+02 -0.22521704444E+01  0.28552875916E+02  0.31348287113E+02  0.00000000000E+00 0.  1.
</event>
<event>
 5    1  0.1766634E-003  0.9118800E+02  0.7818608E-02  0.1130116E+00
         25   -1    0    0    0    0  0.00000000000E+00  0.00000000000E+00  0.99999998245E-14  0.12500000000E+03  0.12500000000E+03 0.  0.
        -13    1    3    3    0    0 -0.34542114362E+01 -0.18009349678E+02  0.40976957661E+02  0.44893100535E+02  0.10566000000E+00 0.  1.
         23    2    1    0    0    0  0.28437648213E+02 -0.36653502643E+01  0.35603591545E+01  0.96106907647E+02  0.91660934490E+02 0.  0.
         13    1    3    3    0    0  0.31891859649E+02  0.14343999414E+02 -0.37416598506E+02  0.51213807112E+02  0.10566000000E+00 0. -1.
         22    1    1    0    0    0 -0.28437648213E+02  0.36653502643E+01 -0.35603591545E+01  0.28893092353E+02  0.00000000000E+00 0. -1.
</event>
<event>
 5    1  0.1766634E-003  0.9118800E+02  0.7818608E-02  0.1130116E+00
         25   -1    0    0    0    0  0.00000000000E+00  0.00000000000E+00  0.99999998245E-14  0.12500000000E+03  0.12500000000E+03 0.  0.
        -13    1    3    3    0    0  0.38960263379E+02  0.25974749172E+02 -0.22860956713E+02  0.52107813454E+02  0.10566000000E+00 0. -1.
         23    2    1    0    0    0  0.19752457407E+02  0.13311487588E+02  0.15316224593E+02  0.96681419329E+02  0.92441088442E+02 0.  0.
         13    1    3    3    0    0 -0.19207805972E+02 -0.12663261585E+02  0.38177181306E+02  0.44573605875E+02  0.10566000000E+00 0.  1.
         22    1    1    0    0    0 -0.19752457407E+02 -0.13311487588E+02 -0.15316224593E+02  0.28318580671E+02  0.00000000000E+00 0. -1.
</event>
<event>
 5    1  0.1766634E-003  0.9118800E+02  0.7818608E-02  0.1130116E+00
         25   -1    0    0    0    0  0.00000000000E+00  0.00000000000E+00  0.99999998245E-14  0.12500000000E+03  0.12500000000E+03 0.  0.
        -13    1    3    3    0    0  0.10432520958E+02 -0.21043496598E+02  0.56891842328E+02  0.61549647684E+02  0.10566000000E+00 0. -1.
         23    2    1    0    0    0 -0.17759736900E+01 -0.13203344546E+02  0.31574465591E+02  0.90730053004E+02  0.84009006963E+02 0.  0.
         13    1    3    3    0    0 -0.12208494648E+02  0.78401520518E+01 -0.25317376736E+02  0.29180405320E+02  0.10566000000E+00 0.  1.
         22    1    1    0    0    0  0.17759736900E+01  0.13203344546E+02 -0.31574465591E+02  0.34269946996E+02  0.00000000000E+00 0. -1.
</event>
<event>
 5    1  0.1766634E-003  0.9118800E+02  0.7818608E-02  0.1130116E+00
         25   -1    0    0    0    0  0.00000000000E+00  0.00000000000E+00  0.99999998245E-14  0.12500000000E+03  0.12500000000E+03 0.  0.
        -13    1    3    3    0    0 -0.56022112761E+02  0.12080558483E+02  0.34214579158E+00  0.57310952175E+02  0.10566000000E+00 0.  1.
         23    2    1    0    0    0 -0.24653459894E+02 -0.62943438003E+00  0.17012719453E+02  0.95039661291E+02  0.90193765431E+02 0.  0.
         13    1    3    3    0    0  0.31368652867E+02 -0.12709992863E+02  0.16670573661E+02  0.37728709115E+02  0.10566000000E+00 0. -1.
         22    1    1    0    0    0  0.24653459894E+02  0.62943438003E+00 -0.17012719453E+02  0.29960338709E+02  0.00000000000E+00 0.  1.
</event>
<event>
 5    1  0.1766634E-003  0.9118800E+02  0.7818608E-02  0.1130116E+00
         25   -1    0    0    0    0  0.00000000000E+00  0.00000000000E+00  0.99999998245E-14  0.12500000000E+03  0.12500000000E+03 0.  0.
        -13    1    3    3    0    0  0.32889291881E+02 -0.44819195064E+02 -0.96304089964E+01  0.56420047041E+02  0.10566000000E+00 0. -1.
         23    2    1    0    0    0  0.75360177778E+01 -0.17617504909E+02 -0.22201831905E+02  0.95672719473E+02  0.91066897764E+02 0.  0.
         13    1    3    3    0    0 -0.25353274103E+02  0.27201690156E+02 -0.12571422909E+02  0.39252672432E+02  0.10566000000E+00 0.  1.
         22    1    1    0    0    0 -0.75360177778E+01  0.17617504909E+02  0.22201831905E+02  0.29327280527E+02  0.00000000000E+00 0. -1.
</event>
<event>
 5    1  0.1766634E-003  0.9118800E+02  0.7818608E-02  0.1130116E+00
         25   -1    0    0    0    0  0.00000000000E+00  0.00000000000E+00  0.99999998245E-14  0.12500000000E+03  0.12500000000E+03 0.  0.
        -13    1    3    3    0    0  0.20516418441E+02  0.48560709273E+02 -0.19866425444E+02  0.56336062471E+02  0.10566000000E+00 0. -1.
         23    2    1    0    0    0 -0.46504634400E+01  0.30447512690E+02  0.17737760216E+01  0.94148353033E+02  0.88949919945E+02 0.  0.
         13    1    3    3    0    0 -0.25166881881E+02 -0.18113196583E+02  0.21640201465E+02  0.37812290563E+02  0.10566000000E+00 0.  1.
         22    1    1    0    0    0  0.46504634400E+01 -0.30447512690E+02 -0.17737760216E+01  0.30851646967E+02  0.00000000000E+00 0. -1.
</event>
<event>
 5    1  0.1766634E-003  0.9118800E+02  0.7818608E-02  0.1130116E+00
         25   -1    0    0    0    0  0.00000000000E+00  0.00000000000E+00  0.99999998245E-14  0.12500000000E+03  0.12500000000E+03 0.  0.
        -13    1    3    3    0    0  0.38987524451E+01 -0.22461324364E+02  0.48028336177E+02  0.53164307602E+02  0.10566000000E+00 0.  1.
         23    2    1    0    0    0 -0.20251664537E+02 -0.18085554316E+02  0.16108373478E+02  0.93429493391E+02  0.87933914662E+02 0.  0.
         13    1    3    3    0    0 -0.24150416982E+02  0.43757700480E+01 -0.31919962699E+02  0.40265185790E+02  0.10566000000E+00 0. -1.
         22    1    1    0    0    0  0.20251664537E+02  0.18085554316E+02 -0.16108373478E+02  0.31570506609E+02  0.00000000000E+00 0.  1.
</event>
<event>
 5    1  0.1766634E-003  0.9118800E+02  0.7818608E-02  0.1130116E+00
         25   -1    0    0    0    0  0.00000000000E+00  0.00000000000E+00  0.99999998245E-14  0.12500000000E+03  0.12500000000E+03 0.  0.
        -13    1    3    3    0    0  0.99535861249E+01 -0.59934078329E+02  0.55785773912E+01  0.61010649166E+02  0.10566000000E+00 0. -1.
         23    2    1    0    0    0 -0.33856019998E+01 -0.28318880674E+02  0.79067147474E+01  0.95403759671E+02  0.90696967522E+02 0.  0.
         13    1    3    3    0    0 -0.13339188125E+02  0.31615197655E+02  0.23281373562E+01  0.34393110505E+02  0.10566000000E+00 0.  1.
         22    1    1    0    0    0  0.33856019998E+01  0.28318880674E+02 -0.79067147474E+01  0.29596240329E+02  0.00000000000E+00 0. -1.
</event>
<event>
 5    1  0.1766634E-003  0.9118800E+02  0.7818608E-02  0.1130116E+00
         25   -1    0    0    0    0  0.00000000000E+00  0.00000000000E+00  0.99999998245E-14  0.12500000000E+03  0.12500000000E+03 0.  0.
        -13    1    3    3    0    0 -0.15251609603E+02 -0.27910143153E+02  0.11890426980E+02  0.33955575449E+02  0.10566000000E+00 0.  1.
         23    2    1    0    0    0  0.27296993917E+02  0.13874053135E+02  0.46530850139E+01  0.94027973468E+02  0.88780591162E+02 0.  0.
         13    1    3    3    0    0  0.42548603520E+02  0.41784196288E+02 -0.72373419663E+01  0.60072398019E+02  0.10566000000E+00 0. -1.
         22    1    1    0    0    0 -0.27296993917E+02 -0.13874053135E+02 -0.46530850139E+01  0.30972026532E+02  0.00000000000E+00 0. -1.
</event>
<event>
 5    1  0.1766634E-003  0.9118800E+02  0.7818608E-02  0.1130116E+00
         25   -1    0    0    0    0  0.00000000000E+00  0.00000000000E+00  0.99999998245E-14  0.12500000000E+03  0.12500000000E+03 0.  0.
        -13    1    3    3    0    0  0.47139684719E+02  0.11610131055E+02 -0.23042916791E+02  0.53739484523E+02  0.10566000000E+00 0. -1.
         23    2    1    0    0    0  0.52000906012E+01  0.79097164702E+01 -0.27346500900E+02  0.96061519246E+02  0.91599016432E+02 0.  0.
         13    1    3    3    0    0 -0.41939594118E+02 -0.37004145844E+01 -0.43035841091E+01  0.42322034723E+02  0.10566000000E+00 0.  1.
         22    1    1    0    0    0 -0.52000906012E+01 -0.79097164702E+01  0.27346500900E+02  0.28938480754E+02  0.00000000000E+00 0. -1.
</event>
<event>
 5    1  0.1766634E-003  0.9118800E+02  0.7818608E-02  0.1130116E+00
         25   -1    0    0    0    0  0.00000000000E+00  0.00000000000E+00  0.99999998245E-14  0.12500000000E+03  0.12500000000E+03 0.  0.
        -13    1    3    3    0    0  0.22580273772E+02 -0.22294457730E+02  0.29117879885E+02  0.43067083743E+02  0.10566000000E+00 0. -1.
         23    2    1    0    0    0  0.21898739513E+01 -0.20588993570E+02 -0.19960552652E+02  0.96240203993E+02  0.91842533710E+02 0.  0.
         13    1    3    3    0    0 -0.20390399821E+02  0.17054641600E+01 -0.49078432537E+02  0.53173120251E+02  0.10566000000E+00 0.  1.
         22    1    1    0    0    0 -0.21898739513E+01  0.20588993570E+02  0.19960552652E+02  0.28759796007E+02  0.00000000000E+00 0.  1.
</event>
<event>
 5    1  0.1766634E-003  0.9118800E+02  0.7818608E-02  0.1130116E+00
         25   -1    0    0    0    0  0.00000000000E+00  0.00000000000E+00  0.99999998245E-14  0.12500000000E+03  0.12500000000E+03 0.  0.
        -13    1    3    3    0    0  0.22483996915E+02  0.30220856036E+02  0.40133954183E+02  0.55041581547E+02  0.10566000000E+00 0.  1.
         23    2    1    0    0    0  0.27297311817E+02  0.20157964746E+02  0.65364339580E+01  0.90442631119E+02  0.83580247545E+02 0.  0.
         13    1    3    3    0    0  0.48133149014E+01 -0.10062891290E+02 -0.33597520225E+02  0.35401049571E+02  0.10566000000E+00 0. -1.
         22    1    1    0    0    0 -0.27297311817E+02 -0.20157964746E+02 -0.65364339580E+01  0.34557368881E+02  0.00000000000E+00 0.  1.
</event>
<event>
 5    1  0.1766634E-003  0.9118800E+02  0.7818608E-02  0.1130116E+00
         25   -1    0    0    0    0  0.00000000000E+00  0.00000000000E+00  0.99999998245E-14  0.12500000000E+03  0.12500000000E+03 0.  0.
        -13    1    3    3    0    0 -0.23180170279E+02 -0.48346038341E+02  0.26493378913E+02  0.59804431338E+02  0.10566000000E+00 0.  1.
         23    2    1    0    0    0 -0.48766222981E+00 -0.27666758714E+02  0.60925704014E+01  0.96666155109E+02  0.92420445667E+02 0.  0.
         13    1    3    3    0    0  0.22692508049E+02  0.20679279626E+02 -0.20400808511E+02  0.36861723771E+02  0.10566000000E+00 0. -1.
         22    1    1    0    0    0  0.48766222981E+00  0.27666758714E+02 -0.60925704014E+01  0.28333844891E+02  0.00000000000E+00 0.  1.
</event>
<event>
 5    1  0.1766634E-003  0.9118800E+02  0.7818608E-02  0.1130116E+00
         25   -1    0    0    0    0  0.00000000000E+00  0.00000000000E+00  0.99999998245E-14  0.12500000000E+03  0.12500000000E+03 0.  0.
        -13    1    3    3    0    0 -0.30206056423E+01  0.23944712041E+02 -0.22740236365E+02  0.33160259455E+02  0.10566000000E+00 0. -1.
         23    2    1    0    0    0  0.82030388304E+01 -0.21577388114E+02  0.18356102620E+02  0.95507288573E+02  0.90839540638E+02 0.  0.
         13    1    3    3    0    0  0.11223644473E+02 -0.45522100155E+02  0.41096338985E+02  0.62347029118E+02  0.10566000000E+00 0.  1.
         22    1    1    0    0    0 -0.82030388304E+01  0.21577388114E+02 -0.18356102620E+02  0.29492711427E+02  0.00000000000E+00 0.  1.
</event>
<event>
 5    1  0.1766634E-003  0.9118800E+02  0.7818608E-02  0.1130116E+00
         25   -1    0    0    0    0  0.00000000000E+00  0.00000000000E+00  0.99999998245E-14  0.12500000000E+03  0.12500000000E+03 0.  0.
        -13    1    3    3    0    0 -0.54424679973E+02 -0.13998874400E+02  0.12033420412E+02  0.57470241390E+02  0.10566000000E+00 0. -1.
         23    2    1    0    0    0 -0.22112552060E+02 -0.18730045845E+02 -0.68894318964E+01  0.95213361254E+02  0.90434176689E+02 0.  0.
         13    1    3    3    0    0  0.32312127913E+02 -0.47311714452E+01 -0.18922852308E+02  0.37743119863E+02  0.10566000000E+00 0.  1.
         22    1    1    0    0    0  0.22112552060E+02  0.18730045845E+02  0.68894318964E+01  0.29786638746E+02  0.00000000000E+00 0. -1.
</event>
<event>
 5    1  0.1766634E-003  0.9118800E+02  0.7818608E-02  0.1130116E+00
         25   -1    0    0    0    0  0.00000000000E+00  0.00000000000E+00  0.99999998245E-14  0.12500000000E+03  0.12500000000E+03 0.  0.
        -13    1    3    3    0    0 -0.30304330706E+02 -0.17880517265E+02 -0.11139077956E+02  0.36907391928E+02  0.10566000000E+00 0.  1.
         23    2    1    0    0    0 -0.16230352920E+02  0.23631528109E+02  0.19448114912E+02  0.90357502251E+02  0.83452834360E+02 0.  0.
         13    1    3    3    0    0  0.14073977786E+02  0.41512045374E+02  0.30587192868E+02  0.53450110322E+02  0.10566000000E+00 0. -1.
         22    1    1    0    0    0  0.16230352920E+02 -0.23631528109E+02 -0.19448114912E+02  0.34642497749E+02  0.00000000000E+00 0. -1.
</event>
<event>
 5    1  0.1766634E-003  0.9118800E+02  0.7818608E-02  0.1130116E+00
         25   -1    0    0    0    0  0.00000000000E+00  0.00000000000E+00  0.99999998245E-14  0.12500000000E+03  0.12500000000E+03 0.  0.
        -13    1    3    3    0    0 -0.33481086927E+01 -0.32038033135E+01  0.39812394350E+02  0.40081318534E+02  0.10566000000E+00 0. -1.
         23    2    1    0    0    0 -0.21600151804E+02 -0.21155988175E+02 -0.74755805894E+01  0.93854748375E+02  0.88536360293E+02 0.  0.
         13    1    3    3    0    0 -0.18252043112E+02 -0.17952184861E+02 -0.47287974939E+02  0.53773429842E+02  0.10566000000E+00 0.  1.
         22    1    1    0    0    0  0.21600151804E+02  0.21155988175E+02  0.74755805894E+01  0.31145251625E+02  0.00000000000E+00 0.  1.
</event>
<event>
 5    1  0.1766634E-003  0.9118800E+02  0.7818608E-02  0.1130116E+00
         25   -1    0    0    0    0  0.00000000000E+00  0.00000000000E+00  0.99999998245E-14  0.12500000000E+03  0.12500000000E+03 0.  0.
        -13    1    3    3    0    0 -0.49338833575E+02  0.94224717320E+00 -0.30891435177E+02  0.58219414800E+02  0.10566000000E+00 0.  1.
         23    2    1    0    0    0 -0.26962136001E+02 -0.78186952048E+01 -0.55368757765E+00  0.96921621444E+02  0.92765324130E+02 0.  0.
         13    1    3    3    0    0  0.22376697575E+02 -0.87609423780E+01  0.30337747599E+02  0.38702206644E+02  0.10566000000E+00 0. -1.
         22    1    1    0    0    0  0.26962136001E+02  0.78186952048E+01  0.55368757765E+00  0.28078378556E+02  0.00000000000E+00 0.  1.
</event>
<event>
 5    1  0.1766634E-003  0.9118800E+02  0.7818608E-02  0.1130116E+00
         25   -1    0    0    0    0  0.00000000000E+00  0.00000000000E+00  0.99999998245E-14  0.12500000000E+03  0.12500000000E+03 0.  0.
        -13    1    3    3    0    0  0.44892667167E+02  0.12577640271E+01 -0.50423516154E+01  0.45192587994E+02  0.10566000000E+00 0. -1.
         23    2    1    0    0    0  0.13318194063E+02  0.25401380777E+02 -0.22442542319E+02  0.88581980501E+02  0.80749582818E+02 0.  0.
         13    1    3    3    0    0 -0.31574473105E+02  0.24143616750E+02 -0.17400190703E+02  0.43389392507E+02  0.10566000000E+00 0.  1.
         22    1    1    0    0    0 -0.13318194063E+02 -0.25401380777E+02  0.22442542319E+02  0.36418019499E+02  0.00000000000E+00 0. -1.
</event>
<event>
 5    1  0.1766634E-003  0.9118800E+02  0.7818608E-02  0.1130116E+00
         25   -1    0    0    0    0  0.00000000000E+00  0.00000000000E+00  0.99999998245E-14  0.12500000000E+03  0.12500000000E+03 0.  0.
        -13    1    3    3    0    0 -0.33505190697E+02  0.74166047401E+01 -0.25437377773E+01  0.34410544829E+02  0.10566000000E+00 0.  1.
         23    2    1    0    0    0  0.80266254357E+01  0.37249545279E+02  0.65139421851E+01  0.86342700790E+02  0.77205409121E+02 0.  0.
         13    1    3    3    0    0  0.41531816132E+02  0.29832940539E+02  0.90576799624E+01  0.51932155962E+02  0.10566000000E+00 0. -1.
         22    1    1    0    0    0 -0.80266254357E+01 -0.37249545279E+02 -0.65139421851E+01  0.38657299210E+02  0.00000000000E+00 0. -1.
</event>
<event>
 5    1  0.1766634E-003  0.9118800E+02  0.7818608E-02  0.1130116E+00
         25   -1    0    0    0    0  0.00000000000E+00  0.00000000000E+00  0.99999998245E-14  0.12500000000E+03  0.12500000000E+03 0.  0.
        -13    1    3    3    0    0  0.28462486054E+02  0.47282873185E+02  0.37131796739E+01  0.55313489099E+02  0.10566000000E+00 0.  1.
         23    2    1    0    0    0  0.24173014443E+02  0.11159015578E+02 -0.13028502502E+02  0.95358810189E+02  0.90634996261E+02 0.  0.
         13    1    3    3    0    0 -0.42894716113E+01 -0.36123857607E+02 -0.16741682176E+02  0.40045321090E+02  0.10566000000E+00 0. -1.
         22    1    1    0    0    0 -0.24173014443E+02 -0.11159015578E+02  0.13028502502E+02  0.29641189811E+02  0.00000000000E+00 0.  1.
</event>
<event>
 5    1  0.1766634E-003  0.9118800E+02  0.7818608E-02  0.1130116E+00
         25   -1    0    0    0    0  0.00000000000E+00  0.00000000000E+00  0.99999998245E-14  0.12500000000E+03  0.12500000000E+03 0.  0.
        -13    1    3    3    0    0 -0.48607524063E+02  0.20164516584E+02 -0.29009797751E+02  0.60090587068E+02  0.10566000000E+00 0. -1.
         23    2    1    0    0    0 -0.15736376327E+02  0.10829099674E+02 -0.23519912121E+02  0.94700013105E+02  0.89721810483E+02 0.  0.
         13    1    3    3    0    0  0.32871147736E+02 -0.93354169100E+01  0.54898856297E+01  0.34609426038E+02  0.10566000000E+00 0.  1.
         22    1    1    0    0    0  0.15736376327E+02 -0.10829099674E+02  0.23519912121E+02  0.30299986895E+02  0.00000000000E+00 0. -1.
</event>
<event>
 5    1  0.1766634E-003  0.9118800E+02  0.7818608E-02  0.1130116E+00
         25   -1    0    0    0    0  0.00000000000E+00  0.00000000000E+00  0.99999998245E-14  0.12500000000E+03  0.12500000000E+03 0.  0.
        -13    1    3    3    0    0 -0.32619905394E+02 -0.39023201511E+02  0.58054444928E+01  0.51191628553E+02  0.10566000000E+00 0. -1.
         23    2    1    0    0    0 -0.21611108925E+02  0.20565845252E+01  0.19446238162E+02  0.95855090538E+02  0.91316880338E+02 0.  0.
         13    1    3    3    0    0  0.11008796470E+02  0.41079786037E+02  0.13640793669E+02  0.44663461985E+02  0.10566000000E+00 0.  1.
         22    1    1    0    0    0  0.21611108925E+02 -0.20565845252E+01 -0.19446238162E+02  0.29144909462E+02  0.00000000000E+00 0. -1.
</event>
<event>
 5    1  0.1766634E-003  0.9118800E+02  0.7818608E-02  0.1130116E+00
         25   -1    0    0    0    0  0.00000000000E+00  0.00000000000E+00  0.99999998245E-14  0.12500000000E+03  0.12500000000E+03 0.  0.
        -13    1    3    3    0    0 -0.32212491397E+02 -0.36479731500E+01 -0.38231939310E+02  0.50126287091E+02  0.10566000000E+00 0.  1.
         23    2    1    0    0    0 -0.18902430328E+02 -0.28505874365E+02 -0.11680487163E+02  0.88856943600E+02  0.81174108557E+02 0.  0.
         13    1    3    3    0    0  0.13310061069E+02 -0.24857901214E+02  0.26551452147E+02  0.38730656509E+02  0.10566000000E+00 0. -1.
         22    1    1    0    0    0  0.18902430328E+02  0.28505874365E+02  0.11680487163E+02  0.36143056400E+02  0.00000000000E+00 0.  1.
</event>
<event>
 5    1  0.1766634E-003  0.9118800E+02  0.7818608E-02  0.1130116E+00
         25   -1    0    0    0    0  0.00000000000E+00  0.00000000000E+00  0.99999998245E-14  0.12500000000E+03  0.12500000000E+03 0.  0.
        -13    1    3    3    0    0  0.32698703087E+02 -0.39750499813E+02  0.72137703731E+01  0.51974580960E+02  0.10566000000E+00 0.  1.
         23    2    1    0    0    0  0.60824183993E+01 -0.10815003398E+02  0.26480133112E+02  0.95756922841E+02  0.91182403512E+02 0.  0.
         13    1    3    3    0    0 -0.26616284687E+02  0.28935496415E+02  0.19266362739E+02  0.43782341881E+02  0.10566000000E+00 0. -1.
         22    1    1    0    0    0 -0.60824183993E+01  0.10815003398E+02 -0.26480133112E+02  0.29243077159E+02  0.00000000000E+00 0.  1.
</event>
<event>
 5    1  0.1766634E-003  0.9118800E+02  0.7818608E-02  0.1130116E+00
         25   -1    0    0    0    0  0.00000000000E+00  0.00000000000E+00  0.99999998245E-14  0.12500000000E+03  0.12500000000E+03 0.  0.
        -13    1    3    3    0    0 -0.18273036186E+02 -0.12162495866E+02 -0.33985718810E+02  0.40458255081E+02  0.10566000000E+00 0. -1.
         23    2    1    0    0    0 -0.23396904984E+02  0.55948569772E+01  0.17559338924E+02  0.95216649435E+02  0.90438721567E+02 0.  0.
         13    1    3    3    0    0 -0.51238687980E+01  0.17757352843E+02  0.51545057733E+02  0.54758394354E+02  0.10566000000E+00 0.  1.
         22    1    1    0    0    0  0.23396904984E+02 -0.55948569772E+01 -0.17559338924E+02  0.29783350565E+02  0.00000000000E+00 0. -1.
</event>
<event>
 5    1  0.1766634E-003  0.9118800E+02  0.7818608E-02  0.1130116E+00
         25   -1    0    0    0    0  0.00000000000E+00  0.00000000000E+00  0.99999998245E-14  0.12500000000E+03  0.12500000000E+03 0.  0.
        -13    1    3    3    0    0  0.24279910514E+02  0.38628288616E+02 -0.13804974918E+02  0.47668094492E+02  0.10566000000E+00 0. -1.
         23    2    1    0    0    0 -0.18511545641E+02  0.24289382413E+02 -0.16030521781E+01  0.94418613565E+02  0.89328905687E+02 0.  0.
         13    1    3    3    0    0 -0.42791456155E+02 -0.14338906203E+02  0.12201922740E+02  0.46750519073E+02  0.10566000000E+00 0.  1.
         22    1    1    0    0    0  0.18511545641E+02 -0.24289382413E+02  0.16030521781E+01  0.30581386435E+02  0.00000000000E+00 0. -1.
</event>
<event>
 5    1  0.1766634E-003  0.9118800E+02  0.7818608E-02  0.1130116E+00
         25   -1    0    0    0    0  0.00000000000E+00  0.00000000000E+00  0.99999998245E-14  0.12500000000E+03  0.12500000000E+03 0.  0.
        -13    1    3    3    0    0 -0.58727487723E+02  0.87923604972E+01  0.94934594739E+01  0.60136181739E+02  0.10566000000E+00 0.  1.
         23    2    1    0    0    0 -0.23520807561E+02  0.13106174744E+02  0.11628366986E+02  0.95670507617E+02  0.91063861680E+02 0.  0.
         13    1    3    3    0    0  0.35206680163E+02  0.43138142465E+01  0.21349075117E+01  0.35534325877E+02  0.10566000000E+00 0. -1.
         22    1    1    0    0    0  0.23520807561E+02 -0.13106174744E+02 -0.11628366986E+02  0.29329492383E+02  0.00000000000E+00 0.  1.
</event>
<event>
 5    1  0.1766634E-003  0.9118800E+02  0.7818608E-02  0.1130116E+00
         25   -1    0    0    0    0  0.00000000000E+00  0.00000000000E+00  0.99999998245E-14  0.12500000000E+03  0.12500000000E+03 0.  0.
        -13    1    3    3    0    0 -0.80190728940E+01  0.10992118171E+02 -0.58678327545E+02  0.60235284339E+02  0.10566000000E+00 0. -1.
         23    2    1    0    0    0  0.37560762198E+01 -0.40496513609E+01 -0.28632167981E+02  0.95839944650E+02  0.91296145387E+02 0.  0.
         13    1    3    3    0    0  0.11775149114E+02 -0.15041769532E+02  0.30046159564E+02  0.35604660311E+02  0.10566000000E+00 0.  1.
         22    1    1    0    0    0 -0.37560762198E+01  0.40496513609E+01  0.28632167981E+02  0.29160055350E+02  0.00000000000E+00 0. -1.
</event>
<event>
 5    1  0.1766634E-003  0.9118800E+02  0.7818608E-02  0.1130116E+00
         25   -1    0    0    0    0  0.00000000000E+00  0.00000000000E+00  0.99999998245E-14  0.12500000000E+03  0.12500000000E+03 0.  0.
        -13    1    3    3    0    0  0.20263221159E+02 -0.15268887574E+02  0.28768329295E+02  0.38358375799E+02  0.10566000000E+00 0. -1.
         23    2    1    0    0    0  0.14827228855E+02 -0.12537302385E+00 -0.25796274753E+02  0.95245836845E+02  0.90479053992E+02 0.  0.
         13    1    3    3    0    0 -0.54359923040E+01  0.15143514550E+02 -0.54564604048E+02  0.56887461046E+02  0.10566000000E+00 0.  1.
         22    1    1    0    0    0 -0.14827228855E+02  0.12537302385E+00  0.25796274753E+02  0.29754163155E+02  0.00000000000E+00 0.  1.
</event>
<event>
 5    1  0.1766634E-003  0.9118800E+02  0.7818608E-02  0.1130116E+00
         25   -1    0    0    0    0  0.00000000000E+00  0.00000000000E+00  0.99999998245E-14  0.12500000000E+03  0.12500000000E+03 0.  0.
        -13    1    3    3    0    0 -0.11732971532E+02  0.11002097727E+02 -0.59180945719E+02  0.61327842581E+02  0.10566000000E+00 0.  1.
         23    2    1    0    0    0 -0.12180401856E+02  0.98434234382E+01 -0.25209426526E+02  0.95322224475E+02  0.90584524720E+02 0.  0.
         13    1    3    3    0    0 -0.44743032386E+00 -0.11586742892E+01  0.33971519194E+02  0.33994381894E+02  0.10566000000E+00 0. -1.
         22    1    1    0    0    0  0.12180401856E+02 -0.98434234382E+01  0.25209426526E+02  0.29677775525E+02  0.00000000000E+00 0.  1.
</event>
<event>
 5    1  0.1766634E-003  0.9118800E+02  0.7818608E-02  0.1130116E+00
         25   -1    0    0    0    0  0.00000000000E+00  0.00000000000E+00  0.99999998245E-14  0.12500000000E+03  0.12500000000E+03 0.  0.
        -13    1    3    3    0    0  0.31996240741E+01  0.34549564803E+02 -0.29480079430E+02  0.45530168784E+02  0.10566000000E+00 0. -1.
         23    2    1    0    0    0 -0.22505575226E+02  0.14428913622E+02  0.97304131594E+01  0.96550476194E+02  0.92263855590E+02 0.  0.
         13    1    3    3    0    0 -0.25705199300E+02 -0.20120651181E+02  0.39210492589E+02  0.51020307409E+02  0.10566000000E+00 0.  1.
         22    1    1    0    0    0  0.22505575226E+02 -0.14428913622E+02 -0.97304131594E+01  0.28449523806E+02  0.00000000000E+00 0. -1.
</event>
<event>
 5    1  0.1766634E-003  0.9118800E+02  0.7818608E-02  0.1130116E+00
         25   -1    0    0    0    0  0.00000000000E+00  0.00000000000E+00  0.99999998245E-14  0.12500000000E+03  0.12500000000E+03 0.  0.
        -13    1    3    3    0    0 -0.33104123378E+02 -0.32763579388E+01 -0.41087196222E+02  0.52865739032E+02  0.10566000000E+00 0.  1.
         23    2    1    0    0    0 -0.66376125640E+01 -0.24379871534E+02 -0.14866251390E+02  0.95683767859E+02  0.91082061707E+02 0.  0.
         13    1    3    3    0    0  0.26466510814E+02 -0.21103513595E+02  0.26220944832E+02  0.42818028827E+02  0.10566000000E+00 0. -1.
         22    1    1    0    0    0  0.66376125640E+01  0.24379871534E+02  0.14866251390E+02  0.29316232141E+02  0.00000000000E+00 0.  1.
</event>
<event>
 5    1  0.1766634E-003  0.9118800E+02  0.7818608E-02  0.1130116E+00
         25   -1    0    0    0    0  0.00000000000E+00  0.00000000000E+00  0.99999998245E-14  0.12500000000E+03  0.12500000000E+03 0.  0.
        -13    1    3    3    0    0  0.25371828753E+02  0.14838332568E+02 -0.15973140736E+02  0.33452327223E+02  0.10566000000E+00 0.  1.
         23    2    1    0    0    0  0.26035323158E+02 -0.91034022664E+01  0.29355861967E+02  0.84720022137E+02  0.74531909504E+02 0.  0.
         13    1    3    3    0    0  0.66349440522E+00 -0.23941734835E+02  0.45329002703E+02  0.51267694914E+02  0.10566000000E+00 0. -1.
         22    1    1    0    0    0 -0.26035323158E+02  0.91034022664E+01 -0.29355861967E+02  0.40279977863E+02  0.00000000000E+00 0. -1.
</event>
<event>
 5    1  0.1766634E-003  0.9118800E+02  0.7818608E-02  0.1130116E+00
         25   -1    0    0    0    0  0.00000000000E+00  0.00000000000E+00  0.99999998245E-14  0.12500000000E+03  0.12500000000E+03 0.  0.
        -13    1    3    3    0    0  0.21922092594E+02  0.29301346310E+02  0.26200927269E+02  0.45007186016E+02  0.10566000000E+00 0.  1.
         23    2    1    0    0    0 -0.13753580163E+02  0.23832916780E+02 -0.96123984388E+01  0.95852665761E+02  0.91313561097E+02 0.  0.
         13    1    3    3    0    0 -0.35675672757E+02 -0.54684295304E+01 -0.35813325708E+02  0.50845479745E+02  0.10566000000E+00 0. -1.
         22    1    1    0    0    0  0.13753580163E+02 -0.23832916780E+02  0.96123984388E+01  0.29147334239E+02  0.00000000000E+00 0. -1.
</event>
<event>
 5    1  0.1766634E-003  0.9118800E+02  0.7818608E-02  0.1130116E+00
         25   -1    0    0    0    0  0.00000000000E+00  0.00000000000E+00  0.99999998245E-14  0.12500000000E+03  0.12500000000E+03 0.  0.
        -13    1    3    3    0    0 -0.16887056938E+02  0.20504251133E+02 -0.24396795543E+02  0.36066768684E+02  0.10566000000E+00 0. -1.
         23    2    1    0    0    0  0.30865158142E+02  0.74301969644E+00  0.19296126531E+01  0.94065658721E+02  0.88833634847E+02 0.  0.
         13    1    3    3    0    0  0.47752215080E+02 -0.19761231436E+02  0.26326408196E+02  0.57998890036E+02  0.10566000000E+00 0.  1.
         22    1    1    0    0    0 -0.30865158142E+02 -0.74301969644E+00 -0.19296126531E+01  0.30934341279E+02  0.00000000000E+00 0.  1.
</event>
<event>
 5    1  0.1766634E-003  0.9118800E+02  0.7818608E-02  0.1130116E+00
         25   -1    0    0    0    0  0.00000000000E+00  0.00000000000E+00  0.99999998245E-14  0.12500000000E+03  0.12500000000E+03 0.  0.
        -13    1    3    3    0    0  0.31829282771E+02 -0.92911834215E+00 -0.11590970060E+02  0.33886992395E+02  0.10566000000E+00 0. -1.
         23    2    1    0    0    0 -0.23480224925E+00 -0.35172443890E+02  0.13784489598E+02  0.87222121622E+02  0.78616349479E+02 0.  0.
         13    1    3    3    0    0 -0.32064085020E+02 -0.34243325548E+02  0.25375459658E+02  0.53335129227E+02  0.10566000000E+00 0.  1.
         22    1    1    0    0    0  0.23480224925E+00  0.35172443890E+02 -0.13784489598E+02  0.37777878378E+02  0.00000000000E+00 0.  1.
</event>
<event>
 5    1  0.1766634E-003  0.9118800E+02  0.7818608E-02  0.1130116E+00
         25   -1    0    0    0    0  0.00000000000E+00  0.00000000000E+00  0.99999998245E-14  0.12500000000E+03  0.12500000000E+03 0.  0.
        -13    1    3    3    0    0  0.55337552884E+02 -0.16236962727E+02 -0.90437296469E+01  0.58375370900E+02  0.10566000000E+00 0. -1.
         23    2    1    0    0    0  0.26285497908E+02  0.44153843511E+01 -0.14847862596E+02  0.94489640400E+02  0.89428239947E+02 0.  0.
         13    1    3    3    0    0 -0.29052054976E+02  0.20652347078E+02 -0.58041329494E+01  0.36114269499E+02  0.10566000000E+00 0.  1.
         22    1    1    0    0    0 -0.26285497908E+02 -0.44153843511E+01  0.14847862596E+02  0.30510359600E+02  0.00000000000E+00 0. -1.
</event>
<event>
 5    1  0.1766634E-003  0.9118800E+02  0.7818608E-02  0.1130116E+00
         25   -1    0    0    0    0  0.00000000000E+00  0.00000000000E+00  0.99999998245E-14  0.12500000000E+03  0.12500000000E+03 0.  0.
        -13    1    3    3    0    0  0.12514089990E+02  0.35604391229E+02 -0.31298205046E+02  0.49029215027E+02  0.10566000000E+00 0. -1.
         23    2    1    0    0    0 -0.10310545251E+02  0.26704194883E+02  0.79455812134E+01  0.95292195831E+02  0.90543077912E+02 0.  0.
         13    1    3    3    0    0 -0.22824635241E+02 -0.89001963461E+01  0.39243786260E+02  0.46262980804E+02  0.10566000000E+00 0.  1.
         22    1    1    0    0    0  0.10310545251E+02 -0.26704194883E+02 -0.79455812134E+01  0.29707804169E+02  0.00000000000E+00 0. -1.
</event>
<event>
 5    1  0.1766634E-003  0.9118800E+02  0.7818608E-02  0.1130116E+00
         25   -1    0    0    0    0  0.00000000000E+00  0.00000000000E+00  0.99999998245E-14  0.12500000000E+03  0.12500000000E+03 0.  0.
        -13    1    3    3    0    0  0.27615918999E+02 -0.14379611488E+02  0.13064635263E+02  0.33765486333E+02  0.10566000000E+00 0. -1.
         23    2    1    0    0    0 -0.12163689563E+02  0.21835780667E+02 -0.16402983243E+02  0.95103269068E+02  0.90281876736E+02 0.  0.
         13    1    3    3    0    0 -0.39779608563E+02  0.36215392155E+02 -0.29467618507E+02  0.61337782735E+02  0.10566000000E+00 0.  1.
         22    1    1    0    0    0  0.12163689563E+02 -0.21835780667E+02  0.16402983243E+02  0.29896730932E+02  0.00000000000E+00 0.  1.
</event>
<event>
 5    1  0.1766634E-003  0.9118800E+02  0.7818608E-02  0.1130116E+00
         25   -1    0    0    0    0  0.00000000000E+00  0.00000000000E+00  0.99999998245E-14  0.12500000000E+03  0.12500000000E+03 0.  0.
        -13    1    3    3    0    0 -0.25069935009E+01 -0.17816193260E+02 -0.52702091819E+02  0.55688629045E+02  0.10566000000E+00 0. -1.
         23    2    1    0    0    0  0.19137035300E+02 -0.48139366299E+01 -0.21775837168E+02  0.95613145961E+02  0.90985089384E+02 0.  0.
         13    1    3    3    0    0  0.21644028801E+02  0.13002256630E+02  0.30926254651E+02  0.39924516916E+02  0.10566000000E+00 0.  1.
         22    1    1    0    0    0 -0.19137035300E+02  0.48139366299E+01  0.21775837168E+02  0.29386854039E+02  0.00000000000E+00 0.  1.
</event>
<event>
 5    1  0.1766634E-003  0.9118800E+02  0.7818608E-02  0.1130116E+00
         25   -1    0    0    0    0  0.00000000000E+00  0.00000000000E+00  0.99999998245E-14  0.12500000000E+03  0.12500000000E+03 0.  0.
        -13    1    3    3    0    0  0.16470745821E+02  0.27172980945E+02 -0.50635711087E+02  0.59779952850E+02  0.10566000000E+00 0.  1.
         23    2    1    0    0    0  0.14835697544E+02  0.20175769948E+02 -0.15710533346E+02  0.95436839265E+02  0.90742546892E+02 0.  0.
         13    1    3    3    0    0 -0.16350482779E+01 -0.69972109970E+01  0.34925177741E+02  0.35656886416E+02  0.10566000000E+00 0. -1.
         22    1    1    0    0    0 -0.14835697544E+02 -0.20175769948E+02  0.15710533346E+02  0.29563160735E+02  0.00000000000E+00 0.  1.
</event>
<event>
 5    1  0.1766634E-003  0.9118800E+02  0.7818608E-02  0.1130116E+00
         25   -1    0    0    0    0  0.00000000000E+00  0.00000000000E+00  0.99999998245E-14  0.12500000000E+03  0.12500000000E+03 0.  0.
        -13    1    3    3    0    0 -0.81049003542E+00  0.60481234320E+02 -0.12330993678E+02  0.61730876943E+02  0.10566000000E+00 0. -1.
         23    2    1    0    0    0  0.53772515534E+01  0.27069094011E+02 -0.94318651668E+01  0.95834767867E+02  0.91289057212E+02 0.  0.
         13    1    3    3    0    0  0.61877415889E+01 -0.33412140309E+02  0.28991285109E+01  0.34103890924E+02  0.10566000000E+00 0.  1.
         22    1    1    0    0    0 -0.53772515534E+01 -0.27069094011E+02  0.94318651668E+01  0.29165232133E+02  0.00000000000E+00 0. -1.
</event>
<event>
 5    1  0.1766634E-003  0.9118800E+02  0.7818608E-02  0.1130116E+00
         25   -1    0    0    0    0  0.00000000000E+00  0.00000000000E+00  0.99999998245E-14  0.12500000000E+03  0.12500000000E+03 0.  0.
        -13    1    3    3    0    0 -0.29476946416E+02  0.11606541011E+02  0.20269635810E+02  0.37609459770E+02  0.10566000000E+00 0.  1.
         23    2    1    0    0    0  0.24723786778E+02 -0.96070318096E+01  0.96484334492E+01  0.96774958621E+02  0.92567487031E+02 0.  0.
         13    1    3    3    0    0  0.54200733194E+02 -0.21213572821E+02 -0.10621202361E+02  0.59165498851E+02  0.10566000000E+00 0. -1.
         22    1    1    0    0    0 -0.24723786778E+02  0.96070318096E+01 -0.96484334492E+01  0.28225041379E+02  0.00000000000E+00 0. -1.
</event>
<event>
 5    1  0.1766634E-003  0.9118800E+02  0.7818608E-02  0.1130116E+00
         25   -1    0    0    0    0  0.00000000000E+00  0.00000000000E+00  0.99999998245E-14  0.12500000000E+03  0.12500000000E+03 0.  0.
        -13    1    3    3    0    0  0.51132970161E+02  0.44066781875E+01 -0.28911272576E+02  0.58905621940E+02  0.10566000000E+00 0.  1.
         23    2    1    0    0    0  0.14088470561E+02  0.19693219766E+01 -0.25000316228E+02  0.96235802752E+02  0.91836543315E+02 0.  0.
         13    1    3    3    0    0 -0.37044499600E+02 -0.24373562109E+01  0.39109563482E+01  0.37330180812E+02  0.10566000000E+00 0. -1.
         22    1    1    0    0    0 -0.14088470561E+02 -0.19693219766E+01  0.25000316228E+02  0.28764197248E+02  0.00000000000E+00 0.  1.
</event>
<event>
 5    1  0.1766634E-003  0.9118800E+02  0.7818608E-02  0.1130116E+00
         25   -1    0    0    0    0  0.00000000000E+00  0.00000000000E+00  0.99999998245E-14  0.12500000000E+03  0.12500000000E+03 0.  0.
        -13    1    3    3    0    0  0.16217680486E+02 -0.59561135047E+01  0.28521500549E+02  0.33346298235E+02  0.10566000000E+00 0. -1.
         23    2    1    0    0    0 -0.97339586028E+01 -0.12905996088E+02 -0.26146857822E+02  0.94259589152E+02  0.89106101295E+02 0.  0.
         13    1    3    3    0    0 -0.25951639089E+02 -0.69498825833E+01 -0.54668358371E+02  0.60913290917E+02  0.10566000000E+00 0.  1.
         22    1    1    0    0    0  0.97339586028E+01  0.12905996088E+02  0.26146857822E+02  0.30740410848E+02  0.00000000000E+00 0.  1.
</event>
<event>
 5    1  0.1766634E-003  0.9118800E+02  0.7818608E-02  0.1130116E+00
         25   -1    0    0    0    0  0.00000000000E+00  0.00000000000E+00  0.99999998245E-14  0.12500000000E+03  0.12500000000E+03 0.  0.
        -13    1    3    3    0    0  0.40192068486E+02 -0.21507860034E+02 -0.12248753178E+02  0.47202050071E+02  0.10566000000E+00 0.  1.
         23    2    1    0    0    0  0.35012734565E+01  0.70890492113E+01 -0.27679466402E+02  0.96213433778E+02  0.91806091544E+02 0.  0.
         13    1    3    3    0    0 -0.36690795030E+02  0.28596909245E+02 -0.15430713224E+02  0.49011383707E+02  0.10566000000E+00 0. -1.
         22    1    1    0    0    0 -0.35012734565E+01 -0.70890492113E+01  0.27679466402E+02  0.28786566222E+02  0.00000000000E+00 0.  1.
</event>
<event>
 5    1  0.1766634E-003  0.9118800E+02  0.7818608E-02  0.1130116E+00
         25   -1    0    0    0    0  0.00000000000E+00  0.00000000000E+00  0.99999998245E-14  0.12500000000E+03  0.12500000000E+03 0.  0.
        -13    1    3    3    0    0 -0.37876512159E+02 -0.34554300675E+02  0.62479138998E+01  0.51649563992E+02  0.10566000000E+00 0. -1.
         23    2    1    0    0    0 -0.28385390137E+02  0.79476131004E+01  0.10900503309E+01  0.95502828323E+02  0.90833402891E+02 0.  0.
         13    1    3    3    0    0  0.94911220222E+01  0.42501913776E+02 -0.51578635690E+01  0.43853264331E+02  0.10566000000E+00 0.  1.
         22    1    1    0    0    0  0.28385390137E+02 -0.79476131004E+01 -0.10900503309E+01  0.29497171677E+02  0.00000000000E+00 0.  1.
</event>
<event>
 5    1  0.1766634E-003  0.9118800E+02  0.7818608E-02  0.1130116E+00
         25   -1    0    0    0    0  0.00000000000E+00  0.00000000000E+00  0.99999998245E-14  0.12500000000E+03  0.12500000000E+03 0.  0.
        -13    1    3    3    0    0 -0.34165616031E+02 -0.29023849560E+02  0.89927743692E+01  0.45722579947E+02  0.10566000000E+00 0.  1.
         23    2    1    0    0    0  0.48438841452E+00 -0.16199465211E+02 -0.24522353289E+02  0.95606070081E+02  0.90975367657E+02 0.  0.
         13    1    3    3    0    0  0.34650004446E+02  0.12824384349E+02 -0.33515127658E+02  0.49883490134E+02  0.10566000000E+00 0. -1.
         22    1    1    0    0    0 -0.48438841452E+00  0.16199465211E+02  0.24522353289E+02  0.29393929919E+02  0.00000000000E+00 0. -1.
</event>
<event>
 5    1  0.1766634E-003  0.9118800E+02  0.7818608E-02  0.1130116E+00
         25   -1    0    0    0    0  0.00000000000E+00  0.00000000000E+00  0.99999998245E-14  0.12500000000E+03  0.12500000000E+03 0.  0.
        -13    1    3    3    0    0  0.31576123379E+02  0.36609771802E+02  0.11090198255E+01  0.48358743243E+02  0.10566000000E+00 0.  1.
         23    2    1    0    0    0 -0.69082696472E+01  0.17610488145E+02  0.21910648146E+02  0.96052979697E+02  0.91587362252E+02 0.  0.
         13    1    3    3    0    0 -0.38484393026E+02 -0.18999283657E+02  0.20801628321E+02  0.47694236454E+02  0.10566000000E+00 0. -1.
         22    1    1    0    0    0  0.69082696472E+01 -0.17610488145E+02 -0.21910648146E+02  0.28947020303E+02  0.00000000000E+00 0. -1.
</event>
<event>
 5    1  0.1766634E-003  0.9118800E+02  0.7818608E-02  0.1130116E+00
         25   -1    0    0    0    0  0.00000000000E+00  0.00000000000E+00  0.99999998245E-14  0.12500000000E+03  0.12500000000E+03 0.  0.
        -13    1    3    3    0    0  0.17569873057E+02  0.21904522626E+02  0.29119060643E+02  0.40452928293E+02  0.10566000000E+00 0.  1.
         23    2    1    0    0    0  0.20638557507E+02  0.27434930422E+01 -0.21746075056E+02  0.94894043938E+02  0.89991727312E+02 0.  0.
         13    1    3    3    0    0  0.30686844504E+01 -0.19161029584E+02 -0.50865135699E+02  0.54441115645E+02  0.10566000000E+00 0. -1.
         22    1    1    0    0    0 -0.20638557507E+02 -0.27434930422E+01  0.21746075056E+02  0.30105956062E+02  0.00000000000E+00 0. -1.
</event>
<event>
 5    1  0.1766634E-003  0.9118800E+02  0.7818608E-02  0.1130116E+00
         25   -1    0    0    0    0  0.00000000000E+00  0.00000000000E+00  0.99999998245E-14  0.12500000000E+03  0.12500000000E+03 0.  0.
        -13    1    3    3    0    0 -0.44643748797E+02  0.31192811511E+02 -0.18622448824E+02  0.57557471807E+02  0.10566000000E+00 0.  1.
         23    2    1    0    0    0 -0.20621023028E+02  0.32359580546E+01 -0.22123515740E+02  0.94583754934E+02  0.89559693688E+02 0.  0.
         13    1    3    3    0    0  0.24022725769E+02 -0.27956853457E+02 -0.35010669162E+01  0.37026283127E+02  0.10566000000E+00 0. -1.
         22    1    1    0    0    0  0.20621023028E+02 -0.32359580546E+01  0.22123515740E+02  0.30416245066E+02  0.00000000000E+00 0.  1.
</event>
<event>
 5    1  0.1766634E-003  0.9118800E+02  0.7818608E-02  0.1130116E+00
         25   -1    0    0    0    0  0.00000000000E+00  0.00000000000E+00  0.99999998245E-14  0.12500000000E+03  0.12500000000E+03 0.  0.
        -13    1    3    3    0    0  0.15264956506E+02  0.16269025665E+02  0.12439523225E+02  0.25543159463E+02  0.10566000000E+00 0.  1.
         23    2    1    0    0    0 -0.23019397726E+02 -0.11610520051E+02  0.37783807589E+02  0.79258192390E+02  0.64726718574E+02 0.  0.
         13    1    3    3    0    0 -0.38284354233E+02 -0.27879545717E+02  0.25344284364E+02  0.53715032927E+02  0.10566000000E+00 0. -1.
         22    1    1    0    0    0  0.23019397726E+02  0.11610520051E+02 -0.37783807589E+02  0.45741807610E+02  0.00000000000E+00 0. -1.
</event>
<event>
 5    1  0.1766634E-003  0.9118800E+02  0.7818608E-02  0.1130116E+00
         25   -1    0    0    0    0  0.00000000000E+00  0.00000000000E+00  0.99999998245E-14  0.12500000000E+03  0.12500000000E+03 0.  0.
        -13    1    3    3    0    0 -0.28457922984E+02  0.10022944825E+01  0.90875487268E+00  0.28490261042E+02  0.10566000000E+00 0. -1.
         23    2    1    0    0    0  0.13891920474E+02  0.34470426042E+02  0.15999144546E+02  0.84538062921E+02  0.74226112186E+02 0.  0.
         13    1    3    3    0    0  0.42349843458E+02  0.33468131560E+02  0.15090389673E+02  0.56047801879E+02  0.10566000000E+00 0.  1.
         22    1    1    0    0    0 -0.13891920474E+02 -0.34470426042E+02 -0.15999144546E+02  0.40461937079E+02  0.00000000000E+00 0.  1.
</event>
<event>
 5    1  0.1766634E-003  0.9118800E+02  0.7818608E-02  0.1130116E+00
         25   -1    0    0    0    0  0.00000000000E+00  0.00000000000E+00  0.99999998245E-14  0.12500000000E+03  0.12500000000E+03 0.  0.
        -13    1    3    3    0    0  0.70190426187E+01 -0.21815718686E+02 -0.23118004252E+02  0.32552201550E+02  0.10566000000E+00 0.  1.
         23    2    1    0    0    0 -0.10664246326E+02  0.33800576480E+01  0.29465101123E+02  0.93482653608E+02  0.88009450640E+02 0.  0.
         13    1    3    3    0    0 -0.17683288944E+02  0.25195776334E+02  0.52583105376E+02  0.60930452058E+02  0.10566000000E+00 0. -1.
         22    1    1    0    0    0  0.10664246326E+02 -0.33800576480E+01 -0.29465101123E+02  0.31517346392E+02  0.00000000000E+00 0. -1.
</event>
<event>
 5    1  0.1766634E-003  0.9118800E+02  0.7818608E-02  0.1130116E+00
         25   -1    0    0    0    0  0.00000000000E+00  0.00000000000E+00  0.99999998245E-14  0.12500000000E+03  0.12500000000E+03 0.  0.
        -13    1    3    3    0    0 -0.26807069829E+02 -0.27396477793E+02 -0.16957744158E+02  0.41913747616E+02  0.10566000000E+00 0.  1.
         23    2    1    0    0    0 -0.14963657956E+02  0.13074792800E+02  0.19130616270E+02  0.97416640069E+02  0.93429973869E+02 0.  0.
         13    1    3    3    0    0  0.11843411872E+02  0.40471270593E+02  0.36088360428E+02  0.55502892453E+02  0.10566000000E+00 0. -1.
         22    1    1    0    0    0  0.14963657956E+02 -0.13074792800E+02 -0.19130616270E+02  0.27583359931E+02  0.00000000000E+00 0. -1.
</event>
<event>
 5    1  0.1766634E-003  0.9118800E+02  0.7818608E-02  0.1130116E+00
         25   -1    0    0    0    0  0.00000000000E+00  0.00000000000E+00  0.99999998245E-14  0.12500000000E+03  0.12500000000E+03 0.  0.
        -13    1    3    3    0    0 -0.23616963026E+02  0.13240163456E+02  0.29722507375E+02  0.40205739386E+02  0.10566000000E+00 0.  1.
         23    2    1    0    0    0 -0.18831616140E+02 -0.13862291505E+02 -0.18132082824E+02  0.95410046980E+02  0.90705632377E+02 0.  0.
         13    1    3    3    0    0  0.47853468863E+01 -0.27102454962E+02 -0.47854590198E+02  0.55204307593E+02  0.10566000000E+00 0. -1.
         22    1    1    0    0    0  0.18831616140E+02  0.13862291505E+02  0.18132082824E+02  0.29589953020E+02  0.00000000000E+00 0. -1.
</event>
<event>
 5    1  0.1766634E-003  0.9118800E+02  0.7818608E-02  0.1130116E+00
         25   -1    0    0    0    0  0.00000000000E+00  0.00000000000E+00  0.99999998245E-14  0.12500000000E+03  0.12500000000E+03 0.  0.
        -13    1    3    3    0    0  0.17642440673E+02 -0.21847907744E+02  0.20072005383E+02  0.34517870007E+02  0.10566000000E+00 0.  1.
         23    2    1    0    0    0  0.34824407167E+02  0.13550330156E+01 -0.20690775592E+02  0.84469966154E+02  0.74111345544E+02 0.  0.
         13    1    3    3    0    0  0.17181966494E+02  0.23202940760E+02 -0.40762780976E+02  0.49952096146E+02  0.10566000000E+00 0. -1.
         22    1    1    0    0    0 -0.34824407167E+02 -0.13550330156E+01  0.20690775592E+02  0.40530033846E+02  0.00000000000E+00 0. -1.
</event>
<event>
 5    1  0.1766634E-003  0.9118800E+02  0.7818608E-02  0.1130116E+00
         25   -1    0    0    0    0  0.00000000000E+00  0.00000000000E+00  0.99999998245E-14  0.12500000000E+03  0.12500000000E+03 0.  0.
        -13    1    3    3    0    0 -0.13244403308E+02  0.42000497256E+02  0.23408858823E+02  0.49874260137E+02  0.10566000000E+00 0. -1.
         23    2    1    0    0    0 -0.86818902552E+01 -0.34210930095E+01  0.27742830855E+02  0.95729814492E+02  0.91145233683E+02 0.  0.
         13    1    3    3    0    0  0.45625130531E+01 -0.45421590266E+02  0.43339720328E+01  0.45855554356E+02  0.10566000000E+00 0.  1.
         22    1    1    0    0    0  0.86818902552E+01  0.34210930095E+01 -0.27742830855E+02  0.29270185508E+02  0.00000000000E+00 0. -1.
</event>
<event>
 5    1  0.1766634E-003  0.9118800E+02  0.7818608E-02  0.1130116E+00
         25   -1    0    0    0    0  0.00000000000E+00  0.00000000000E+00  0.99999998245E-14  0.12500000000E+03  0.12500000000E+03 0.  0.
        -13    1    3    3    0    0 -0.14854552206E+02  0.15082989047E+02  0.41290846515E+02  0.46401502668E+02  0.10566000000E+00 0.  1.
         23    2    1    0    0    0 -0.78534712497E+00  0.24752531747E+02 -0.83256930580E+01  0.98872968732E+02  0.95358492977E+02 0.  0.
         13    1    3    3    0    0  0.14069205081E+02  0.96695426999E+01 -0.49616539573E+02  0.52471466064E+02  0.10566000000E+00 0. -1.
         22    1    1    0    0    0  0.78534712497E+00 -0.24752531747E+02  0.83256930580E+01  0.26127031268E+02  0.00000000000E+00 0. -1.
</event>
<event>
 5    1  0.1766634E-003  0.9118800E+02  0.7818608E-02  0.1130116E+00
         25   -1    0    0    0    0  0.00000000000E+00  0.00000000000E+00  0.99999998245E-14  0.12500000000E+03  0.12500000000E+03 0.  0.
        -13    1    3    3    0    0 -0.14538262790E+02  0.43845348505E+02 -0.40747655942E+01  0.46372303686E+02  0.10566000000E+00 0. -1.
         23    2    1    0    0    0 -0.17379441263E+02  0.14697464356E+01 -0.25628666155E+02  0.93999457068E+02  0.88740431974E+02 0.  0.
         13    1    3    3    0    0 -0.28411784730E+01 -0.42375602069E+02 -0.21553900561E+02  0.47627153382E+02  0.10566000000E+00 0.  1.
         22    1    1    0    0    0  0.17379441263E+02 -0.14697464356E+01  0.25628666155E+02  0.31000542932E+02  0.00000000000E+00 0. -1.
</event>
<event>
 5    1  0.1766634E-003  0.9118800E+02  0.7818608E-02  0.1130116E+00
         25   -1    0    0    0    0  0.00000000000E+00  0.00000000000E+00  0.99999998245E-14  0.12500000000E+03  0.12500000000E+03 0.  0.
        -13    1    3    3    0    0  0.22873908953E+02 -0.26679348868E+02  0.41227761812E+02  0.54173267161E+02  0.10566000000E+00 0.  1.
         23    2    1    0    0    0 -0.12376197369E+02 -0.14140199185E+02  0.21414420439E+02  0.96509775413E+02  0.92208697275E+02 0.  0.
         13    1    3    3    0    0 -0.35250106323E+02  0.12539149683E+02 -0.19813341373E+02  0.42336508252E+02  0.10566000000E+00 0. -1.
         22    1    1    0    0    0  0.12376197369E+02  0.14140199185E+02 -0.21414420439E+02  0.28490224587E+02  0.00000000000E+00 0. -1.
</event>
<event>
 5    1  0.1766634E-003  0.9118800E+02  0.7818608E-02  0.1130116E+00
         25   -1    0    0    0    0  0.00000000000E+00  0.00000000000E+00  0.99999998245E-14  0.12500000000E+03  0.12500000000E+03 0.  0.
        -13    1    3    3    0    0  0.22028515694E+02  0.34847919517E+02 -0.29681289965E+02  0.50799834019E+02  0.10566000000E+00 0. -1.
         23    2    1    0    0    0  0.26802859368E+02 -0.54792161285E+01 -0.13181930971E+02  0.94632609862E+02  0.89627855411E+02 0.  0.
         13    1    3    3    0    0  0.47743436740E+01 -0.40327135645E+02  0.16499358994E+02  0.43832775843E+02  0.10566000000E+00 0.  1.
         22    1    1    0    0    0 -0.26802859368E+02  0.54792161285E+01  0.13181930971E+02  0.30367390138E+02  0.00000000000E+00 0. -1.
</event>
<event>
 5    1  0.1766634E-003  0.9118800E+02  0.7818608E-02  0.1130116E+00
         25   -1    0    0    0    0  0.00000000000E+00  0.00000000000E+00  0.99999998245E-14  0.12500000000E+03  0.12500000000E+03 0.  0.
        -13    1    3    3    0    0  0.36252301137E+02 -0.50676465991E+01  0.15260133261E+02  0.39658456992E+02  0.10566000000E+00 0.  1.
         23    2    1    0    0    0 -0.16235178285E+02 -0.22012384123E+02  0.12621340338E+02  0.94876515795E+02  0.89967377136E+02 0.  0.
         13    1    3    3    0    0 -0.52487479423E+02 -0.16944737524E+02 -0.26387929227E+01  0.55218058803E+02  0.10566000000E+00 0. -1.
         22    1    1    0    0    0  0.16235178285E+02  0.22012384123E+02 -0.12621340338E+02  0.30123484205E+02  0.00000000000E+00 0. -1.
</event>
<event>
 5    1  0.1766634E-003  0.9118800E+02  0.7818608E-02  0.1130116E+00
         25   -1    0    0    0    0  0.00000000000E+00  0.00000000000E+00  0.99999998245E-14  0.12500000000E+03  0.12500000000E+03 0.  0.
        -13    1    3    3    0    0  0.18932331370E+01 -0.43891197077E+02  0.24931839094E+02  0.50513654364E+02  0.10566000000E+00 0.  1.
         23    2    1    0    0    0 -0.45200079660E+01 -0.40709099499E+02 -0.71818488713E+01  0.83415865919E+02  0.72311592983E+02 0.  0.
         13    1    3    3    0    0 -0.64132411030E+01  0.31820975772E+01 -0.32113687966E+02  0.32902211555E+02  0.10566000000E+00 0. -1.
         22    1    1    0    0    0  0.45200079660E+01  0.40709099499E+02  0.71818488713E+01  0.41584134081E+02  0.00000000000E+00 0.  1.
</event>
<event>
 5    1  0.1766634E-003  0.9118800E+02  0.7818608E-02  0.1130116E+00
         25   -1    0    0    0    0  0.00000000000E+00  0.00000000000E+00  0.99999998245E-14  0.12500000000E+03  0.12500000000E+03 0.  0.
        -13    1    3    3    0    0 -0.52854149435E+02  0.26619205438E+02 -0.12077963516E+02  0.60398936890E+02  0.10566000000E+00 0. -1.
         23    2    1    0    0    0 -0.19698026961E+02  0.22643760434E+02 -0.43669516005E+01  0.94671425701E+02  0.89681973803E+02 0.  0.
         13    1    3    3    0    0  0.33156122474E+02 -0.39754450041E+01  0.77110119158E+01  0.34272488811E+02  0.10566000000E+00 0.  1.
         22    1    1    0    0    0  0.19698026961E+02 -0.22643760434E+02  0.43669516005E+01  0.30328574299E+02  0.00000000000E+00 0. -1.
</event>
<event>
 5    1  0.1766634E-003  0.9118800E+02  0.7818608E-02  0.1130116E+00
         25   -1    0    0    0    0  0.00000000000E+00  0.00000000000E+00  0.99999998245E-14  0.12500000000E+03  0.12500000000E+03 0.  0.
        -13    1    3    3    0    0 -0.58270672485E+01 -0.57407451473E+02  0.12273944885E+02  0.58993483406E+02  0.10566000000E+00 0. -1.
         23    2    1    0    0    0 -0.23164670450E+01 -0.31344591735E+02 -0.84245813788E+01  0.92460439124E+02  0.86545420335E+02 0.  0.
         13    1    3    3    0    0  0.35106002035E+01  0.26062859737E+02 -0.20698526264E+02  0.33466955718E+02  0.10566000000E+00 0.  1.
         22    1    1    0    0    0  0.23164670450E+01  0.31344591735E+02  0.84245813788E+01  0.32539560876E+02  0.00000000000E+00 0. -1.
</event>
<event>
 5    1  0.1766634E-003  0.9118800E+02  0.7818608E-02  0.1130116E+00
         25   -1    0    0    0    0  0.00000000000E+00  0.00000000000E+00  0.99999998245E-14  0.12500000000E+03  0.12500000000E+03 0.  0.
        -13    1    3    3    0    0  0.16534685772E+02 -0.23578566867E+02  0.44698964587E+02  0.53172861953E+02  0.10566000000E+00 0. -1.
         23    2    1    0    0    0  0.44136698288E+01 -0.28340238236E+02  0.38337707245E+01  0.96063044690E+02  0.91601098097E+02 0.  0.
         13    1    3    3    0    0 -0.12121015943E+02 -0.47616713691E+01 -0.40865193863E+02  0.42890182737E+02  0.10566000000E+00 0.  1.
         22    1    1    0    0    0 -0.44136698288E+01  0.28340238236E+02 -0.38337707245E+01  0.28936955310E+02  0.00000000000E+00 0. -1.
</event>
<event>
 5    1  0.1766634E-003  0.9118800E+02  0.7818608E-02  0.1130116E+00
         25   -1    0    0    0    0  0.00000000000E+00  0.00000000000E+00  0.99999998245E-14  0.12500000000E+03  0.12500000000E+03 0.  0.
        -13    1    3    3    0    0 -0.34544504694E+02  0.10565698706E+02 -0.15781177132E+02  0.39420978037E+02  0.10566000000E+00 0.  1.
         23    2    1    0    0    0 -0.31029212748E+02 -0.22893222661E+02  0.13623932151E+02  0.84103506082E+02  0.73490656008E+02 0.  0.
         13    1    3    3    0    0  0.35152919460E+01 -0.33458921367E+02  0.29405109282E+02  0.44682528045E+02  0.10566000000E+00 0. -1.
         22    1    1    0    0    0  0.31029212748E+02  0.22893222661E+02 -0.13623932151E+02  0.40896493918E+02  0.00000000000E+00 0.  1.
</event>
<event>
 5    1  0.1766634E-003  0.9118800E+02  0.7818608E-02  0.1130116E+00
         25   -1    0    0    0    0  0.00000000000E+00  0.00000000000E+00  0.99999998245E-14  0.12500000000E+03  0.12500000000E+03 0.  0.
        -13    1    3    3    0    0  0.23962566894E+02  0.40664897803E+02  0.17339271930E+02  0.50284192750E+02  0.10566000000E+00 0. -1.
         23    2    1    0    0    0  0.28021560934E+02 -0.27649253529E+01  0.11238564114E+01  0.96819940692E+02  0.92628209380E+02 0.  0.
         13    1    3    3    0    0  0.40589940405E+01 -0.43429823156E+02 -0.16215415519E+02  0.46535747941E+02  0.10566000000E+00 0.  1.
         22    1    1    0    0    0 -0.28021560934E+02  0.27649253529E+01 -0.11238564114E+01  0.28180059308E+02  0.00000000000E+00 0. -1.
</event>
<event>
 5    1  0.1766634E-003  0.9118800E+02  0.7818608E-02  0.1130116E+00
         25   -1    0    0    0    0  0.00000000000E+00  0.00000000000E+00  0.99999998245E-14  0.12500000000E+03  0.12500000000E+03 0.  0.
        -13    1    3    3    0    0  0.70396133031E+01  0.47209741199E+01 -0.50514657536E+02  0.51220948274E+02  0.10566000000E+00 0. -1.
         23    2    1    0    0    0  0.26906595471E+02 -0.14132847647E+01 -0.10950654777E+02  0.95915999352E+02  0.91400217932E+02 0.  0.
         13    1    3    3    0    0  0.19866982168E+02 -0.61342588846E+01  0.39564002759E+02  0.44695051078E+02  0.10566000000E+00 0.  1.
         22    1    1    0    0    0 -0.26906595471E+02  0.14132847647E+01  0.10950654777E+02  0.29084000648E+02  0.00000000000E+00 0. -1.
</event>
<event>
 5    1  0.1766634E-003  0.9118800E+02  0.7818608E-02  0.1130116E+00
         25   -1    0    0    0    0  0.00000000000E+00  0.00000000000E+00  0.99999998245E-14  0.12500000000E+03  0.12500000000E+03 0.  0.
        -13    1    3    3    0    0 -0.50709810949E+02  0.31585894508E+02 -0.11912131203E+02  0.60918500410E+02  0.10566000000E+00 0. -1.
         23    2    1    0    0    0 -0.28281706185E+02  0.60374542662E+01 -0.67391759998E+01  0.95306191691E+02  0.90562397952E+02 0.  0.
         13    1    3    3    0    0  0.22428104764E+02 -0.25548440242E+02  0.51729552031E+01  0.34387691281E+02  0.10566000000E+00 0.  1.
         22    1    1    0    0    0  0.28281706185E+02 -0.60374542662E+01  0.67391759998E+01  0.29693808309E+02  0.00000000000E+00 0. -1.
</event>
<event>
 5    1  0.1766634E-003  0.9118800E+02  0.7818608E-02  0.1130116E+00
         25   -1    0    0    0    0  0.00000000000E+00  0.00000000000E+00  0.99999998245E-14  0.12500000000E+03  0.12500000000E+03 0.  0.
        -13    1    3    3    0    0  0.73855842959E+01  0.30408042838E+02  0.39504782052E+02  0.50396774635E+02  0.10566000000E+00 0.  1.
         23    2    1    0    0    0 -0.23807580743E+02  0.14233404748E+02  0.13248821334E+02  0.94260416752E+02  0.89107262262E+02 0.  0.
         13    1    3    3    0    0 -0.31193165039E+02 -0.16174638091E+02 -0.26255960717E+02  0.43863642116E+02  0.10566000000E+00 0. -1.
         22    1    1    0    0    0  0.23807580743E+02 -0.14233404748E+02 -0.13248821334E+02  0.30739583248E+02  0.00000000000E+00 0.  1.
</event>
<event>
 5    1  0.1766634E-003  0.9118800E+02  0.7818608E-02  0.1130116E+00
         25   -1    0    0    0    0  0.00000000000E+00  0.00000000000E+00  0.99999998245E-14  0.12500000000E+03  0.12500000000E+03 0.  0.
        -13    1    3    3    0    0 -0.47207935556E+02 -0.23106849987E+02  0.20261915404E+02  0.56330028188E+02  0.10566000000E+00 0. -1.
         23    2    1    0    0    0 -0.13706868233E+02 -0.77288229089E+01  0.26948476681E+02  0.93793697180E+02  0.88450123204E+02 0.  0.
         13    1    3    3    0    0  0.33501067323E+02  0.15378027078E+02  0.66865612766E+01  0.37463668992E+02  0.10566000000E+00 0.  1.
         22    1    1    0    0    0  0.13706868233E+02  0.77288229089E+01 -0.26948476681E+02  0.31206302820E+02  0.00000000000E+00 0. -1.
</event>
<event>
 5    1  0.1766634E-003  0.9118800E+02  0.7818608E-02  0.1130116E+00
         25   -1    0    0    0    0  0.00000000000E+00  0.00000000000E+00  0.99999998245E-14  0.12500000000E+03  0.12500000000E+03 0.  0.
        -13    1    3    3    0    0  0.91376501606E+01 -0.30256186391E+02  0.13710116722E+02  0.34451588207E+02  0.10566000000E+00 0.  1.
         23    2    1    0    0    0  0.73044539211E+01  0.26173815523E+02 -0.10479797569E+02  0.95875271277E+02  0.91344500761E+02 0.  0.
         13    1    3    3    0    0 -0.18331962395E+01  0.56430001914E+02 -0.24189914292E+02  0.61423683070E+02  0.10566000000E+00 0. -1.
         22    1    1    0    0    0 -0.73044539211E+01 -0.26173815523E+02  0.10479797569E+02  0.29124728723E+02  0.00000000000E+00 0. -1.
</event>
<event>
 5    1  0.1766634E-003  0.9118800E+02  0.7818608E-02  0.1130116E+00
         25   -1    0    0    0    0  0.00000000000E+00  0.00000000000E+00  0.99999998245E-14  0.12500000000E+03  0.12500000000E+03 0.  0.
        -13    1    3    3    0    0 -0.27840187645E+02 -0.64683653705E+01 -0.32885571747E+02  0.43570492215E+02  0.10566000000E+00 0. -1.
         23    2    1    0    0    0 -0.22173595280E+02  0.66829562256E+01  0.17513501114E+02  0.95964625837E+02  0.91466695902E+02 0.  0.
         13    1    3    3    0    0  0.56665923649E+01  0.13151321596E+02  0.50399072861E+02  0.52394133622E+02  0.10566000000E+00 0.  1.
         22    1    1    0    0    0  0.22173595280E+02 -0.66829562256E+01 -0.17513501114E+02  0.29035374163E+02  0.00000000000E+00 0. -1.
</event>
<event>
 5    1  0.1766634E-003  0.9118800E+02  0.7818608E-02  0.1130116E+00
         25   -1    0    0    0    0  0.00000000000E+00  0.00000000000E+00  0.99999998245E-14  0.12500000000E+03  0.12500000000E+03 0.  0.
        -13    1    3    3    0    0  0.35709873617E+02 -0.22971111755E+02  0.35306695657E+02  0.55221743645E+02  0.10566000000E+00 0. -1.
         23    2    1    0    0    0  0.14108973682E+02  0.97326478253E+01  0.23026983070E+02  0.96294085603E+02  0.91915838683E+02 0.  0.
         13    1    3    3    0    0 -0.21600899934E+02  0.32703759580E+02 -0.12279712587E+02  0.41072341958E+02  0.10566000000E+00 0.  1.
         22    1    1    0    0    0 -0.14108973682E+02 -0.97326478253E+01 -0.23026983070E+02  0.28705914397E+02  0.00000000000E+00 0. -1.
</event>
<event>
 5    1  0.1766634E-003  0.9118800E+02  0.7818608E-02  0.1130116E+00
         25   -1    0    0    0    0  0.00000000000E+00  0.00000000000E+00  0.99999998245E-14  0.12500000000E+03  0.12500000000E+03 0.  0.
        -13    1    3    3    0    0 -0.46679523967E+02 -0.19181379034E+02 -0.17282587370E+02  0.53344186653E+02  0.10566000000E+00 0. -1.
         23    2    1    0    0    0 -0.93715614247E+01 -0.62819166188E+00 -0.27241655917E+02  0.96184576953E+02  0.91766792677E+02 0.  0.
         13    1    3    3    0    0  0.37307962542E+02  0.18553187372E+02 -0.99590685474E+01  0.42840390300E+02  0.10566000000E+00 0.  1.
         22    1    1    0    0    0  0.93715614247E+01  0.62819166188E+00  0.27241655917E+02  0.28815423047E+02  0.00000000000E+00 0. -1.
</event>
<event>
 5    1  0.1766634E-003  0.9118800E+02  0.7818608E-02  0.1130116E+00
         25   -1    0    0    0    0  0.00000000000E+00  0.00000000000E+00  0.99999998245E-14  0.12500000000E+03  0.12500000000E+03 0.  0.
        -13    1    3    3    0    0  0.17614577330E+02  0.45350363429E+02 -0.14230831912E+01  0.48672015855E+02  0.10566000000E+00 0.  1.
         23    2    1    0    0    0  0.30214163517E+02  0.32754473496E+01  0.79589179077E+01  0.93583943490E+02  0.88153195475E+02 0.  0.
         13    1    3    3    0    0  0.12599586188E+02 -0.42074916079E+02  0.93820010989E+01  0.44911927634E+02  0.10566000000E+00 0. -1.
         22    1    1    0    0    0 -0.30214163517E+02 -0.32754473496E+01 -0.79589179077E+01  0.31416056510E+02  0.00000000000E+00 0. -1.
</event>
<event>
 5    1  0.1766634E-003  0.9118800E+02  0.7818608E-02  0.1130116E+00
         25   -1    0    0    0    0  0.00000000000E+00  0.00000000000E+00  0.99999998245E-14  0.12500000000E+03  0.12500000000E+03 0.  0.
        -13    1    3    3    0    0 -0.35061168716E+01 -0.22793999837E+01  0.56814532215E+02  0.56968331155E+02  0.10566000000E+00 0. -1.
         23    2    1    0    0    0 -0.10592190784E+02  0.14551539997E+02  0.19803903541E+02  0.98239274723E+02  0.94524169823E+02 0.  0.
         13    1    3    3    0    0 -0.70860739128E+01  0.16830939981E+02 -0.37010628673E+02  0.41270943568E+02  0.10566000000E+00 0.  1.
         22    1    1    0    0    0  0.10592190784E+02 -0.14551539997E+02 -0.19803903541E+02  0.26760725277E+02  0.00000000000E+00 0. -1.
</event>
<event>
 5    1  0.1766634E-003  0.9118800E+02  0.7818608E-02  0.1130116E+00
         25   -1    0    0    0    0  0.00000000000E+00  0.00000000000E+00  0.99999998245E-14  0.12500000000E+03  0.12500000000E+03 0.  0.
        -13    1    3    3    0    0 -0.55421426805E+02 -0.14916849747E+02  0.16949001873E+02  0.59844187554E+02  0.10566000000E+00 0. -1.
         23    2    1    0    0    0 -0.28074911368E+02 -0.84559890198E+01 -0.46853648764E+01  0.95307289739E+02  0.90563913535E+02 0.  0.
         13    1    3    3    0    0  0.27346515437E+02  0.64608607274E+01 -0.21634366749E+02  0.35463102185E+02  0.10566000000E+00 0.  1.
         22    1    1    0    0    0  0.28074911368E+02  0.84559890198E+01  0.46853648764E+01  0.29692710261E+02  0.00000000000E+00 0. -1.
</event>
<event>
 5    1  0.1766634E-003  0.9118800E+02  0.7818608E-02  0.1130116E+00
         25   -1    0    0    0    0  0.00000000000E+00  0.00000000000E+00  0.99999998245E-14  0.12500000000E+03  0.12500000000E+03 0.  0.
        -13    1    3    3    0    0 -0.22480274395E+01 -0.41363806994E+02 -0.15287518100E+02  0.44155832345E+02  0.10566000000E+00 0.  1.
         23    2    1    0    0    0 -0.77691651080E+01 -0.59284443021E+01  0.25038436321E+02  0.98121948142E+02  0.94368888069E+02 0.  0.
         13    1    3    3    0    0 -0.55211376685E+01  0.35435362692E+02  0.40325954420E+02  0.53966115797E+02  0.10566000000E+00 0. -1.
         22    1    1    0    0    0  0.77691651080E+01  0.59284443021E+01 -0.25038436321E+02  0.26878051858E+02  0.00000000000E+00 0. -1.
</event>
<event>
 5    1  0.1766634E-003  0.9118800E+02  0.7818608E-02  0.1130116E+00
         25   -1    0    0    0    0  0.00000000000E+00  0.00000000000E+00  0.99999998245E-14  0.12500000000E+03  0.12500000000E+03 0.  0.
        -13    1    3    3    0    0  0.28832048599E+02  0.58857443556E+00 -0.30293607561E+02  0.41825198976E+02  0.10566000000E+00 0.  1.
         23    2    1    0    0    0  0.34315424908E+01  0.25635538862E+02  0.11432640492E+02  0.96721711416E+02  0.92495555861E+02 0.  0.
         13    1    3    3    0    0 -0.25400506108E+02  0.25046964426E+02  0.41726248053E+02  0.54896512440E+02  0.10566000000E+00 0. -1.
         22    1    1    0    0    0 -0.34315424908E+01 -0.25635538862E+02 -0.11432640492E+02  0.28278288584E+02  0.00000000000E+00 0. -1.
</event>
<event>
 5    1  0.1766634E-003  0.9118800E+02  0.7818608E-02  0.1130116E+00
         25   -1    0    0    0    0  0.00000000000E+00  0.00000000000E+00  0.99999998245E-14  0.12500000000E+03  0.12500000000E+03 0.  0.
        -13    1    3    3    0    0 -0.29262791824E+02  0.77998196211E+01  0.47640138171E+02  0.56451236483E+02  0.10566000000E+00 0. -1.
         23    2    1    0    0    0 -0.11954294598E+02 -0.15264203022E+02  0.26303444532E+02  0.92323215466E+02  0.86346996859E+02 0.  0.
         13    1    3    3    0    0  0.17308497226E+02 -0.23064022643E+02 -0.21336693639E+02  0.35871978983E+02  0.10566000000E+00 0.  1.
         22    1    1    0    0    0  0.11954294598E+02  0.15264203022E+02 -0.26303444532E+02  0.32676784534E+02  0.00000000000E+00 0. -1.
</event>
<event>
 5    1  0.1766634E-003  0.9118800E+02  0.7818608E-02  0.1130116E+00
         25   -1    0    0    0    0  0.00000000000E+00  0.00000000000E+00  0.99999998245E-14  0.12500000000E+03  0.12500000000E+03 0.  0.
        -13    1    3    3    0    0  0.28005538277E+02  0.48632063226E+02 -0.21051670042E+02  0.59938065729E+02  0.10566000000E+00 0.  1.
         23    2    1    0    0    0  0.94934088975E+01  0.18457134202E+02 -0.21188675164E+02  0.95339410480E+02  0.90608237043E+02 0.  0.
         13    1    3    3    0    0 -0.18512129379E+02 -0.30174929024E+02 -0.13700512227E+00  0.35401344751E+02  0.10566000000E+00 0. -1.
         22    1    1    0    0    0 -0.94934088975E+01 -0.18457134202E+02  0.21188675164E+02  0.29660589520E+02  0.00000000000E+00 0.  1.
</event>
<event>
 5    1  0.1766634E-003  0.9118800E+02  0.7818608E-02  0.1130116E+00
         25   -1    0    0    0    0  0.00000000000E+00  0.00000000000E+00  0.99999998245E-14  0.12500000000E+03  0.12500000000E+03 0.  0.
        -13    1    3    3    0    0  0.38144888201E+02 -0.17579667163E+02  0.25930656172E+02  0.49360786936E+02  0.10566000000E+00 0. -1.
         23    2    1    0    0    0  0.23543328440E+02  0.14938922949E+02 -0.51393314976E+01  0.96647355305E+02  0.92395015160E+02 0.  0.
         13    1    3    3    0    0 -0.14601559760E+02  0.32518590112E+02 -0.31069987670E+02  0.47286568369E+02  0.10566000000E+00 0.  1.
         22    1    1    0    0    0 -0.23543328440E+02 -0.14938922949E+02  0.51393314976E+01  0.28352644695E+02  0.00000000000E+00 0.  1.
</event>
<event>
 5    1  0.1766634E-003  0.9118800E+02  0.7818608E-02  0.1130116E+00
         25   -1    0    0    0    0  0.00000000000E+00  0.00000000000E+00  0.99999998245E-14  0.12500000000E+03  0.12500000000E+03 0.  0.
        -13    1    3    3    0    0 -0.39291201771E+01  0.49161918314E+02  0.16708234069E+01  0.49347087174E+02  0.10566000000E+00 0.  1.
         23    2    1    0    0    0  0.39066476822E+01  0.10381346772E+02  0.26647765193E+02  0.96135876131E+02  0.91700430930E+02 0.  0.
         13    1    3    3    0    0  0.78357678593E+01 -0.38780571541E+02  0.24976941786E+02  0.46788788957E+02  0.10566000000E+00 0. -1.
         22    1    1    0    0    0 -0.39066476822E+01 -0.10381346772E+02 -0.26647765193E+02  0.28864123869E+02  0.00000000000E+00 0.  1.
</event>
<event>
 5    1  0.1766634E-003  0.9118800E+02  0.7818608E-02  0.1130116E+00
         25   -1    0    0    0    0  0.00000000000E+00  0.00000000000E+00  0.99999998245E-14  0.12500000000E+03  0.12500000000E+03 0.  0.
        -13    1    3    3    0    0 -0.12564896084E+02 -0.29812197952E+02 -0.33440192583E+02  0.46528500990E+02  0.10566000000E+00 0. -1.
         23    2    1    0    0    0  0.25432017082E+02 -0.68558699706E+01 -0.92612353903E+01  0.97079381689E+02  0.92977660878E+02 0.  0.
         13    1    3    3    0    0  0.37996913165E+02  0.22956327982E+02  0.24178957193E+02  0.50550880699E+02  0.10566000000E+00 0.  1.
         22    1    1    0    0    0 -0.25432017082E+02  0.68558699706E+01  0.92612353903E+01  0.27920618311E+02  0.00000000000E+00 0.  1.
</event>
<event>
 5    1  0.1766634E-003  0.9118800E+02  0.7818608E-02  0.1130116E+00
         25   -1    0    0    0    0  0.00000000000E+00  0.00000000000E+00  0.99999998245E-14  0.12500000000E+03  0.12500000000E+03 0.  0.
        -13    1    3    3    0    0  0.85414158900E+01  0.36102783012E+02  0.10796656671E+02  0.38638655333E+02  0.10566000000E+00 0. -1.
         23    2    1    0    0    0 -0.27802113601E+02 -0.73269100040E+01  0.22269973477E+00  0.96247770068E+02  0.91852830752E+02 0.  0.
         13    1    3    3    0    0 -0.36343529491E+02 -0.43429693016E+02 -0.10573956937E+02  0.57609114736E+02  0.10566000000E+00 0.  1.
         22    1    1    0    0    0  0.27802113601E+02  0.73269100040E+01 -0.22269973477E+00  0.28752229932E+02  0.00000000000E+00 0.  1.
</event>
<event>
 5    1  0.1766634E-003  0.9118800E+02  0.7818608E-02  0.1130116E+00
         25   -1    0    0    0    0  0.00000000000E+00  0.00000000000E+00  0.99999998245E-14  0.12500000000E+03  0.12500000000E+03 0.  0.
        -13    1    3    3    0    0 -0.38325663995E+02 -0.35091552924E+02  0.20733506358E+02  0.55947860167E+02  0.10566000000E+00 0.  1.
         23    2    1    0    0    0 -0.54938117788E+01 -0.13051790533E+02  0.25554477570E+02  0.95784207560E+02  0.91219799880E+02 0.  0.
         13    1    3    3    0    0  0.32831852216E+02  0.22039762391E+02  0.48209712127E+01  0.39836347394E+02  0.10566000000E+00 0. -1.
         22    1    1    0    0    0  0.54938117788E+01  0.13051790533E+02 -0.25554477570E+02  0.29215792440E+02  0.00000000000E+00 0.  1.
</event>
<event>
 5    1  0.1766634E-003  0.9118800E+02  0.7818608E-02  0.1130116E+00
         25   -1    0    0    0    0  0.00000000000E+00  0.00000000000E+00  0.99999998245E-14  0.12500000000E+03  0.12500000000E+03 0.  0.
        -13    1    3    3    0    0  0.12421786155E+02  0.42137295939E+02 -0.29220686018E+02  0.52760895896E+02  0.10566000000E+00 0.  1.
         23    2    1    0    0    0  0.22630863695E+02  0.21050316714E+02  0.44430103718E+01  0.93774815188E+02  0.88423434660E+02 0.  0.
         13    1    3    3    0    0  0.10209077540E+02 -0.21086979225E+02  0.33663696390E+02  0.41013919292E+02  0.10566000000E+00 0. -1.
         22    1    1    0    0    0 -0.22630863695E+02 -0.21050316714E+02 -0.44430103718E+01  0.31225184812E+02  0.00000000000E+00 0.  1.
</event>
<event>
 5    1  0.1766634E-003  0.9118800E+02  0.7818608E-02  0.1130116E+00
         25   -1    0    0    0    0  0.00000000000E+00  0.00000000000E+00  0.99999998245E-14  0.12500000000E+03  0.12500000000E+03 0.  0.
        -13    1    3    3    0    0 -0.49235532129E+02 -0.24103697425E+02 -0.74719313049E+00  0.54824221976E+02  0.10566000000E+00 0.  1.
         23    2    1    0    0    0 -0.26113855153E+02  0.10707545929E+02  0.20034461548E+01  0.96705145922E+02  0.92473166273E+02 0.  0.
         13    1    3    3    0    0  0.23121676976E+02  0.34811243354E+02  0.27506392853E+01  0.41880923946E+02  0.10566000000E+00 0. -1.
         22    1    1    0    0    0  0.26113855153E+02 -0.10707545929E+02 -0.20034461548E+01  0.28294854078E+02  0.00000000000E+00 0. -1.
</event>
<event>
 5    1  0.1766634E-003  0.9118800E+02  0.7818608E-02  0.1130116E+00
         25   -1    0    0    0    0  0.00000000000E+00  0.00000000000E+00  0.99999998245E-14  0.12500000000E+03  0.12500000000E+03 0.  0.
        -13    1    3    3    0    0 -0.17841774363E+02  0.36223394366E+02 -0.51621683490E+01  0.40707767783E+02  0.10566000000E+00 0.  1.
         23    2    1    0    0    0  0.18729629375E+02 -0.78233143005E+00  0.19208074769E+02  0.98160454637E+02  0.94419879576E+02 0.  0.
         13    1    3    3    0    0  0.36571403737E+02 -0.37005725796E+02  0.24370243118E+02  0.57452686853E+02  0.10566000000E+00 0. -1.
         22    1    1    0    0    0 -0.18729629375E+02  0.78233143005E+00 -0.19208074769E+02  0.26839545363E+02  0.00000000000E+00 0.  1.
</event>
<event>
 5    1  0.1766634E-003  0.9118800E+02  0.7818608E-02  0.1130116E+00
         25   -1    0    0    0    0  0.00000000000E+00  0.00000000000E+00  0.99999998245E-14  0.12500000000E+03  0.12500000000E+03 0.  0.
        -13    1    3    3    0    0 -0.40705332804E+02 -0.49651199452E+01 -0.93153674817E+01  0.42051917556E+02  0.10566000000E+00 0.  1.
         23    2    1    0    0    0  0.24937337481E+00  0.23706985314E+02 -0.20927345304E+02  0.93376636465E+02  0.87858745247E+02 0.  0.
         13    1    3    3    0    0  0.40954706179E+02  0.28672105259E+02 -0.11611977823E+02  0.51324718910E+02  0.10566000000E+00 0. -1.
         22    1    1    0    0    0 -0.24937337481E+00 -0.23706985314E+02  0.20927345304E+02  0.31623363535E+02  0.00000000000E+00 0. -1.
</event>
<event>
 5    1  0.1766634E-003  0.9118800E+02  0.7818608E-02  0.1130116E+00
         25   -1    0    0    0    0  0.00000000000E+00  0.00000000000E+00  0.99999998245E-14  0.12500000000E+03  0.12500000000E+03 0.  0.
        -13    1    3    3    0    0 -0.14965473876E+02 -0.28983638393E+02  0.19808883575E+01  0.32679531600E+02  0.10566000000E+00 0.  1.
         23    2    1    0    0    0  0.15879722347E+02  0.24528759361E+02  0.79064901782E+01  0.94728921318E+02  0.89762076232E+02 0.  0.
         13    1    3    3    0    0  0.30845196223E+02  0.53512397755E+02  0.59256018207E+01  0.62049389719E+02  0.10566000000E+00 0. -1.
         22    1    1    0    0    0 -0.15879722347E+02 -0.24528759361E+02 -0.79064901782E+01  0.30271078682E+02  0.00000000000E+00 0. -1.
</event>
<event>
 5    1  0.1766634E-003  0.9118800E+02  0.7818608E-02  0.1130116E+00
         25   -1    0    0    0    0  0.00000000000E+00  0.00000000000E+00  0.99999998245E-14  0.12500000000E+03  0.12500000000E+03 0.  0.
        -13    1    3    3    0    0 -0.57029546195E+01  0.24243807411E+02 -0.55000492929E+02  0.60376744494E+02  0.10566000000E+00 0.  1.
         23    2    1    0    0    0 -0.12502152907E+02  0.54219606289E+01 -0.26496412919E+02  0.95204675166E+02  0.90422169801E+02 0.  0.
         13    1    3    3    0    0 -0.67991982880E+01 -0.18821846782E+02  0.28504080010E+02  0.34827930672E+02  0.10566000000E+00 0. -1.
         22    1    1    0    0    0  0.12502152907E+02 -0.54219606289E+01  0.26496412919E+02  0.29795324834E+02  0.00000000000E+00 0.  1.
</event>
<event>
 5    1  0.1766634E-003  0.9118800E+02  0.7818608E-02  0.1130116E+00
         25   -1    0    0    0    0  0.00000000000E+00  0.00000000000E+00  0.99999998245E-14  0.12500000000E+03  0.12500000000E+03 0.  0.
        -13    1    3    3    0    0 -0.43935680779E+02 -0.34097407843E+02  0.27624079065E+02  0.62097328246E+02  0.10566000000E+00 0. -1.
         23    2    1    0    0    0 -0.19099232565E+02 -0.13891556291E+02  0.17251307104E+02  0.95753399898E+02  0.91177573857E+02 0.  0.
         13    1    3    3    0    0  0.24836448213E+02  0.20205851552E+02 -0.10372771961E+02  0.33656071651E+02  0.10566000000E+00 0.  1.
         22    1    1    0    0    0  0.19099232565E+02  0.13891556291E+02 -0.17251307104E+02  0.29246600102E+02  0.00000000000E+00 0. -1.
</event>
<event>
 5    1  0.1766634E-003  0.9118800E+02  0.7818608E-02  0.1130116E+00
         25   -1    0    0    0    0  0.00000000000E+00  0.00000000000E+00  0.99999998245E-14  0.12500000000E+03  0.12500000000E+03 0.  0.
        -13    1    3    3    0    0  0.25036026469E+01  0.30367781926E+02  0.30090245120E+02  0.42824107938E+02  0.10566000000E+00 0.  1.
         23    2    1    0    0    0  0.27808804174E+02 -0.85454726783E+01  0.53618018019E+01  0.95417849783E+02  0.90716384660E+02 0.  0.
         13    1    3    3    0    0  0.25305201527E+02 -0.38913254605E+02 -0.24728443318E+02  0.52593741845E+02  0.10566000000E+00 0. -1.
         22    1    1    0    0    0 -0.27808804174E+02  0.85454726783E+01 -0.53618018019E+01  0.29582150217E+02  0.00000000000E+00 0. -1.
</event>
<event>
 5    1  0.1766634E-003  0.9118800E+02  0.7818608E-02  0.1130116E+00
         25   -1    0    0    0    0  0.00000000000E+00  0.00000000000E+00  0.99999998245E-14  0.12500000000E+03  0.12500000000E+03 0.  0.
        -13    1    3    3    0    0 -0.12170997982E+02 -0.47558719999E+02  0.86479284079E+01  0.49847395815E+02  0.10566000000E+00 0.  1.
         23    2    1    0    0    0 -0.71591611424E+01 -0.12922424571E+02 -0.23416808494E+02  0.97312646116E+02  0.93290736566E+02 0.  0.
         13    1    3    3    0    0  0.50118368397E+01  0.34636295427E+02 -0.32064736902E+02  0.47465250300E+02  0.10566000000E+00 0. -1.
         22    1    1    0    0    0  0.71591611424E+01  0.12922424571E+02  0.23416808494E+02  0.27687353884E+02  0.00000000000E+00 0.  1.
</event>
<event>
 5    1  0.1766634E-003  0.9118800E+02  0.7818608E-02  0.1130116E+00
         25   -1    0    0    0    0  0.00000000000E+00  0.00000000000E+00  0.99999998245E-14  0.12500000000E+03  0.12500000000E+03 0.  0.
        -13    1    3    3    0    0 -0.15567168564E+02  0.56814885865E+02  0.13977724466E+02  0.60544660691E+02  0.10566000000E+00 0.  1.
         23    2    1    0    0    0 -0.18379826949E+02  0.25290309298E+02  0.64375431184E+01  0.93080417539E+02  0.87436287574E+02 0.  0.
         13    1    3    3    0    0 -0.28126583853E+01 -0.31524576566E+02 -0.75401813476E+01  0.32535756848E+02  0.10566000000E+00 0. -1.
         22    1    1    0    0    0  0.18379826949E+02 -0.25290309298E+02 -0.64375431184E+01  0.31919582461E+02  0.00000000000E+00 0.  1.
</event>
<event>
 5    1  0.1766634E-003  0.9118800E+02  0.7818608E-02  0.1130116E+00
         25   -1    0    0    0    0  0.00000000000E+00  0.00000000000E+00  0.99999998245E-14  0.12500000000E+03  0.12500000000E+03 0.  0.
        -13    1    3    3    0    0  0.12151260111E+02 -0.32471472966E+02 -0.23786856736E+02  0.42046110359E+02  0.10566000000E+00 0. -1.
         23    2    1    0    0    0  0.26690786519E+02  0.12594669856E+02  0.95009157113E+00  0.95471598963E+02  0.90790416569E+02 0.  0.
         13    1    3    3    0    0  0.14539526408E+02  0.45066142822E+02  0.24736948308E+02  0.53425488605E+02  0.10566000000E+00 0.  1.
         22    1    1    0    0    0 -0.26690786519E+02 -0.12594669856E+02 -0.95009157113E+00  0.29528401037E+02  0.00000000000E+00 0.  1.
</event>
<event>
 5    1  0.1766634E-003  0.9118800E+02  0.7818608E-02  0.1130116E+00
         25   -1    0    0    0    0  0.00000000000E+00  0.00000000000E+00  0.99999998245E-14  0.12500000000E+03  0.12500000000E+03 0.  0.
        -13    1    3    3    0    0  0.47086611791E+02  0.18588276015E+01  0.32285854759E+02  0.57122603508E+02  0.10566000000E+00 0.  1.
         23    2    1    0    0    0  0.26330827682E+02 -0.11151584717E+02  0.16370221277E+01  0.96358244301E+02  0.92003049271E+02 0.  0.
         13    1    3    3    0    0 -0.20755784110E+02 -0.13010412319E+02 -0.30648832631E+02  0.39235640792E+02  0.10566000000E+00 0. -1.
         22    1    1    0    0    0 -0.26330827682E+02  0.11151584717E+02 -0.16370221277E+01  0.28641755699E+02  0.00000000000E+00 0.  1.
</event>
<event>
 5    1  0.1766634E-003  0.9118800E+02  0.7818608E-02  0.1130116E+00
         25   -1    0    0    0    0  0.00000000000E+00  0.00000000000E+00  0.99999998245E-14  0.12500000000E+03  0.12500000000E+03 0.  0.
        -13    1    3    3    0    0 -0.31656364160E+02 -0.28779662933E+02  0.42335733774E+02  0.60189034787E+02  0.10566000000E+00 0.  1.
         23    2    1    0    0    0 -0.90027127609E+01 -0.61096039381E+01  0.27343872490E+02  0.95571043850E+02  0.90927228939E+02 0.  0.
         13    1    3    3    0    0  0.22653651399E+02  0.22670058995E+02 -0.14991861285E+02  0.35382009063E+02  0.10566000000E+00 0. -1.
         22    1    1    0    0    0  0.90027127609E+01  0.61096039381E+01 -0.27343872490E+02  0.29428956150E+02  0.00000000000E+00 0.  1.
</event>
<event>
 5    1  0.1766634E-003  0.9118800E+02  0.7818608E-02  0.1130116E+00
         25   -1    0    0    0    0  0.00000000000E+00  0.00000000000E+00  0.99999998245E-14  0.12500000000E+03  0.12500000000E+03 0.  0.
        -13    1    3    3    0    0 -0.50880922089E+01 -0.14236277509E+02  0.33836720423E+02  0.37060694714E+02  0.10566000000E+00 0.  1.
         23    2    1    0    0    0  0.15757052464E+02 -0.12426345129E+02 -0.21120461200E+02  0.95866297233E+02  0.91332219442E+02 0.  0.
         13    1    3    3    0    0  0.20845144673E+02  0.18099323799E+01 -0.54957181623E+02  0.58805602519E+02  0.10566000000E+00 0. -1.
         22    1    1    0    0    0 -0.15757052464E+02  0.12426345129E+02  0.21120461200E+02  0.29133702767E+02  0.00000000000E+00 0. -1.
</event>
<event>
 5    1  0.1766634E-003  0.9118800E+02  0.7818608E-02  0.1130116E+00
         25   -1    0    0    0    0  0.00000000000E+00  0.00000000000E+00  0.99999998245E-14  0.12500000000E+03  0.12500000000E+03 0.  0.
        -13    1    3    3    0    0 -0.61556478477E+01 -0.35300166646E+01 -0.37016556028E+02  0.37690709761E+02  0.10566000000E+00 0. -1.
         23    2    1    0    0    0  0.22957571946E+02  0.22720531317E+02  0.15245229021E+01  0.92664310382E+02  0.86839378139E+02 0.  0.
         13    1    3    3    0    0  0.29113219793E+02  0.26250547982E+02  0.38541078931E+02  0.54973600621E+02  0.10566000000E+00 0.  1.
         22    1    1    0    0    0 -0.22957571946E+02 -0.22720531317E+02 -0.15245229021E+01  0.32335689618E+02  0.00000000000E+00 0.  1.
</event>
<event>
 5    1  0.1766634E-003  0.9118800E+02  0.7818608E-02  0.1130116E+00
         25   -1    0    0    0    0  0.00000000000E+00  0.00000000000E+00  0.99999998245E-14  0.12500000000E+03  0.12500000000E+03 0.  0.
        -13    1    3    3    0    0  0.24443920440E+02  0.54069089657E+01 -0.28731296159E+02  0.38108246536E+02  0.10566000000E+00 0.  1.
         23    2    1    0    0    0 -0.18544589293E+02 -0.21875784538E+02 -0.52004194893E+00  0.96316865847E+02  0.91946813222E+02 0.  0.
         13    1    3    3    0    0 -0.42988509734E+02 -0.27282693504E+02  0.28211254210E+02  0.58208619311E+02  0.10566000000E+00 0. -1.
         22    1    1    0    0    0  0.18544589293E+02  0.21875784538E+02  0.52004194893E+00  0.28683134153E+02  0.00000000000E+00 0. -1.
</event>
<event>
 5    1  0.1766634E-003  0.9118800E+02  0.7818608E-02  0.1130116E+00
         25   -1    0    0    0    0  0.00000000000E+00  0.00000000000E+00  0.99999998245E-14  0.12500000000E+03  0.12500000000E+03 0.  0.
        -13    1    3    3    0    0  0.32126520036E+01  0.55600876758E+01 -0.48580614341E+02  0.49003295417E+02  0.10566000000E+00 0. -1.
         23    2    1    0    0    0 -0.15966569207E+02  0.25306421838E+02 -0.18304401397E+02  0.89922978619E+02  0.82799424241E+02 0.  0.
         13    1    3    3    0    0 -0.19179221210E+02  0.19746334162E+02  0.30276212944E+02  0.40919683202E+02  0.10566000000E+00 0.  1.
         22    1    1    0    0    0  0.15966569207E+02 -0.25306421838E+02  0.18304401397E+02  0.35077021381E+02  0.00000000000E+00 0. -1.
</event>
<event>
 5    1  0.1766634E-003  0.9118800E+02  0.7818608E-02  0.1130116E+00
         25   -1    0    0    0    0  0.00000000000E+00  0.00000000000E+00  0.99999998245E-14  0.12500000000E+03  0.12500000000E+03 0.  0.
        -13    1    3    3    0    0 -0.32367654077E+01 -0.38601996864E+02  0.72704205864E+01  0.39413969499E+02  0.10566000000E+00 0. -1.
         23    2    1    0    0    0  0.22522138014E+02  0.94506633647E+01  0.17586367445E+02  0.94902789852E+02  0.90003874711E+02 0.  0.
         13    1    3    3    0    0  0.25758903422E+02  0.48052660228E+02  0.10315946859E+02  0.55488820353E+02  0.10566000000E+00 0.  1.
         22    1    1    0    0    0 -0.22522138014E+02 -0.94506633647E+01 -0.17586367445E+02  0.30097210148E+02  0.00000000000E+00 0.  1.
</event>
<event>
 5    1  0.1766634E-003  0.9118800E+02  0.7818608E-02  0.1130116E+00
         25   -1    0    0    0    0  0.00000000000E+00  0.00000000000E+00  0.99999998245E-14  0.12500000000E+03  0.12500000000E+03 0.  0.
        -13    1    3    3    0    0 -0.38263261124E+01  0.43834888676E+02 -0.78948177135E+01  0.44704334773E+02  0.10566000000E+00 0. -1.
         23    2    1    0    0    0 -0.30868843139E+02  0.35151129759E+01 -0.64181066037E+01  0.93275662523E+02  0.87714968112E+02 0.  0.
         13    1    3    3    0    0 -0.27042517026E+02 -0.40319775700E+02  0.14767111098E+01  0.48571327750E+02  0.10566000000E+00 0.  1.
         22    1    1    0    0    0  0.30868843139E+02 -0.35151129759E+01  0.64181066037E+01  0.31724337477E+02  0.00000000000E+00 0.  1.
</event>
<event>
 5    1  0.1766634E-003  0.9118800E+02  0.7818608E-02  0.1130116E+00
         25   -1    0    0    0    0  0.00000000000E+00  0.00000000000E+00  0.99999998245E-14  0.12500000000E+03  0.12500000000E+03 0.  0.
        -13    1    3    3    0    0 -0.24284226975E+02  0.17605211354E+02  0.22757421959E+02  0.37650744546E+02  0.10566000000E+00 0.  1.
         23    2    1    0    0    0  0.27835002023E+02  0.36719284530E+01  0.17639236375E+02  0.91842601789E+02  0.85648411820E+02 0.  0.
         13    1    3    3    0    0  0.52119228998E+02 -0.13933282901E+02 -0.51181855836E+01  0.54191857243E+02  0.10566000000E+00 0. -1.
         22    1    1    0    0    0 -0.27835002023E+02 -0.36719284530E+01 -0.17639236375E+02  0.33157398211E+02  0.00000000000E+00 0. -1.
</event>
<event>
 5    1  0.1766634E-003  0.9118800E+02  0.7818608E-02  0.1130116E+00
         25   -1    0    0    0    0  0.00000000000E+00  0.00000000000E+00  0.99999998245E-14  0.12500000000E+03  0.12500000000E+03 0.  0.
        -13    1    3    3    0    0  0.11213069098E+02 -0.55998095966E+01  0.50800450244E+02  0.52323873090E+02  0.10566000000E+00 0.  1.
         23    2    1    0    0    0  0.21091517914E+02  0.15200761893E+02  0.14727772369E+02  0.95119863304E+02  0.90304849404E+02 0.  0.
         13    1    3    3    0    0  0.98784488169E+01  0.20800571489E+02 -0.36072677875E+02  0.42795990214E+02  0.10566000000E+00 0. -1.
         22    1    1    0    0    0 -0.21091517914E+02 -0.15200761893E+02 -0.14727772369E+02  0.29880136696E+02  0.00000000000E+00 0.  1.
</event>
<event>
 5    1  0.1766634E-003  0.9118800E+02  0.7818608E-02  0.1130116E+00
         25   -1    0    0    0    0  0.00000000000E+00  0.00000000000E+00  0.99999998245E-14  0.12500000000E+03  0.12500000000E+03 0.  0.
        -13    1    3    3    0    0 -0.60927078358E+01  0.34026266541E+02  0.15683898600E+02  0.37959237912E+02  0.10566000000E+00 0.  1.
         23    2    1    0    0    0  0.22672353641E+02 -0.84200053383E+01 -0.13848001209E+02  0.97130675520E+02  0.93046595208E+02 0.  0.
         13    1    3    3    0    0  0.28765061476E+02 -0.42446271880E+02 -0.29531899809E+02  0.59171437608E+02  0.10566000000E+00 0. -1.
         22    1    1    0    0    0 -0.22672353641E+02  0.84200053383E+01  0.13848001209E+02  0.27869324480E+02  0.00000000000E+00 0. -1.
</event>
<event>
 5    1  0.1766634E-003  0.9118800E+02  0.7818608E-02  0.1130116E+00
         25   -1    0    0    0    0  0.00000000000E+00  0.00000000000E+00  0.99999998245E-14  0.12500000000E+03  0.12500000000E+03 0.  0.
        -13    1    3    3    0    0  0.14310265778E+01  0.34121422896E+02  0.12936428111E+02  0.36519606704E+02  0.10566000000E+00 0.  1.
         23    2    1    0    0    0  0.16676334515E+02 -0.20848662288E+02 -0.77508539095E+01  0.97199953446E+02  0.93139617572E+02 0.  0.
         13    1    3    3    0    0  0.15245307938E+02 -0.54970085184E+02 -0.20687282021E+02  0.60680346742E+02  0.10566000000E+00 0. -1.
         22    1    1    0    0    0 -0.16676334515E+02  0.20848662288E+02  0.77508539095E+01  0.27800046554E+02  0.00000000000E+00 0. -1.
</event>
<event>
 5    1  0.1766634E-003  0.9118800E+02  0.7818608E-02  0.1130116E+00
         25   -1    0    0    0    0  0.00000000000E+00  0.00000000000E+00  0.99999998245E-14  0.12500000000E+03  0.12500000000E+03 0.  0.
        -13    1    3    3    0    0  0.39007195778E+02 -0.17228235945E+02 -0.24928007435E+02  0.49394232000E+02  0.10566000000E+00 0. -1.
         23    2    1    0    0    0 -0.46736791212E+01 -0.25870975948E+02 -0.13875434265E+02  0.95273272143E+02  0.90516948886E+02 0.  0.
         13    1    3    3    0    0 -0.43680874899E+02 -0.86427400034E+01  0.11052573170E+02  0.45879040142E+02  0.10566000000E+00 0.  1.
         22    1    1    0    0    0  0.46736791212E+01  0.25870975948E+02  0.13875434265E+02  0.29726727857E+02  0.00000000000E+00 0. -1.
</event>
<event>
 5    1  0.1766634E-003  0.9118800E+02  0.7818608E-02  0.1130116E+00
         25   -1    0    0    0    0  0.00000000000E+00  0.00000000000E+00  0.99999998245E-14  0.12500000000E+03  0.12500000000E+03 0.  0.
        -13    1    3    3    0    0  0.58666844318E+01  0.54825998098E+01  0.59270294051E+02  0.59811836687E+02  0.10566000000E+00 0. -1.
         23    2    1    0    0    0 -0.68849665003E+01  0.11185741228E+02  0.27072607767E+02  0.94909309383E+02  0.90012928769E+02 0.  0.
         13    1    3    3    0    0 -0.12751650932E+02  0.57031414186E+01 -0.32197686284E+02  0.35097472696E+02  0.10566000000E+00 0.  1.
         22    1    1    0    0    0  0.68849665003E+01 -0.11185741228E+02 -0.27072607767E+02  0.30090690617E+02  0.00000000000E+00 0. -1.
</event>
<event>
 5    1  0.1766634E-003  0.9118800E+02  0.7818608E-02  0.1130116E+00
         25   -1    0    0    0    0  0.00000000000E+00  0.00000000000E+00  0.99999998245E-14  0.12500000000E+03  0.12500000000E+03 0.  0.
        -13    1    3    3    0    0  0.13895812645E+02  0.11845869399E+02  0.24877779828E+02  0.30859898316E+02  0.10566000000E+00 0.  1.
         23    2    1    0    0    0 -0.27594757085E+02  0.67484623079E+00 -0.18384956443E+02  0.91834767310E+02  0.85636976986E+02 0.  0.
         13    1    3    3    0    0 -0.41490569730E+02 -0.11171023168E+02 -0.43262736271E+02  0.60974868993E+02  0.10566000000E+00 0. -1.
         22    1    1    0    0    0  0.27594757085E+02 -0.67484623079E+00  0.18384956443E+02  0.33165232690E+02  0.00000000000E+00 0. -1.
</event>
<event>
 5    1  0.1766634E-003  0.9118800E+02  0.7818608E-02  0.1130116E+00
         25   -1    0    0    0    0  0.00000000000E+00  0.00000000000E+00  0.99999998245E-14  0.12500000000E+03  0.12500000000E+03 0.  0.
        -13    1    3    3    0    0  0.76575433405E+01 -0.21931810509E+02 -0.46145214849E+02  0.51662697371E+02  0.10566000000E+00 0.  1.
         23    2    1    0    0    0  0.18858403720E+02 -0.22492511840E+02 -0.38778342835E+01  0.95392736053E+02  0.90681773324E+02 0.  0.
         13    1    3    3    0    0  0.11200860379E+02 -0.56070133040E+00  0.42267380565E+02  0.43730038681E+02  0.10566000000E+00 0. -1.
         22    1    1    0    0    0 -0.18858403720E+02  0.22492511840E+02  0.38778342835E+01  0.29607263947E+02  0.00000000000E+00 0.  1.
</event>
<event>
 5    1  0.1766634E-003  0.9118800E+02  0.7818608E-02  0.1130116E+00
         25   -1    0    0    0    0  0.00000000000E+00  0.00000000000E+00  0.99999998245E-14  0.12500000000E+03  0.12500000000E+03 0.  0.
        -13    1    3    3    0    0 -0.29146309899E+02 -0.24344450600E+02 -0.24148612876E+01  0.38052626386E+02  0.10566000000E+00 0.  1.
         23    2    1    0    0    0 -0.53690506000E+01  0.25099008314E+02  0.14570998578E+02  0.95485581112E+02  0.90809665114E+02 0.  0.
         13    1    3    3    0    0  0.23777259299E+02  0.49443458915E+02  0.16985859866E+02  0.57432954727E+02  0.10566000000E+00 0. -1.
         22    1    1    0    0    0  0.53690506000E+01 -0.25099008314E+02 -0.14570998578E+02  0.29514418888E+02  0.00000000000E+00 0. -1.
</event>
<event>
 5    1  0.1766634E-003  0.9118800E+02  0.7818608E-02  0.1130116E+00
         25   -1    0    0    0    0  0.00000000000E+00  0.00000000000E+00  0.99999998245E-14  0.12500000000E+03  0.12500000000E+03 0.  0.
        -13    1    3    3    0    0  0.45377899113E+02  0.30228776771E+02  0.18070719277E+02  0.57441228505E+02  0.10566000000E+00 0. -1.
         23    2    1    0    0    0  0.12380672372E+02  0.28159343895E+02  0.20759750780E+01  0.94169181499E+02  0.88979185064E+02 0.  0.
         13    1    3    3    0    0 -0.32997226742E+02 -0.20694328764E+01 -0.15994744199E+02  0.36727952993E+02  0.10566000000E+00 0.  1.
         22    1    1    0    0    0 -0.12380672372E+02 -0.28159343895E+02 -0.20759750780E+01  0.30830818501E+02  0.00000000000E+00 0. -1.
</event>
<event>
 5    1  0.1766634E-003  0.9118800E+02  0.7818608E-02  0.1130116E+00
         25   -1    0    0    0    0  0.00000000000E+00  0.00000000000E+00  0.99999998245E-14  0.12500000000E+03  0.12500000000E+03 0.  0.
        -13    1    3    3    0    0 -0.16197906823E+02 -0.15813112552E+01 -0.35461439338E+02  0.39017913510E+02  0.10566000000E+00 0.  1.
         23    2    1    0    0    0 -0.18861224787E+01  0.27124638784E+02  0.11160642391E+02  0.95608446353E+02  0.90978632592E+02 0.  0.
         13    1    3    3    0    0  0.14311784344E+02  0.28705950039E+02  0.46622081729E+02  0.56590532844E+02  0.10566000000E+00 0. -1.
         22    1    1    0    0    0  0.18861224787E+01 -0.27124638784E+02 -0.11160642391E+02  0.29391553647E+02  0.00000000000E+00 0. -1.
</event>
<event>
 5    1  0.1766634E-003  0.9118800E+02  0.7818608E-02  0.1130116E+00
         25   -1    0    0    0    0  0.00000000000E+00  0.00000000000E+00  0.99999998245E-14  0.12500000000E+03  0.12500000000E+03 0.  0.
        -13    1    3    3    0    0 -0.35029359327E+02  0.25894696979E+02 -0.36760827449E+02  0.56999657414E+02  0.10566000000E+00 0.  1.
         23    2    1    0    0    0 -0.56040363645E+01  0.27052531673E+02 -0.15487203273E+02  0.93328275091E+02  0.87789912705E+02 0.  0.
         13    1    3    3    0    0  0.29425322963E+02  0.11578346936E+01  0.21273624177E+02  0.36328617677E+02  0.10566000000E+00 0. -1.
         22    1    1    0    0    0  0.56040363645E+01 -0.27052531673E+02  0.15487203273E+02  0.31671724909E+02  0.00000000000E+00 0.  1.
</event>
<event>
 5    1  0.1766634E-003  0.9118800E+02  0.7818608E-02  0.1130116E+00
         25   -1    0    0    0    0  0.00000000000E+00  0.00000000000E+00  0.99999998245E-14  0.12500000000E+03  0.12500000000E+03 0.  0.
        -13    1    3    3    0    0 -0.32955612045E+02  0.34698505928E+02  0.30369144594E+01  0.47950940474E+02  0.10566000000E+00 0. -1.
         23    2    1    0    0    0  0.14417615802E+02  0.20454592873E+02  0.10277873478E+02  0.97946484549E+02  0.94136183995E+02 0.  0.
         13    1    3    3    0    0  0.47373227847E+02 -0.14243913055E+02  0.72409590183E+01  0.49995544075E+02  0.10566000000E+00 0.  1.
         22    1    1    0    0    0 -0.14417615802E+02 -0.20454592873E+02 -0.10277873478E+02  0.27053515451E+02  0.00000000000E+00 0. -1.
</event>
<event>
 5    1  0.1766634E-003  0.9118800E+02  0.7818608E-02  0.1130116E+00
         25   -1    0    0    0    0  0.00000000000E+00  0.00000000000E+00  0.99999998245E-14  0.12500000000E+03  0.12500000000E+03 0.  0.
        -13    1    3    3    0    0  0.34450780880E+02 -0.19010557423E+02  0.17975918901E+02  0.43259708981E+02  0.10566000000E+00 0. -1.
         23    2    1    0    0    0 -0.25267254066E+01 -0.19943577949E+02 -0.20259628849E+02  0.96459095954E+02  0.92139969549E+02 0.  0.
         13    1    3    3    0    0 -0.36977506286E+02 -0.93302052586E+00 -0.38235547750E+02  0.53199386973E+02  0.10566000000E+00 0.  1.
         22    1    1    0    0    0  0.25267254066E+01  0.19943577949E+02  0.20259628849E+02  0.28540904046E+02  0.00000000000E+00 0.  1.
</event>
<event>
 5    1  0.1766634E-003  0.9118800E+02  0.7818608E-02  0.1130116E+00
         25   -1    0    0    0    0  0.00000000000E+00  0.00000000000E+00  0.99999998245E-14  0.12500000000E+03  0.12500000000E+03 0.  0.
        -13    1    3    3    0    0  0.10534294950E+02 -0.27715658470E+01 -0.35381081860E+02  0.37020063006E+02  0.10566000000E+00 0.  1.
         23    2    1    0    0    0  0.13994756782E+02 -0.10436338551E+02  0.23067766455E+02  0.96070910333E+02  0.91611831022E+02 0.  0.
         13    1    3    3    0    0  0.34604618325E+01 -0.76647727036E+01  0.58448848315E+02  0.59050847327E+02  0.10566000000E+00 0. -1.
         22    1    1    0    0    0 -0.13994756782E+02  0.10436338551E+02 -0.23067766455E+02  0.28929089667E+02  0.00000000000E+00 0. -1.
</event>
<event>
 5    1  0.1766634E-003  0.9118800E+02  0.7818608E-02  0.1130116E+00
         25   -1    0    0    0    0  0.00000000000E+00  0.00000000000E+00  0.99999998245E-14  0.12500000000E+03  0.12500000000E+03 0.  0.
        -13    1    3    3    0    0 -0.28072348580E+02  0.39074738105E+02 -0.38079957647E+02  0.61359483792E+02  0.10566000000E+00 0. -1.
         23    2    1    0    0    0 -0.22896183521E+02  0.23925817151E+02 -0.17160765457E+02  0.87701584253E+02  0.79375034257E+02 0.  0.
         13    1    3    3    0    0  0.51761650598E+01 -0.15148920954E+02  0.20919192190E+02  0.26342100461E+02  0.10566000000E+00 0.  1.
         22    1    1    0    0    0  0.22896183521E+02 -0.23925817151E+02  0.17160765457E+02  0.37298415747E+02  0.00000000000E+00 0. -1.
</event>
<event>
 5    1  0.1766634E-003  0.9118800E+02  0.7818608E-02  0.1130116E+00
         25   -1    0    0    0    0  0.00000000000E+00  0.00000000000E+00  0.99999998245E-14  0.12500000000E+03  0.12500000000E+03 0.  0.
        -13    1    3    3    0    0  0.16464011173E+02  0.51850745586E+02 -0.27917156728E+02  0.61146891054E+02  0.10566000000E+00 0. -1.
         23    2    1    0    0    0  0.35430891061E+01  0.20994427195E+02 -0.20566716218E+02  0.95397478660E+02  0.90688310520E+02 0.  0.
         13    1    3    3    0    0 -0.12920922067E+02 -0.30856318390E+02  0.73504405094E+01  0.34250587606E+02  0.10566000000E+00 0.  1.
         22    1    1    0    0    0 -0.35430891061E+01 -0.20994427195E+02  0.20566716218E+02  0.29602521340E+02  0.00000000000E+00 0. -1.
</event>
<event>
 5    1  0.1766634E-003  0.9118800E+02  0.7818608E-02  0.1130116E+00
         25   -1    0    0    0    0  0.00000000000E+00  0.00000000000E+00  0.99999998245E-14  0.12500000000E+03  0.12500000000E+03 0.  0.
        -13    1    3    3    0    0  0.31187961549E+02 -0.33418164474E+02 -0.90363289450E+00  0.45719693556E+02  0.10566000000E+00 0.  1.
         23    2    1    0    0    0 -0.17148698147E+02 -0.23337520412E+02 -0.62109615272E+01  0.95380855005E+02  0.90665394453E+02 0.  0.
         13    1    3    3    0    0 -0.48336659696E+02  0.10080644062E+02 -0.53073286327E+01  0.49661161449E+02  0.10566000000E+00 0. -1.
         22    1    1    0    0    0  0.17148698147E+02  0.23337520412E+02  0.62109615272E+01  0.29619144995E+02  0.00000000000E+00 0.  1.
</event>
<event>
 5    1  0.1766634E-003  0.9118800E+02  0.7818608E-02  0.1130116E+00
         25   -1    0    0    0    0  0.00000000000E+00  0.00000000000E+00  0.99999998245E-14  0.12500000000E+03  0.12500000000E+03 0.  0.
        -13    1    3    3    0    0  0.94408071024E+01 -0.14629668694E+02 -0.31319610204E+02  0.35834134456E+02  0.10566000000E+00 0.  1.
         23    2    1    0    0    0 -0.22422940643E+02  0.18523581921E+02  0.62948838796E+01  0.95242027668E+02  0.90473791326E+02 0.  0.
         13    1    3    3    0    0 -0.31863747745E+02  0.33153250615E+02  0.37614494083E+02  0.59407893212E+02  0.10566000000E+00 0. -1.
         22    1    1    0    0    0  0.22422940643E+02 -0.18523581921E+02 -0.62948838796E+01  0.29757972332E+02  0.00000000000E+00 0. -1.
</event>
<event>
 5    1  0.1766634E-003  0.9118800E+02  0.7818608E-02  0.1130116E+00
         25   -1    0    0    0    0  0.00000000000E+00  0.00000000000E+00  0.99999998245E-14  0.12500000000E+03  0.12500000000E+03 0.  0.
        -13    1    3    3    0    0  0.49685907639E+02  0.29469232513E+02  0.18155660764E+02  0.60553812965E+02  0.10566000000E+00 0.  1.
         23    2    1    0    0    0  0.20515381000E+02  0.21644558568E+02  0.12809471928E+01  0.95150232850E+02  0.90346877160E+02 0.  0.
         13    1    3    3    0    0 -0.29170526639E+02 -0.78246739453E+01 -0.16874713571E+02  0.34596419885E+02  0.10566000000E+00 0. -1.
         22    1    1    0    0    0 -0.20515381000E+02 -0.21644558568E+02 -0.12809471928E+01  0.29849767150E+02  0.00000000000E+00 0.  1.
</event>
<event>
 5    1  0.1766634E-003  0.9118800E+02  0.7818608E-02  0.1130116E+00
         25   -1    0    0    0    0  0.00000000000E+00  0.00000000000E+00  0.99999998245E-14  0.12500000000E+03  0.12500000000E+03 0.  0.
        -13    1    3    3    0    0 -0.43247599250E+02  0.27283413640E+02 -0.10047300757E+02  0.52112368179E+02  0.10566000000E+00 0. -1.
         23    2    1    0    0    0  0.60416018739E+00  0.25162961543E+02 -0.14009031489E+02  0.96193879012E+02  0.91779462588E+02 0.  0.
         13    1    3    3    0    0  0.43851759437E+02 -0.21204520974E+01 -0.39617307323E+01  0.44081510832E+02  0.10566000000E+00 0.  1.
         22    1    1    0    0    0 -0.60416018739E+00 -0.25162961543E+02  0.14009031489E+02  0.28806120988E+02  0.00000000000E+00 0. -1.
</event>
<event>
 5    1  0.1766634E-003  0.9118800E+02  0.7818608E-02  0.1130116E+00
         25   -1    0    0    0    0  0.00000000000E+00  0.00000000000E+00  0.99999998245E-14  0.12500000000E+03  0.12500000000E+03 0.  0.
        -13    1    3    3    0    0 -0.57962951985E+01  0.24333538450E+02  0.49996501613E+02  0.55905093410E+02  0.10566000000E+00 0.  1.
         23    2    1    0    0    0  0.16874906281E+02  0.14093304475E+02  0.29908791408E+02  0.87879661956E+02  0.79654977804E+02 0.  0.
         13    1    3    3    0    0  0.22671201480E+02 -0.10240233975E+02 -0.20087710206E+02  0.31974568546E+02  0.10566000000E+00 0. -1.
         22    1    1    0    0    0 -0.16874906281E+02 -0.14093304475E+02 -0.29908791408E+02  0.37120338044E+02  0.00000000000E+00 0.  1.
</event>
<event>
 5    1  0.1766634E-003  0.9118800E+02  0.7818608E-02  0.1130116E+00
         25   -1    0    0    0    0  0.00000000000E+00  0.00000000000E+00  0.99999998245E-14  0.12500000000E+03  0.12500000000E+03 0.  0.
        -13    1    3    3    0    0 -0.40659654296E+02 -0.11318716244E+01  0.23203781916E+02  0.46828573330E+02  0.10566000000E+00 0.  1.
         23    2    1    0    0    0 -0.20764714010E+02  0.31827252357E+01 -0.20877033086E+02  0.95383221000E+02  0.90668656381E+02 0.  0.
         13    1    3    3    0    0  0.19894940285E+02  0.43145968602E+01 -0.44080815003E+02  0.48554647670E+02  0.10566000000E+00 0. -1.
         22    1    1    0    0    0  0.20764714010E+02 -0.31827252357E+01  0.20877033086E+02  0.29616779000E+02  0.00000000000E+00 0. -1.
</event>
<event>
 5    1  0.1766634E-003  0.9118800E+02  0.7818608E-02  0.1130116E+00
         25   -1    0    0    0    0  0.00000000000E+00  0.00000000000E+00  0.99999998245E-14  0.12500000000E+03  0.12500000000E+03 0.  0.
        -13    1    3    3    0    0 -0.36468361314E+02 -0.26429532523E+02 -0.52898548893E+01  0.45348156469E+02  0.10566000000E+00 0.  1.
         23    2    1    0    0    0  0.28798222225E+01 -0.72096165229E+01 -0.28883691102E+02  0.95091145824E+02  0.90265089907E+02 0.  0.
         13    1    3    3    0    0  0.39348183537E+02  0.19219916000E+02 -0.23593836213E+02  0.49742989355E+02  0.10566000000E+00 0. -1.
         22    1    1    0    0    0 -0.28798222225E+01  0.72096165229E+01  0.28883691102E+02  0.29908854176E+02  0.00000000000E+00 0.  1.
</event>
<event>
 5    1  0.1766634E-003  0.9118800E+02  0.7818608E-02  0.1130116E+00
         25   -1    0    0    0    0  0.00000000000E+00  0.00000000000E+00  0.99999998245E-14  0.12500000000E+03  0.12500000000E+03 0.  0.
        -13    1    3    3    0    0  0.16919139847E+02 -0.34054667447E+02  0.57222654889E+00  0.38030465096E+02  0.10566000000E+00 0.  1.
         23    2    1    0    0    0 -0.13684735324E+02  0.15828847769E+02 -0.15776757616E+02  0.98794457008E+02  0.95255520848E+02 0.  0.
         13    1    3    3    0    0 -0.30603875172E+02  0.49883515217E+02 -0.16348984165E+02  0.60763991913E+02  0.10566000000E+00 0. -1.
         22    1    1    0    0    0  0.13684735324E+02 -0.15828847769E+02  0.15776757616E+02  0.26205542992E+02  0.00000000000E+00 0. -1.
</event>
<event>
 5    1  0.1766634E-003  0.9118800E+02  0.7818608E-02  0.1130116E+00
         25   -1    0    0    0    0  0.00000000000E+00  0.00000000000E+00  0.99999998245E-14  0.12500000000E+03  0.12500000000E+03 0.  0.
        -13    1    3    3    0    0 -0.20603008958E+02  0.44116352572E+02  0.28955009880E+02  0.56649274519E+02  0.10566000000E+00 0.  1.
         23    2    1    0    0    0  0.23826209130E+01  0.28254340384E+02  0.32663282960E+00  0.96643495949E+02  0.92389793740E+02 0.  0.
         13    1    3    3    0    0  0.22985629871E+02 -0.15862012188E+02 -0.28628377051E+02  0.39994221430E+02  0.10566000000E+00 0. -1.
         22    1    1    0    0    0 -0.23826209130E+01 -0.28254340384E+02 -0.32663282960E+00  0.28356504051E+02  0.00000000000E+00 0. -1.
</event>
<event>
 5    1  0.1766634E-003  0.9118800E+02  0.7818608E-02  0.1130116E+00
         25   -1    0    0    0    0  0.00000000000E+00  0.00000000000E+00  0.99999998245E-14  0.12500000000E+03  0.12500000000E+03 0.  0.
        -13    1    3    3    0    0 -0.14992776559E+02 -0.41647973917E+02  0.43690296586E+02  0.62194776792E+02  0.10566000000E+00 0. -1.
         23    2    1    0    0    0 -0.96489042876E+01 -0.19522984484E+02  0.16358908989E+02  0.97762852932E+02  0.93892029656E+02 0.  0.
         13    1    3    3    0    0  0.53438722718E+01  0.22124989434E+02 -0.27331387597E+02  0.35568076140E+02  0.10566000000E+00 0.  1.
         22    1    1    0    0    0  0.96489042876E+01  0.19522984484E+02 -0.16358908989E+02  0.27237147068E+02  0.00000000000E+00 0. -1.
</event>
<event>
 5    1  0.1766634E-003  0.9118800E+02  0.7818608E-02  0.1130116E+00
         25   -1    0    0    0    0  0.00000000000E+00  0.00000000000E+00  0.99999998245E-14  0.12500000000E+03  0.12500000000E+03 0.  0.
        -13    1    3    3    0    0 -0.71604288659E+01 -0.61597552546E+01 -0.43899472501E+02  0.44904222254E+02  0.10566000000E+00 0.  1.
         23    2    1    0    0    0 -0.24763700966E+02 -0.18216073201E+02  0.59758354036E+00  0.94252263263E+02  0.89095823783E+02 0.  0.
         13    1    3    3    0    0 -0.17603272100E+02 -0.12056317947E+02  0.44497056041E+02  0.49348041009E+02  0.10566000000E+00 0. -1.
         22    1    1    0    0    0  0.24763700966E+02  0.18216073201E+02 -0.59758354036E+00  0.30747736737E+02  0.00000000000E+00 0. -1.
</event>
<event>
 5    1  0.1766634E-003  0.9118800E+02  0.7818608E-02  0.1130116E+00
         25   -1    0    0    0    0  0.00000000000E+00  0.00000000000E+00  0.99999998245E-14  0.12500000000E+03  0.12500000000E+03 0.  0.
        -13    1    3    3    0    0  0.13503514331E+02 -0.36291006496E+02 -0.22014376137E+02  0.44542406452E+02  0.10566000000E+00 0.  1.
         23    2    1    0    0    0 -0.26561063051E+02 -0.62042631635E+01 -0.82922811938E+01  0.96491319231E+02  0.92183674301E+02 0.  0.
         13    1    3    3    0    0 -0.40064577382E+02  0.30086743333E+02  0.13722094943E+02  0.51948912779E+02  0.10566000000E+00 0. -1.
         22    1    1    0    0    0  0.26561063051E+02  0.62042631635E+01  0.82922811938E+01  0.28508680769E+02  0.00000000000E+00 0. -1.
</event>
<event>
 5    1  0.1766634E-003  0.9118800E+02  0.7818608E-02  0.1130116E+00
         25   -1    0    0    0    0  0.00000000000E+00  0.00000000000E+00  0.99999998245E-14  0.12500000000E+03  0.12500000000E+03 0.  0.
        -13    1    3    3    0    0  0.75410053428E+01  0.23806310257E+01 -0.44782770157E+02  0.45475727951E+02  0.10566000000E+00 0. -1.
         23    2    1    0    0    0  0.12940427104E+02 -0.27059139509E+02 -0.60903140207E+01  0.94393732514E+02  0.89294082270E+02 0.  0.
         13    1    3    3    0    0  0.53994217615E+01 -0.29439770534E+02  0.38692456137E+02  0.48918004563E+02  0.10566000000E+00 0.  1.
         22    1    1    0    0    0 -0.12940427104E+02  0.27059139509E+02  0.60903140207E+01  0.30606267486E+02  0.00000000000E+00 0.  1.
</event>
<event>
 5    1  0.1766634E-003  0.9118800E+02  0.7818608E-02  0.1130116E+00
         25   -1    0    0    0    0  0.00000000000E+00  0.00000000000E+00  0.99999998245E-14  0.12500000000E+03  0.12500000000E+03 0.  0.
        -13    1    3    3    0    0 -0.17535740398E+02  0.13820184332E+01  0.42966099767E+02  0.46427460187E+02  0.10566000000E+00 0. -1.
         23    2    1    0    0    0  0.23772508463E+02  0.18585378718E+01  0.21054723700E+02  0.93189817484E+02  0.87592547462E+02 0.  0.
         13    1    3    3    0    0  0.41308248861E+02  0.47651943864E+00 -0.21911376066E+02  0.46762357296E+02  0.10566000000E+00 0.  1.
         22    1    1    0    0    0 -0.23772508463E+02 -0.18585378718E+01 -0.21054723700E+02  0.31810182516E+02  0.00000000000E+00 0.  1.
</event>
<event>
 5    1  0.1766634E-003  0.9118800E+02  0.7818608E-02  0.1130116E+00
         25   -1    0    0    0    0  0.00000000000E+00  0.00000000000E+00  0.99999998245E-14  0.12500000000E+03  0.12500000000E+03 0.  0.
        -13    1    3    3    0    0 -0.16382843245E+02  0.45320558354E+02 -0.36903120225E+02  0.60697627702E+02  0.10566000000E+00 0. -1.
         23    2    1    0    0    0 -0.71830975849E+01  0.12883728800E+02 -0.24061851081E+02  0.96776604808E+02  0.92569709960E+02 0.  0.
         13    1    3    3    0    0  0.91997456604E+01 -0.32436829554E+02  0.12841269144E+02  0.36078977106E+02  0.10566000000E+00 0.  1.
         22    1    1    0    0    0  0.71830975849E+01 -0.12883728800E+02  0.24061851081E+02  0.28223395192E+02  0.00000000000E+00 0. -1.
</event>
<event>
 5    1  0.1766634E-003  0.9118800E+02  0.7818608E-02  0.1130116E+00
         25   -1    0    0    0    0  0.00000000000E+00  0.00000000000E+00  0.99999998245E-14  0.12500000000E+03  0.12500000000E+03 0.  0.
        -13    1    3    3    0    0 -0.40992126483E+02 -0.26755429273E+02  0.32584283498E+02  0.58804371642E+02  0.10566000000E+00 0. -1.
         23    2    1    0    0    0 -0.26919395157E+02 -0.87176210148E+00  0.88107165950E+01  0.96661994924E+02  0.92414818784E+02 0.  0.
         13    1    3    3    0    0  0.14072731325E+02  0.25883667171E+02 -0.23773566903E+02  0.37857623281E+02  0.10566000000E+00 0.  1.
         22    1    1    0    0    0  0.26919395157E+02  0.87176210148E+00 -0.88107165950E+01  0.28338005076E+02  0.00000000000E+00 0. -1.
</event>
<event>
 5    1  0.1766634E-003  0.9118800E+02  0.7818608E-02  0.1130116E+00
         25   -1    0    0    0    0  0.00000000000E+00  0.00000000000E+00  0.99999998245E-14  0.12500000000E+03  0.12500000000E+03 0.  0.
        -13    1    3    3    0    0  0.89013283193E-01 -0.53677088871E+02 -0.31197729603E+02  0.62085000519E+02  0.10566000000E+00 0.  1.
         23    2    1    0    0    0 -0.13700399529E+01 -0.27375881062E+02 -0.10266802229E+02  0.95730167384E+02  0.91145717650E+02 0.  0.
         13    1    3    3    0    0 -0.14590532361E+01  0.26301207810E+02  0.20930927374E+02  0.33645166865E+02  0.10566000000E+00 0. -1.
         22    1    1    0    0    0  0.13700399529E+01  0.27375881062E+02  0.10266802229E+02  0.29269832616E+02  0.00000000000E+00 0.  1.
</event>
<event>
 5    1  0.1766634E-003  0.9118800E+02  0.7818608E-02  0.1130116E+00
         25   -1    0    0    0    0  0.00000000000E+00  0.00000000000E+00  0.99999998245E-14  0.12500000000E+03  0.12500000000E+03 0.  0.
        -13    1    3    3    0    0  0.60538655284E+00 -0.10180845705E+02  0.45749872796E+02  0.46873000085E+02  0.10566000000E+00 0. -1.
         23    2    1    0    0    0  0.24933110291E+02 -0.10356127000E+02  0.79356579214E+00  0.97990018477E+02  0.94193973370E+02 0.  0.
         13    1    3    3    0    0  0.24327723738E+02 -0.17528129501E+00 -0.44956307004E+02  0.51117018391E+02  0.10566000000E+00 0.  1.
         22    1    1    0    0    0 -0.24933110291E+02  0.10356127000E+02 -0.79356579214E+00  0.27009981523E+02  0.00000000000E+00 0. -1.
</event>
<event>
 5    1  0.1766634E-003  0.9118800E+02  0.7818608E-02  0.1130116E+00
         25   -1    0    0    0    0  0.00000000000E+00  0.00000000000E+00  0.99999998245E-14  0.12500000000E+03  0.12500000000E+03 0.  0.
        -13    1    3    3    0    0  0.47791788556E+02 -0.26520884981E+02  0.24308773533E+02  0.59819227915E+02  0.10566000000E+00 0.  1.
         23    2    1    0    0    0  0.27213405405E+02 -0.10378813097E+02 -0.50309333496E+00  0.95870250637E+02  0.91337630029E+02 0.  0.
         13    1    3    3    0    0 -0.20578383151E+02  0.16142071884E+02 -0.24811866868E+02  0.36051022723E+02  0.10566000000E+00 0. -1.
         22    1    1    0    0    0 -0.27213405405E+02  0.10378813097E+02  0.50309333496E+00  0.29129749363E+02  0.00000000000E+00 0.  1.
</event>
<event>
 5    1  0.1766634E-003  0.9118800E+02  0.7818608E-02  0.1130116E+00
         25   -1    0    0    0    0  0.00000000000E+00  0.00000000000E+00  0.99999998245E-14  0.12500000000E+03  0.12500000000E+03 0.  0.
        -13    1    3    3    0    0 -0.19135758505E+02 -0.68026064650E+01  0.36989479189E+02  0.42198168716E+02  0.10566000000E+00 0. -1.
         23    2    1    0    0    0  0.26934287138E+02 -0.44645234733E+01  0.85458002091E+01  0.96391985481E+02  0.92048880332E+02 0.  0.
         13    1    3    3    0    0  0.46070045643E+02  0.23380829917E+01 -0.28443678980E+02  0.54193816765E+02  0.10566000000E+00 0.  1.
         22    1    1    0    0    0 -0.26934287138E+02  0.44645234733E+01 -0.85458002091E+01  0.28608014519E+02  0.00000000000E+00 0.  1.
</event>
<event>
 5    1  0.1766634E-003  0.9118800E+02  0.7818608E-02  0.1130116E+00
         25   -1    0    0    0    0  0.00000000000E+00  0.00000000000E+00  0.99999998245E-14  0.12500000000E+03  0.12500000000E+03 0.  0.
        -13    1    3    3    0    0 -0.38591273572E+02 -0.19547381589E-01 -0.17813109076E+02  0.42504173878E+02  0.10566000000E+00 0.  1.
         23    2    1    0    0    0  0.12267577408E+02 -0.15529424739E+02 -0.21469105124E+02  0.95801045173E+02  0.91242869821E+02 0.  0.
         13    1    3    3    0    0  0.50858850980E+02 -0.15509877358E+02 -0.36559960471E+01  0.53296871295E+02  0.10566000000E+00 0. -1.
         22    1    1    0    0    0 -0.12267577408E+02  0.15529424739E+02  0.21469105124E+02  0.29198954827E+02  0.00000000000E+00 0.  1.
</event>
<event>
 5    1  0.1766634E-003  0.9118800E+02  0.7818608E-02  0.1130116E+00
         25   -1    0    0    0    0  0.00000000000E+00  0.00000000000E+00  0.99999998245E-14  0.12500000000E+03  0.12500000000E+03 0.  0.
        -13    1    3    3    0    0  0.45413818196E+01 -0.44038444310E+01 -0.46747824366E+02  0.47174020833E+02  0.10566000000E+00 0.  1.
         23    2    1    0    0    0 -0.24705245088E+02  0.10741633944E+02 -0.10670107064E+02  0.96024440999E+02  0.91548403863E+02 0.  0.
         13    1    3    3    0    0 -0.29246626908E+02  0.15145478375E+02  0.36077717302E+02  0.48850420166E+02  0.10566000000E+00 0. -1.
         22    1    1    0    0    0  0.24705245088E+02 -0.10741633944E+02  0.10670107064E+02  0.28975559001E+02  0.00000000000E+00 0. -1.
</event>
<event>
 5    1  0.1766634E-003  0.9118800E+02  0.7818608E-02  0.1130116E+00
         25   -1    0    0    0    0  0.00000000000E+00  0.00000000000E+00  0.99999998245E-14  0.12500000000E+03  0.12500000000E+03 0.  0.
        -13    1    3    3    0    0 -0.22966205362E+02 -0.32322245037E+02  0.17842426364E+02  0.43480311125E+02  0.10566000000E+00 0.  1.
         23    2    1    0    0    0 -0.50553380051E+01  0.18453258294E+02  0.19942661849E+02  0.97363268181E+02  0.93358540291E+02 0.  0.
         13    1    3    3    0    0  0.17910867357E+02  0.50775503331E+02  0.21002354855E+01  0.53882957056E+02  0.10566000000E+00 0. -1.
         22    1    1    0    0    0  0.50553380051E+01 -0.18453258294E+02 -0.19942661849E+02  0.27636731819E+02  0.00000000000E+00 0. -1.
</event>
<event>
 5    1  0.1766634E-003  0.9118800E+02  0.7818608E-02  0.1130116E+00
         25   -1    0    0    0    0  0.00000000000E+00  0.00000000000E+00  0.99999998245E-14  0.12500000000E+03  0.12500000000E+03 0.  0.
        -13    1    3    3    0    0  0.28362850825E+02 -0.21605318172E+01 -0.19971244693E+02  0.34756020820E+02  0.10566000000E+00 0.  1.
         23    2    1    0    0    0 -0.39086564886E+01  0.59870489587E+01  0.29646475349E+02  0.94503510835E+02  0.89447625506E+02 0.  0.
         13    1    3    3    0    0 -0.32271507313E+02  0.81475807759E+01  0.49617720042E+02  0.59747490014E+02  0.10566000000E+00 0. -1.
         22    1    1    0    0    0  0.39086564886E+01 -0.59870489587E+01 -0.29646475349E+02  0.30496489165E+02  0.00000000000E+00 0. -1.
</event>
<event>
 5    1  0.1766634E-003  0.9118800E+02  0.7818608E-02  0.1130116E+00
         25   -1    0    0    0    0  0.00000000000E+00  0.00000000000E+00  0.99999998245E-14  0.12500000000E+03  0.12500000000E+03 0.  0.
        -13    1    3    3    0    0 -0.36975834029E+02  0.29775689805E+02  0.25520096213E+02  0.53898891271E+02  0.10566000000E+00 0.  1.
         23    2    1    0    0    0  0.28414862018E+01  0.24065804823E+02  0.17982324098E+02  0.94823834147E+02  0.89894151850E+02 0.  0.
         13    1    3    3    0    0  0.39817320231E+02 -0.57098849816E+01 -0.75377721156E+01  0.40924942876E+02  0.10566000000E+00 0. -1.
         22    1    1    0    0    0 -0.28414862018E+01 -0.24065804823E+02 -0.17982324098E+02  0.30176165853E+02  0.00000000000E+00 0.  1.
</event>
<event>
 5    1  0.1766634E-003  0.9118800E+02  0.7818608E-02  0.1130116E+00
         25   -1    0    0    0    0  0.00000000000E+00  0.00000000000E+00  0.99999998245E-14  0.12500000000E+03  0.12500000000E+03 0.  0.
        -13    1    3    3    0    0  0.72042707626E+00  0.15057842989E+02  0.29066864844E+02  0.32743723773E+02  0.10566000000E+00 0.  1.
         23    2    1    0    0    0  0.35620297378E+01 -0.35319180861E+02  0.34413078801E+01  0.89335238786E+02  0.81907323827E+02 0.  0.
         13    1    3    3    0    0  0.28416026615E+01 -0.50377023850E+02 -0.25625556964E+02  0.56591515013E+02  0.10566000000E+00 0. -1.
         22    1    1    0    0    0 -0.35620297378E+01  0.35319180861E+02 -0.34413078801E+01  0.35664761214E+02  0.00000000000E+00 0. -1.
</event>
<event>
 5    1  0.1766634E-003  0.9118800E+02  0.7818608E-02  0.1130116E+00
         25   -1    0    0    0    0  0.00000000000E+00  0.00000000000E+00  0.99999998245E-14  0.12500000000E+03  0.12500000000E+03 0.  0.
        -13    1    3    3    0    0 -0.69747378681E+01 -0.15533859681E+02  0.27277053210E+02  0.32155816904E+02  0.10566000000E+00 0.  1.
         23    2    1    0    0    0 -0.69526961566E+00  0.14511594364E+02 -0.26901987370E+02  0.94425718401E+02  0.89338847095E+02 0.  0.
         13    1    3    3    0    0  0.62794682525E+01  0.30045454045E+02 -0.54179040580E+02  0.62269901497E+02  0.10566000000E+00 0. -1.
         22    1    1    0    0    0  0.69526961566E+00 -0.14511594364E+02  0.26901987370E+02  0.30574281599E+02  0.00000000000E+00 0. -1.
</event>
<event>
 5    1  0.1766634E-003  0.9118800E+02  0.7818608E-02  0.1130116E+00
         25   -1    0    0    0    0  0.00000000000E+00  0.00000000000E+00  0.99999998245E-14  0.12500000000E+03  0.12500000000E+03 0.  0.
        -13    1    3    3    0    0 -0.26973261917E+02 -0.20661453443E+02  0.53799622702E+01  0.34400692942E+02  0.10566000000E+00 0. -1.
         23    2    1    0    0    0  0.19538621516E+02  0.18817702230E+02  0.11129259161E+02  0.95678948562E+02  0.91075447517E+02 0.  0.
         13    1    3    3    0    0  0.46511883433E+02  0.39479155673E+02  0.57492968908E+01  0.61278255620E+02  0.10566000000E+00 0.  1.
         22    1    1    0    0    0 -0.19538621516E+02 -0.18817702230E+02 -0.11129259161E+02  0.29321051438E+02  0.00000000000E+00 0.  1.
</event>
<event>
 5    1  0.1766634E-003  0.9118800E+02  0.7818608E-02  0.1130116E+00
         25   -1    0    0    0    0  0.00000000000E+00  0.00000000000E+00  0.99999998245E-14  0.12500000000E+03  0.12500000000E+03 0.  0.
        -13    1    3    3    0    0 -0.30645441117E+02 -0.36221331354E+02  0.30306422407E+02  0.56299363313E+02  0.10566000000E+00 0.  1.
         23    2    1    0    0    0 -0.93633028945E+01 -0.38822332651E+02  0.16567689269E+02  0.81764212956E+02  0.69397789871E+02 0.  0.
         13    1    3    3    0    0  0.21282138223E+02 -0.26010012977E+01 -0.13738733138E+02  0.25464849643E+02  0.10566000000E+00 0. -1.
         22    1    1    0    0    0  0.93633028945E+01  0.38822332651E+02 -0.16567689269E+02  0.43235787044E+02  0.00000000000E+00 0. -1.
</event>
<event>
 5    1  0.1766634E-003  0.9118800E+02  0.7818608E-02  0.1130116E+00
         25   -1    0    0    0    0  0.00000000000E+00  0.00000000000E+00  0.99999998245E-14  0.12500000000E+03  0.12500000000E+03 0.  0.
        -13    1    3    3    0    0 -0.21828828697E+02 -0.48020879332E+02  0.30143860169E+02  0.60754967566E+02  0.10566000000E+00 0.  1.
         23    2    1    0    0    0 -0.30007832452E+01 -0.15951167888E+02  0.19883806345E+02  0.99332701509E+02  0.95959238103E+02 0.  0.
         13    1    3    3    0    0  0.18828045452E+02  0.32069711444E+02 -0.10260053824E+02  0.38577733943E+02  0.10566000000E+00 0. -1.
         22    1    1    0    0    0  0.30007832452E+01  0.15951167888E+02 -0.19883806345E+02  0.25667298491E+02  0.00000000000E+00 0.  1.
</event>
<event>
 5    1  0.1766634E-003  0.9118800E+02  0.7818608E-02  0.1130116E+00
         25   -1    0    0    0    0  0.00000000000E+00  0.00000000000E+00  0.99999998245E-14  0.12500000000E+03  0.12500000000E+03 0.  0.
        -13    1    3    3    0    0 -0.47995976264E+00 -0.44166023966E+02  0.40762714068E+02  0.60103893855E+02  0.10566000000E+00 0.  1.
         23    2    1    0    0    0  0.80708030971E+01 -0.26458353580E+02  0.12233424368E+02  0.94753694299E+02  0.89796567723E+02 0.  0.
         13    1    3    3    0    0  0.85507628597E+01  0.17707670387E+02 -0.28529289700E+02  0.34649800444E+02  0.10566000000E+00 0. -1.
         22    1    1    0    0    0 -0.80708030971E+01  0.26458353580E+02 -0.12233424368E+02  0.30246305701E+02  0.00000000000E+00 0.  1.
</event>
<event>
 5    1  0.1766634E-003  0.9118800E+02  0.7818608E-02  0.1130116E+00
         25   -1    0    0    0    0  0.00000000000E+00  0.00000000000E+00  0.99999998245E-14  0.12500000000E+03  0.12500000000E+03 0.  0.
        -13    1    3    3    0    0  0.10902640809E+01 -0.21532249453E+02 -0.16588881502E+02  0.27203466614E+02  0.10566000000E+00 0. -1.
         23    2    1    0    0    0  0.20333122277E+02  0.45309376584E+01  0.32724892217E+02  0.86207167824E+02  0.76985660717E+02 0.  0.
         13    1    3    3    0    0  0.19242858196E+02  0.26063187111E+02  0.49313773720E+02  0.59003701210E+02  0.10566000000E+00 0.  1.
         22    1    1    0    0    0 -0.20333122277E+02 -0.45309376584E+01 -0.32724892217E+02  0.38792832176E+02  0.00000000000E+00 0.  1.
</event>
<event>
 5    1  0.1766634E-003  0.9118800E+02  0.7818608E-02  0.1130116E+00
         25   -1    0    0    0    0  0.00000000000E+00  0.00000000000E+00  0.99999998245E-14  0.12500000000E+03  0.12500000000E+03 0.  0.
        -13    1    3    3    0    0  0.26187265549E+02 -0.44306139238E+02 -0.19497069243E+02  0.55035931210E+02  0.10566000000E+00 0.  1.
         23    2    1    0    0    0  0.23873323637E+02 -0.15849127943E+02 -0.28111083106E+02  0.84858208418E+02  0.74763307206E+02 0.  0.
         13    1    3    3    0    0 -0.23139419119E+01  0.28457011294E+02 -0.86140138624E+01  0.29822277207E+02  0.10566000000E+00 0. -1.
         22    1    1    0    0    0 -0.23873323637E+02  0.15849127943E+02  0.28111083106E+02  0.40141791582E+02  0.00000000000E+00 0.  1.
</event>
<event>
 5    1  0.1766634E-003  0.9118800E+02  0.7818608E-02  0.1130116E+00
         25   -1    0    0    0    0  0.00000000000E+00  0.00000000000E+00  0.99999998245E-14  0.12500000000E+03  0.12500000000E+03 0.  0.
        -13    1    3    3    0    0 -0.12023326331E+01 -0.89107428233E+01 -0.56638155509E+02  0.57347526232E+02  0.10566000000E+00 0. -1.
         23    2    1    0    0    0  0.65881088476E+01 -0.19876472239E+02 -0.21429560665E+02  0.95038301163E+02  0.90191880404E+02 0.  0.
         13    1    3    3    0    0  0.77904414807E+01 -0.10965729416E+02  0.35208594843E+02  0.37690774932E+02  0.10566000000E+00 0.  1.
         22    1    1    0    0    0 -0.65881088476E+01  0.19876472239E+02  0.21429560665E+02  0.29961698837E+02  0.00000000000E+00 0. -1.
</event>
<event>
 5    1  0.1766634E-003  0.9118800E+02  0.7818608E-02  0.1130116E+00
         25   -1    0    0    0    0  0.00000000000E+00  0.00000000000E+00  0.99999998245E-14  0.12500000000E+03  0.12500000000E+03 0.  0.
        -13    1    3    3    0    0  0.26293539964E+02 -0.36697821612E+02 -0.28313433712E+02  0.53289230127E+02  0.10566000000E+00 0. -1.
         23    2    1    0    0    0 -0.11436451301E+02 -0.19371708234E+02 -0.18307779815E+02  0.95996029582E+02  0.91509602750E+02 0.  0.
         13    1    3    3    0    0 -0.37729991266E+02  0.17326113378E+02  0.10005653897E+02  0.42706799454E+02  0.10566000000E+00 0.  1.
         22    1    1    0    0    0  0.11436451301E+02  0.19371708234E+02  0.18307779815E+02  0.29003970418E+02  0.00000000000E+00 0. -1.
</event>
<event>
 5    1  0.1766634E-003  0.9118800E+02  0.7818608E-02  0.1130116E+00
         25   -1    0    0    0    0  0.00000000000E+00  0.00000000000E+00  0.99999998245E-14  0.12500000000E+03  0.12500000000E+03 0.  0.
        -13    1    3    3    0    0  0.57034901976E+02  0.17087190648E+02 -0.21200573538E+01  0.59577327356E+02  0.10566000000E+00 0.  1.
         23    2    1    0    0    0  0.22254788631E+02  0.18959746336E+02  0.55483015973E+01  0.95242122913E+02  0.90473922918E+02 0.  0.
         13    1    3    3    0    0 -0.34780113345E+02  0.18725556882E+01  0.76683589511E+01  0.35664795557E+02  0.10566000000E+00 0. -1.
         22    1    1    0    0    0 -0.22254788631E+02 -0.18959746336E+02 -0.55483015973E+01  0.29757877087E+02  0.00000000000E+00 0.  1.
</event>
<event>
 5    1  0.1766634E-003  0.9118800E+02  0.7818608E-02  0.1130116E+00
         25   -1    0    0    0    0  0.00000000000E+00  0.00000000000E+00  0.99999998245E-14  0.12500000000E+03  0.12500000000E+03 0.  0.
        -13    1    3    3    0    0  0.27369699890E+02 -0.31776484471E+02 -0.32176382180E+02  0.52859967571E+02  0.10566000000E+00 0. -1.
         23    2    1    0    0    0  0.20201936128E+01  0.25564175532E+01 -0.29175958813E+02  0.95642666579E+02  0.91025637293E+02 0.  0.
         13    1    3    3    0    0 -0.25349506277E+02  0.34332902025E+02  0.30004233664E+01  0.42782699007E+02  0.10566000000E+00 0.  1.
         22    1    1    0    0    0 -0.20201936128E+01 -0.25564175532E+01  0.29175958813E+02  0.29357333421E+02  0.00000000000E+00 0. -1.
</event>
<event>
 5    1  0.1766634E-003  0.9118800E+02  0.7818608E-02  0.1130116E+00
         25   -1    0    0    0    0  0.00000000000E+00  0.00000000000E+00  0.99999998245E-14  0.12500000000E+03  0.12500000000E+03 0.  0.
        -13    1    3    3    0    0  0.56533362203E+02  0.77789982581E+01  0.50286886577E+01  0.57287282441E+02  0.10566000000E+00 0.  1.
         23    2    1    0    0    0  0.24996587018E+02 -0.14134028798E+02  0.58302863570E+01  0.95698253097E+02  0.91101938915E+02 0.  0.
         13    1    3    3    0    0 -0.31536775185E+02 -0.21913027056E+02  0.80159769930E+00  0.38410970656E+02  0.10566000000E+00 0. -1.
         22    1    1    0    0    0 -0.24996587018E+02  0.14134028798E+02 -0.58302863570E+01  0.29301746903E+02  0.00000000000E+00 0.  1.
</event>
<event>
 5    1  0.1766634E-003  0.9118800E+02  0.7818608E-02  0.1130116E+00
         25   -1    0    0    0    0  0.00000000000E+00  0.00000000000E+00  0.99999998245E-14  0.12500000000E+03  0.12500000000E+03 0.  0.
        -13    1    3    3    0    0  0.56841858171E+01  0.52772360662E+02 -0.29223273342E+02  0.60590782196E+02  0.10566000000E+00 0. -1.
         23    2    1    0    0    0 -0.83205793073E+01  0.23921577417E+02 -0.13012628371E+02  0.96525407760E+02  0.92229886371E+02 0.  0.
         13    1    3    3    0    0 -0.14004765124E+02 -0.28850783245E+02  0.16210644971E+02  0.35934625564E+02  0.10566000000E+00 0.  1.
         22    1    1    0    0    0  0.83205793073E+01 -0.23921577417E+02  0.13012628371E+02  0.28474592240E+02  0.00000000000E+00 0. -1.
</event>
<event>
 5    1  0.1766634E-003  0.9118800E+02  0.7818608E-02  0.1130116E+00
         25   -1    0    0    0    0  0.00000000000E+00  0.00000000000E+00  0.99999998245E-14  0.12500000000E+03  0.12500000000E+03 0.  0.
        -13    1    3    3    0    0  0.43889501196E+01  0.44690522812E+01 -0.27757986999E+02  0.28456147275E+02  0.10566000000E+00 0. -1.
         23    2    1    0    0    0  0.16654456910E+02 -0.15222360623E+02  0.28113095316E+02  0.88952290972E+02  0.81320801416E+02 0.  0.
         13    1    3    3    0    0  0.12265506791E+02 -0.19691412904E+02  0.55871082316E+02  0.60496143697E+02  0.10566000000E+00 0.  1.
         22    1    1    0    0    0 -0.16654456910E+02  0.15222360623E+02 -0.28113095316E+02  0.36047709028E+02  0.00000000000E+00 0.  1.
</event>
<event>
 5    1  0.1766634E-003  0.9118800E+02  0.7818608E-02  0.1130116E+00
         25   -1    0    0    0    0  0.00000000000E+00  0.00000000000E+00  0.99999998245E-14  0.12500000000E+03  0.12500000000E+03 0.  0.
        -13    1    3    3    0    0 -0.27595106274E+02 -0.86358316858E+01  0.54252966705E+02  0.61477337609E+02  0.10566000000E+00 0.  1.
         23    2    1    0    0    0 -0.12832428314E+02 -0.11803197129E+02  0.23484471579E+02  0.95750947293E+02  0.91174211394E+02 0.  0.
         13    1    3    3    0    0  0.14762677960E+02 -0.31673654431E+01 -0.30768495126E+02  0.34273609684E+02  0.10566000000E+00 0. -1.
         22    1    1    0    0    0  0.12832428314E+02  0.11803197129E+02 -0.23484471579E+02  0.29249052707E+02  0.00000000000E+00 0.  1.
</event>
<event>
 5    1  0.1766634E-003  0.9118800E+02  0.7818608E-02  0.1130116E+00
         25   -1    0    0    0    0  0.00000000000E+00  0.00000000000E+00  0.99999998245E-14  0.12500000000E+03  0.12500000000E+03 0.  0.
        -13    1    3    3    0    0  0.18604635621E+02  0.20046246004E+02 -0.35510683994E+02  0.44821917486E+02  0.10566000000E+00 0. -1.
         23    2    1    0    0    0 -0.11204446681E+02 -0.18568159125E+02 -0.18530901193E+02  0.96474389442E+02  0.92160714843E+02 0.  0.
         13    1    3    3    0    0 -0.29809082302E+02 -0.38614405129E+02  0.16979782800E+02  0.51652471955E+02  0.10566000000E+00 0.  1.
         22    1    1    0    0    0  0.11204446681E+02  0.18568159125E+02  0.18530901193E+02  0.28525610558E+02  0.00000000000E+00 0.  1.
</event>
<event>
 5    1  0.1766634E-003  0.9118800E+02  0.7818608E-02  0.1130116E+00
         25   -1    0    0    0    0  0.00000000000E+00  0.00000000000E+00  0.99999998245E-14  0.12500000000E+03  0.12500000000E+03 0.  0.
        -13    1    3    3    0    0  0.45342961888E+02 -0.25371097161E+02 -0.23603849499E+02  0.57068639717E+02  0.10566000000E+00 0.  1.
         23    2    1    0    0    0  0.15427930756E+02 -0.16572831688E+01 -0.25344904955E+02  0.95282465747E+02  0.90529643966E+02 0.  0.
         13    1    3    3    0    0 -0.29915031132E+02  0.23713813992E+02 -0.17410554559E+01  0.38213826030E+02  0.10566000000E+00 0. -1.
         22    1    1    0    0    0 -0.15427930756E+02  0.16572831688E+01  0.25344904955E+02  0.29717534253E+02  0.00000000000E+00 0.  1.
</event>
<event>
 5    1  0.1766634E-003  0.9118800E+02  0.7818608E-02  0.1130116E+00
         25   -1    0    0    0    0  0.00000000000E+00  0.00000000000E+00  0.99999998245E-14  0.12500000000E+03  0.12500000000E+03 0.  0.
        -13    1    3    3    0    0 -0.27621384604E+02  0.56823180046E+01  0.50558647147E+02  0.57891429337E+02  0.10566000000E+00 0. -1.
         23    2    1    0    0    0 -0.44414624981E+01  0.17123546774E+02  0.26037096071E+02  0.93521867669E+02  0.88065128838E+02 0.  0.
         13    1    3    3    0    0  0.23179922106E+02  0.11441228769E+02 -0.24521551075E+02  0.35630438332E+02  0.10566000000E+00 0.  1.
         22    1    1    0    0    0  0.44414624981E+01 -0.17123546774E+02 -0.26037096071E+02  0.31478132331E+02  0.00000000000E+00 0. -1.
</event>
<event>
 5    1  0.1766634E-003  0.9118800E+02  0.7818608E-02  0.1130116E+00
         25   -1    0    0    0    0  0.00000000000E+00  0.00000000000E+00  0.99999998245E-14  0.12500000000E+03  0.12500000000E+03 0.  0.
        -13    1    3    3    0    0 -0.14162404038E+02 -0.25239924508E+02 -0.32749048835E+02  0.43705135179E+02  0.10566000000E+00 0. -1.
         23    2    1    0    0    0 -0.24590078520E+02 -0.60197044719E+01  0.14540181941E+02  0.95805382441E+02  0.91248811556E+02 0.  0.
         13    1    3    3    0    0 -0.10427674482E+02  0.19220220036E+02  0.47289230777E+02  0.52100247263E+02  0.10566000000E+00 0.  1.
         22    1    1    0    0    0  0.24590078520E+02  0.60197044719E+01 -0.14540181941E+02  0.29194617559E+02  0.00000000000E+00 0.  1.
</event>
<event>
 5    1  0.1766634E-003  0.9118800E+02  0.7818608E-02  0.1130116E+00
         25   -1    0    0    0    0  0.00000000000E+00  0.00000000000E+00  0.99999998245E-14  0.12500000000E+03  0.12500000000E+03 0.  0.
        -13    1    3    3    0    0 -0.70636503066E+00  0.40795137737E+01 -0.44481476591E+02  0.44673866051E+02  0.10566000000E+00 0. -1.
         23    2    1    0    0    0 -0.80422174019E+01 -0.29269437409E+02 -0.10412310059E+02  0.92909605366E+02  0.87191750421E+02 0.  0.
         13    1    3    3    0    0 -0.73358523712E+01 -0.33348951183E+02  0.34069166532E+02  0.48235739315E+02  0.10566000000E+00 0.  1.
         22    1    1    0    0    0  0.80422174019E+01  0.29269437409E+02  0.10412310059E+02  0.32090394634E+02  0.00000000000E+00 0.  1.
</event>
<event>
 5    1  0.1766634E-003  0.9118800E+02  0.7818608E-02  0.1130116E+00
         25   -1    0    0    0    0  0.00000000000E+00  0.00000000000E+00  0.99999998245E-14  0.12500000000E+03  0.12500000000E+03 0.  0.
        -13    1    3    3    0    0 -0.35428400547E+01  0.10128592204E+02 -0.26672410327E+02  0.28750108389E+02  0.10566000000E+00 0. -1.
         23    2    1    0    0    0  0.15588345189E+02 -0.37222609511E+02 -0.46075530583E+01  0.84382901264E+02  0.73964351657E+02 0.  0.
         13    1    3    3    0    0  0.19131185244E+02 -0.47351201715E+02  0.22064857269E+02  0.55632792875E+02  0.10566000000E+00 0.  1.
         22    1    1    0    0    0 -0.15588345189E+02  0.37222609511E+02  0.46075530583E+01  0.40617098736E+02  0.00000000000E+00 0.  1.
</event>
<event>
 5    1  0.1766634E-003  0.9118800E+02  0.7818608E-02  0.1130116E+00
         25   -1    0    0    0    0  0.00000000000E+00  0.00000000000E+00  0.99999998245E-14  0.12500000000E+03  0.12500000000E+03 0.  0.
        -13    1    3    3    0    0  0.28195351532E+02 -0.30241465943E+02  0.35040418478E+02  0.54197474125E+02  0.10566000000E+00 0. -1.
         23    2    1    0    0    0  0.31235673594E+02 -0.65350692178E+01  0.48214161464E+01  0.92725854183E+02  0.86927921555E+02 0.  0.
         13    1    3    3    0    0  0.30403220618E+01  0.23706396725E+02 -0.30219002332E+02  0.38528380058E+02  0.10566000000E+00 0.  1.
         22    1    1    0    0    0 -0.31235673594E+02  0.65350692178E+01 -0.48214161464E+01  0.32274145817E+02  0.00000000000E+00 0. -1.
</event>
<event>
 5    1  0.1766634E-003  0.9118800E+02  0.7818608E-02  0.1130116E+00
         25   -1    0    0    0    0  0.00000000000E+00  0.00000000000E+00  0.99999998245E-14  0.12500000000E+03  0.12500000000E+03 0.  0.
        -13    1    3    3    0    0 -0.23038439298E+02 -0.42412767699E+00  0.26884482959E+02  0.35408136884E+02  0.10566000000E+00 0.  1.
         23    2    1    0    0    0 -0.67089121024E+01  0.94105103518E+01 -0.28641223521E+02  0.94114940644E+02  0.88902953612E+02 0.  0.
         13    1    3    3    0    0  0.16329527196E+02  0.98346380288E+01 -0.55525706480E+02  0.58706803760E+02  0.10566000000E+00 0. -1.
         22    1    1    0    0    0  0.67089121024E+01 -0.94105103518E+01  0.28641223521E+02  0.30885059356E+02  0.00000000000E+00 0. -1.
</event>
<event>
 5    1  0.1766634E-003  0.9118800E+02  0.7818608E-02  0.1130116E+00
         25   -1    0    0    0    0  0.00000000000E+00  0.00000000000E+00  0.99999998245E-14  0.12500000000E+03  0.12500000000E+03 0.  0.
        -13    1    3    3    0    0  0.25364261543E+02 -0.37660908228E+02  0.18252422743E+02  0.48937223790E+02  0.10566000000E+00 0.  1.
         23    2    1    0    0    0 -0.26019385135E+01 -0.29088165861E+01  0.29743935368E+02  0.95001116869E+02  0.90140330692E+02 0.  0.
         13    1    3    3    0    0 -0.27966200057E+02  0.34752091642E+02  0.11491512625E+02  0.46063893079E+02  0.10566000000E+00 0. -1.
         22    1    1    0    0    0  0.26019385135E+01  0.29088165861E+01 -0.29743935368E+02  0.29998883131E+02  0.00000000000E+00 0.  1.
</event>
<event>
 5    1  0.1766634E-003  0.9118800E+02  0.7818608E-02  0.1130116E+00
         25   -1    0    0    0    0  0.00000000000E+00  0.00000000000E+00  0.99999998245E-14  0.12500000000E+03  0.12500000000E+03 0.  0.
        -13    1    3    3    0    0  0.36501066188E+01  0.31194393349E+02  0.14752627944E+02  0.34699634724E+02  0.10566000000E+00 0. -1.
         23    2    1    0    0    0 -0.25151790911E+01 -0.12375803259E+02 -0.26894952093E+02  0.95287627489E+02  0.90536770829E+02 0.  0.
         13    1    3    3    0    0 -0.61652857099E+01 -0.43570196607E+02 -0.41647580037E+02  0.60587992764E+02  0.10566000000E+00 0.  1.
         22    1    1    0    0    0  0.25151790911E+01  0.12375803259E+02  0.26894952093E+02  0.29712372511E+02  0.00000000000E+00 0.  1.
</event>
<event>
 5    1  0.1766634E-003  0.9118800E+02  0.7818608E-02  0.1130116E+00
         25   -1    0    0    0    0  0.00000000000E+00  0.00000000000E+00  0.99999998245E-14  0.12500000000E+03  0.12500000000E+03 0.  0.
        -13    1    3    3    0    0 -0.84773348311E+01  0.61184252220E+02  0.47065899559E+01  0.61947890025E+02  0.10566000000E+00 0. -1.
         23    2    1    0    0    0  0.22788505012E+00  0.28640110516E+02 -0.19689265321E+01  0.96291385723E+02  0.91912166936E+02 0.  0.
         13    1    3    3    0    0  0.87052198812E+01 -0.32544141703E+02 -0.66755164879E+01  0.34343495698E+02  0.10566000000E+00 0.  1.
         22    1    1    0    0    0 -0.22788505012E+00 -0.28640110516E+02  0.19689265321E+01  0.28708614277E+02  0.00000000000E+00 0. -1.
</event>
<event>
 5    1  0.1766634E-003  0.9118800E+02  0.7818608E-02  0.1130116E+00
         25   -1    0    0    0    0  0.00000000000E+00  0.00000000000E+00  0.99999998245E-14  0.12500000000E+03  0.12500000000E+03 0.  0.
        -13    1    3    3    0    0 -0.15717293349E+02  0.29750933830E+02  0.79669168588E+01  0.34577945316E+02  0.10566000000E+00 0. -1.
         23    2    1    0    0    0  0.22285890993E+02 -0.17628789013E+02  0.85751774912E+01  0.95318881281E+02  0.90579911240E+02 0.  0.
         13    1    3    3    0    0  0.38003184342E+02 -0.47379722843E+02  0.60826063238E+00  0.60740935965E+02  0.10566000000E+00 0.  1.
         22    1    1    0    0    0 -0.22285890993E+02  0.17628789013E+02 -0.85751774912E+01  0.29681118719E+02  0.00000000000E+00 0.  1.
</event>
<event>
 5    1  0.1766634E-003  0.9118800E+02  0.7818608E-02  0.1130116E+00
         25   -1    0    0    0    0  0.00000000000E+00  0.00000000000E+00  0.99999998245E-14  0.12500000000E+03  0.12500000000E+03 0.  0.
        -13    1    3    3    0    0  0.31235804044E+02  0.71250055871E+00  0.34160985992E+01  0.31430303928E+02  0.10566000000E+00 0.  1.
         23    2    1    0    0    0 -0.29709884717E+02 -0.74157113480E+01 -0.64621009451E+01  0.93704173228E+02  0.88323515029E+02 0.  0.
         13    1    3    3    0    0 -0.60945688761E+02 -0.81282119067E+01 -0.98781995442E+01  0.62273869300E+02  0.10566000000E+00 0. -1.
         22    1    1    0    0    0  0.29709884717E+02  0.74157113480E+01  0.64621009451E+01  0.31295826772E+02  0.00000000000E+00 0. -1.
</event>
<event>
 5    1  0.1766634E-003  0.9118800E+02  0.7818608E-02  0.1130116E+00
         25   -1    0    0    0    0  0.00000000000E+00  0.00000000000E+00  0.99999998245E-14  0.12500000000E+03  0.12500000000E+03 0.  0.
        -13    1    3    3    0    0  0.21572623217E+02  0.26098452437E+02  0.12801982260E+02  0.36199574665E+02  0.10566000000E+00 0.  1.
         23    2    1    0    0    0 -0.21962338136E+02  0.33428490782E+00 -0.19004015210E+02  0.95955058325E+02  0.91453619837E+02 0.  0.
         13    1    3    3    0    0 -0.43534961352E+02 -0.25764167530E+02 -0.31805997470E+02  0.59755483661E+02  0.10566000000E+00 0. -1.
         22    1    1    0    0    0  0.21962338136E+02 -0.33428490782E+00  0.19004015210E+02  0.29044941675E+02  0.00000000000E+00 0. -1.
</event>
<event>
 5    1  0.1766634E-003  0.9118800E+02  0.7818608E-02  0.1130116E+00
         25   -1    0    0    0    0  0.00000000000E+00  0.00000000000E+00  0.99999998245E-14  0.12500000000E+03  0.12500000000E+03 0.  0.
        -13    1    3    3    0    0 -0.64994127039E+01 -0.29093061993E+02 -0.30368524346E+02  0.42554753632E+02  0.10566000000E+00 0. -1.
         23    2    1    0    0    0  0.18852909163E+02 -0.15048341187E+02  0.15148273730E+02  0.96515706901E+02  0.92216737771E+02 0.  0.
         13    1    3    3    0    0  0.25352321867E+02  0.14044720807E+02  0.45516798076E+02  0.53960953269E+02  0.10566000000E+00 0.  1.
         22    1    1    0    0    0 -0.18852909163E+02  0.15048341187E+02 -0.15148273730E+02  0.28484293099E+02  0.00000000000E+00 0.  1.
</event>
<event>
 5    1  0.1766634E-003  0.9118800E+02  0.7818608E-02  0.1130116E+00
         25   -1    0    0    0    0  0.00000000000E+00  0.00000000000E+00  0.99999998245E-14  0.12500000000E+03  0.12500000000E+03 0.  0.
        -13    1    3    3    0    0 -0.23554811601E+02 -0.12864161969E+02 -0.26688028669E+02  0.37849410180E+02  0.10566000000E+00 0. -1.
         23    2    1    0    0    0  0.23649573369E+02  0.15130972325E+02 -0.95411687551E+01  0.95347301215E+02  0.90619122174E+02 0.  0.
         13    1    3    3    0    0  0.47204384970E+02  0.27995134294E+02  0.17146859914E+02  0.57497891035E+02  0.10566000000E+00 0.  1.
         22    1    1    0    0    0 -0.23649573369E+02 -0.15130972325E+02  0.95411687551E+01  0.29652698785E+02  0.00000000000E+00 0.  1.
</event>
<event>
 5    1  0.1766634E-003  0.9118800E+02  0.7818608E-02  0.1130116E+00
         25   -1    0    0    0    0  0.00000000000E+00  0.00000000000E+00  0.99999998245E-14  0.12500000000E+03  0.12500000000E+03 0.  0.
        -13    1    3    3    0    0 -0.84622226832E+01 -0.42238238775E+02 -0.18799061923E+01  0.43118711007E+02  0.10566000000E+00 0.  1.
         23    2    1    0    0    0  0.29616165625E+02 -0.92036319352E+01  0.33789514957E+01  0.93803182529E+02  0.88463527130E+02 0.  0.
         13    1    3    3    0    0  0.38078388308E+02  0.33034606840E+02  0.52588576880E+01  0.50684471522E+02  0.10566000000E+00 0. -1.
         22    1    1    0    0    0 -0.29616165625E+02  0.92036319352E+01 -0.33789514957E+01  0.31196817471E+02  0.00000000000E+00 0. -1.
</event>
<event>
 5    1  0.1766634E-003  0.9118800E+02  0.7818608E-02  0.1130116E+00
         25   -1    0    0    0    0  0.00000000000E+00  0.00000000000E+00  0.99999998245E-14  0.12500000000E+03  0.12500000000E+03 0.  0.
        -13    1    3    3    0    0  0.37201709990E+02 -0.38170775519E+02 -0.59986586678E+01  0.53637397399E+02  0.10566000000E+00 0. -1.
         23    2    1    0    0    0  0.67088527413E+01 -0.15804961876E+02 -0.23976801962E+02  0.95509449694E+02  0.90842514405E+02 0.  0.
         13    1    3    3    0    0 -0.30492857249E+02  0.22365813642E+02 -0.17978143294E+02  0.41872052295E+02  0.10566000000E+00 0.  1.
         22    1    1    0    0    0 -0.67088527413E+01  0.15804961876E+02  0.23976801962E+02  0.29490550306E+02  0.00000000000E+00 0. -1.
</event>
<event>
 5    1  0.1766634E-003  0.9118800E+02  0.7818608E-02  0.1130116E+00
         25   -1    0    0    0    0  0.00000000000E+00  0.00000000000E+00  0.99999998245E-14  0.12500000000E+03  0.12500000000E+03 0.  0.
        -13    1    3    3    0    0 -0.25780172868E+02  0.23739764847E+02  0.14013709297E+02  0.37743727431E+02  0.10566000000E+00 0. -1.
         23    2    1    0    0    0 -0.19115443123E+02  0.31255064560E+01 -0.31426212123E+02  0.88084207109E+02  0.79975319801E+02 0.  0.
         13    1    3    3    0    0  0.66647297452E+01 -0.20614258391E+02 -0.45439921419E+02  0.50340479678E+02  0.10566000000E+00 0.  1.
         22    1    1    0    0    0  0.19115443123E+02 -0.31255064560E+01  0.31426212123E+02  0.36915792891E+02  0.00000000000E+00 0. -1.
</event>
<event>
 5    1  0.1766634E-003  0.9118800E+02  0.7818608E-02  0.1130116E+00
         25   -1    0    0    0    0  0.00000000000E+00  0.00000000000E+00  0.99999998245E-14  0.12500000000E+03  0.12500000000E+03 0.  0.
        -13    1    3    3    0    0 -0.21238664337E+02 -0.44953717949E+02 -0.20586792942E+02  0.53812125287E+02  0.10566000000E+00 0. -1.
         23    2    1    0    0    0  0.12988258031E+02 -0.24092475967E+02 -0.13364172231E+02  0.94541120435E+02  0.89500168205E+02 0.  0.
         13    1    3    3    0    0  0.34226922368E+02  0.20861241981E+02  0.72226207107E+01  0.40728995148E+02  0.10566000000E+00 0.  1.
         22    1    1    0    0    0 -0.12988258031E+02  0.24092475967E+02  0.13364172231E+02  0.30458879565E+02  0.00000000000E+00 0. -1.
</event>
<event>
 5    1  0.1766634E-003  0.9118800E+02  0.7818608E-02  0.1130116E+00
         25   -1    0    0    0    0  0.00000000000E+00  0.00000000000E+00  0.99999998245E-14  0.12500000000E+03  0.12500000000E+03 0.  0.
        -13    1    3    3    0    0  0.15557817354E+01  0.13382620141E+02 -0.54592287675E+02  0.56230276687E+02  0.10566000000E+00 0. -1.
         23    2    1    0    0    0  0.14650534304E+02 -0.80194775651E+01 -0.23061970292E+02  0.96525368315E+02  0.92229832911E+02 0.  0.
         13    1    3    3    0    0  0.13094752569E+02 -0.21402097706E+02  0.31530317383E+02  0.40295091628E+02  0.10566000000E+00 0.  1.
         22    1    1    0    0    0 -0.14650534304E+02  0.80194775651E+01  0.23061970292E+02  0.28474631685E+02  0.00000000000E+00 0. -1.
</event>
<event>
 5    1  0.1766634E-003  0.9118800E+02  0.7818608E-02  0.1130116E+00
         25   -1    0    0    0    0  0.00000000000E+00  0.00000000000E+00  0.99999998245E-14  0.12500000000E+03  0.12500000000E+03 0.  0.
        -13    1    3    3    0    0  0.34475271699E+02  0.11307931323E+02 -0.10455294521E+02  0.37758946186E+02  0.10566000000E+00 0.  1.
         23    2    1    0    0    0  0.24522534275E+01 -0.25437619936E+02  0.17574041812E+02  0.93984955256E+02  0.88720002333E+02 0.  0.
         13    1    3    3    0    0 -0.32023018272E+02 -0.36745551259E+02  0.28029336333E+02  0.56226009069E+02  0.10566000000E+00 0. -1.
         22    1    1    0    0    0 -0.24522534275E+01  0.25437619936E+02 -0.17574041812E+02  0.31015044744E+02  0.00000000000E+00 0. -1.
</event>
<event>
 5    1  0.1766634E-003  0.9118800E+02  0.7818608E-02  0.1130116E+00
         25   -1    0    0    0    0  0.00000000000E+00  0.00000000000E+00  0.99999998245E-14  0.12500000000E+03  0.12500000000E+03 0.  0.
        -13    1    3    3    0    0 -0.83128896335E+01 -0.36028334584E+02 -0.92442650919E+01  0.38113155578E+02  0.10566000000E+00 0. -1.
         23    2    1    0    0    0  0.25594700188E+01  0.84502542245E+01  0.27052709267E+02  0.96542896108E+02  0.92253585443E+02 0.  0.
         13    1    3    3    0    0  0.10872359652E+02  0.44478588809E+02  0.36296974358E+02  0.58429740530E+02  0.10566000000E+00 0.  1.
         22    1    1    0    0    0 -0.25594700188E+01 -0.84502542245E+01 -0.27052709267E+02  0.28457103892E+02  0.00000000000E+00 0.  1.
</event>
<event>
 5    1  0.1766634E-003  0.9118800E+02  0.7818608E-02  0.1130116E+00
         25   -1    0    0    0    0  0.00000000000E+00  0.00000000000E+00  0.99999998245E-14  0.12500000000E+03  0.12500000000E+03 0.  0.
        -13    1    3    3    0    0 -0.35261185455E+02  0.14905649349E+02 -0.42751939984E+02  0.57387011759E+02  0.10566000000E+00 0.  1.
         23    2    1    0    0    0 -0.16964302336E+02 -0.10960838749E+02 -0.21280476386E+02  0.95660841610E+02  0.91050592543E+02 0.  0.
         13    1    3    3    0    0  0.18296883119E+02 -0.25866488098E+02  0.21471463598E+02  0.38273829851E+02  0.10566000000E+00 0. -1.
         22    1    1    0    0    0  0.16964302336E+02  0.10960838749E+02  0.21280476386E+02  0.29339158390E+02  0.00000000000E+00 0.  1.
</event>
<event>
 5    1  0.1766634E-003  0.9118800E+02  0.7818608E-02  0.1130116E+00
         25   -1    0    0    0    0  0.00000000000E+00  0.00000000000E+00  0.99999998245E-14  0.12500000000E+03  0.12500000000E+03 0.  0.
        -13    1    3    3    0    0 -0.78938181208E+01 -0.28376264471E+02  0.31905459319E+02  0.43422278248E+02  0.10566000000E+00 0.  1.
         23    2    1    0    0    0 -0.19111908197E+02  0.18562879928E+02  0.14040405232E+02  0.94883915838E+02  0.89977658114E+02 0.  0.
         13    1    3    3    0    0 -0.11218090076E+02  0.46939144399E+02 -0.17865054088E+02  0.51461637590E+02  0.10566000000E+00 0. -1.
         22    1    1    0    0    0  0.19111908197E+02 -0.18562879928E+02 -0.14040405232E+02  0.30116084162E+02  0.00000000000E+00 0. -1.
</event>
<event>
 5    1  0.1766634E-003  0.9118800E+02  0.7818608E-02  0.1130116E+00
         25   -1    0    0    0    0  0.00000000000E+00  0.00000000000E+00  0.99999998245E-14  0.12500000000E+03  0.12500000000E+03 0.  0.
        -13    1    3    3    0    0 -0.24495539088E+02  0.18830565048E+02 -0.13695281221E+02  0.33796353457E+02  0.10566000000E+00 0.  1.
         23    2    1    0    0    0  0.14834702553E+02 -0.23417961847E+02  0.90512884505E+01  0.95838464384E+02  0.91294118627E+02 0.  0.
         13    1    3    3    0    0  0.39330241641E+02 -0.42248526894E+02  0.22746569672E+02  0.62042110926E+02  0.10566000000E+00 0. -1.
         22    1    1    0    0    0 -0.14834702553E+02  0.23417961847E+02 -0.90512884505E+01  0.29161535616E+02  0.00000000000E+00 0. -1.
</event>
<event>
 5    1  0.1766634E-003  0.9118800E+02  0.7818608E-02  0.1130116E+00
         25   -1    0    0    0    0  0.00000000000E+00  0.00000000000E+00  0.99999998245E-14  0.12500000000E+03  0.12500000000E+03 0.  0.
        -13    1    3    3    0    0  0.14719638906E+01  0.11644134939E+02  0.38815502087E+02  0.40551287556E+02  0.10566000000E+00 0.  1.
         23    2    1    0    0    0 -0.96389272760E+01  0.22655826188E+02 -0.14712297573E+02  0.96318175108E+02  0.91948593121E+02 0.  0.
         13    1    3    3    0    0 -0.11110891167E+02  0.11011691248E+02 -0.53527799660E+02  0.55766887551E+02  0.10566000000E+00 0. -1.
         22    1    1    0    0    0  0.96389272760E+01 -0.22655826188E+02  0.14712297573E+02  0.28681824892E+02  0.00000000000E+00 0.  1.
</event>
<event>
 5    1  0.1766634E-003  0.9118800E+02  0.7818608E-02  0.1130116E+00
         25   -1    0    0    0    0  0.00000000000E+00  0.00000000000E+00  0.99999998245E-14  0.12500000000E+03  0.12500000000E+03 0.  0.
        -13    1    3    3    0    0  0.15066302692E+01 -0.19593120733E+02 -0.25476573688E+02  0.32174948108E+02  0.10566000000E+00 0.  1.
         23    2    1    0    0    0 -0.83531410667E+01  0.24073912285E+02  0.17385450272E+02  0.94152275618E+02  0.88955432125E+02 0.  0.
         13    1    3    3    0    0 -0.98597713359E+01  0.43667033018E+02  0.42862023960E+02  0.61977327510E+02  0.10566000000E+00 0. -1.
         22    1    1    0    0    0  0.83531410667E+01 -0.24073912285E+02 -0.17385450272E+02  0.30847724382E+02  0.00000000000E+00 0. -1.
</event>
<event>
 5    1  0.1766634E-003  0.9118800E+02  0.7818608E-02  0.1130116E+00
         25   -1    0    0    0    0  0.00000000000E+00  0.00000000000E+00  0.99999998245E-14  0.12500000000E+03  0.12500000000E+03 0.  0.
        -13    1    3    3    0    0  0.31481970866E+02 -0.13426492178E+02  0.46963945203E+02  0.58112033994E+02  0.10566000000E+00 0.  1.
         23    2    1    0    0    0  0.15326866223E+02 -0.20140888979E+02  0.12478400473E+02  0.96781589070E+02  0.92576440132E+02 0.  0.
         13    1    3    3    0    0 -0.16155104644E+02 -0.67143968008E+01 -0.34485544730E+02  0.38669555076E+02  0.10566000000E+00 0. -1.
         22    1    1    0    0    0 -0.15326866223E+02  0.20140888979E+02 -0.12478400473E+02  0.28218410930E+02  0.00000000000E+00 0.  1.
</event>
<event>
 5    1  0.1766634E-003  0.9118800E+02  0.7818608E-02  0.1130116E+00
         25   -1    0    0    0    0  0.00000000000E+00  0.00000000000E+00  0.99999998245E-14  0.12500000000E+03  0.12500000000E+03 0.  0.
        -13    1    3    3    0    0 -0.14124683710E+02 -0.33037272216E+02  0.43439094457E+02  0.56373168588E+02  0.10566000000E+00 0.  1.
         23    2    1    0    0    0  0.47567571886E+01 -0.28270704288E+02  0.10830358168E+02  0.94354345856E+02  0.89238929084E+02 0.  0.
         13    1    3    3    0    0  0.18881440899E+02  0.47665679284E+01 -0.32608736289E+02  0.37981177268E+02  0.10566000000E+00 0. -1.
         22    1    1    0    0    0 -0.47567571886E+01  0.28270704288E+02 -0.10830358168E+02  0.30645654144E+02  0.00000000000E+00 0.  1.
</event>
<event>
 5    1  0.1766634E-003  0.9118800E+02  0.7818608E-02  0.1130116E+00
         25   -1    0    0    0    0  0.00000000000E+00  0.00000000000E+00  0.99999998245E-14  0.12500000000E+03  0.12500000000E+03 0.  0.
        -13    1    3    3    0    0 -0.23784312293E+02  0.22764657472E+02  0.26588390367E+02  0.42318752433E+02  0.10566000000E+00 0. -1.
         23    2    1    0    0    0  0.13135938548E+02 -0.15529362650E+02  0.20933916183E+02  0.95811940239E+02  0.91257794515E+02 0.  0.
         13    1    3    3    0    0  0.36920250841E+02 -0.38294020123E+02 -0.56544741842E+01  0.53493187806E+02  0.10566000000E+00 0.  1.
         22    1    1    0    0    0 -0.13135938548E+02  0.15529362650E+02 -0.20933916183E+02  0.29188059761E+02  0.00000000000E+00 0.  1.
</event>
<event>
 5    1  0.1766634E-003  0.9118800E+02  0.7818608E-02  0.1130116E+00
         25   -1    0    0    0    0  0.00000000000E+00  0.00000000000E+00  0.99999998245E-14  0.12500000000E+03  0.12500000000E+03 0.  0.
        -13    1    3    3    0    0 -0.18717094318E+02  0.10661356926E+02  0.34614034125E+02  0.40769310439E+02  0.10566000000E+00 0. -1.
         23    2    1    0    0    0  0.78796411308E+01  0.26063833361E+02 -0.10884633135E+02  0.95676163411E+02  0.91071624850E+02 0.  0.
         13    1    3    3    0    0  0.26596735448E+02  0.15402476434E+02 -0.45498667260E+02  0.54906852972E+02  0.10566000000E+00 0.  1.
         22    1    1    0    0    0 -0.78796411308E+01 -0.26063833361E+02  0.10884633135E+02  0.29323836589E+02  0.00000000000E+00 0. -1.
</event>
<event>
 5    1  0.1766634E-003  0.9118800E+02  0.7818608E-02  0.1130116E+00
         25   -1    0    0    0    0  0.00000000000E+00  0.00000000000E+00  0.99999998245E-14  0.12500000000E+03  0.12500000000E+03 0.  0.
        -13    1    3    3    0    0 -0.18738459920E+02  0.22158710851E+02  0.30826459342E+02  0.42336982726E+02  0.10566000000E+00 0.  1.
         23    2    1    0    0    0 -0.10645396214E+02 -0.25834682016E+02  0.93574769289E+01  0.95532770237E+02  0.90874597987E+02 0.  0.
         13    1    3    3    0    0  0.80930637060E+01 -0.47993392867E+02 -0.21468982413E+02  0.53195787511E+02  0.10566000000E+00 0. -1.
         22    1    1    0    0    0  0.10645396214E+02  0.25834682016E+02 -0.93574769289E+01  0.29467229763E+02  0.00000000000E+00 0. -1.
</event>
<event>
 5    1  0.1766634E-003  0.9118800E+02  0.7818608E-02  0.1130116E+00
         25   -1    0    0    0    0  0.00000000000E+00  0.00000000000E+00  0.99999998245E-14  0.12500000000E+03  0.12500000000E+03 0.  0.
        -13    1    3    3    0    0 -0.35252210865E+02  0.30530277332E+02  0.35036764562E+01  0.46766474291E+02  0.10566000000E+00 0.  1.
         23    2    1    0    0    0 -0.61341245123E+01 -0.23008252153E+00  0.28431154189E+02  0.95913732621E+02  0.91397117872E+02 0.  0.
         13    1    3    3    0    0  0.29118086353E+02 -0.30760359853E+02  0.24927477733E+02  0.49147258330E+02  0.10566000000E+00 0. -1.
         22    1    1    0    0    0  0.61341245123E+01  0.23008252153E+00 -0.28431154189E+02  0.29086267379E+02  0.00000000000E+00 0.  1.
</event>
<event>
 5    1  0.1766634E-003  0.9118800E+02  0.7818608E-02  0.1130116E+00
         25   -1    0    0    0    0  0.00000000000E+00  0.00000000000E+00  0.99999998245E-14  0.12500000000E+03  0.12500000000E+03 0.  0.
        -13    1    3    3    0    0 -0.13243421061E+02 -0.10737123584E+02  0.33306431893E+02  0.37416621891E+02  0.10566000000E+00 0.  1.
         23    2    1    0    0    0  0.27920595211E+02  0.67224088930E+01 -0.44497363666E+01  0.95938847718E+02  0.91431460283E+02 0.  0.
         13    1    3    3    0    0  0.41164016271E+02  0.17459532477E+02 -0.37756168260E+02  0.58522225826E+02  0.10566000000E+00 0. -1.
         22    1    1    0    0    0 -0.27920595211E+02 -0.67224088930E+01  0.44497363666E+01  0.29061152282E+02  0.00000000000E+00 0. -1.
</event>
<event>
 5    1  0.1766634E-003  0.9118800E+02  0.7818608E-02  0.1130116E+00
         25   -1    0    0    0    0  0.00000000000E+00  0.00000000000E+00  0.99999998245E-14  0.12500000000E+03  0.12500000000E+03 0.  0.
        -13    1    3    3    0    0 -0.15770704101E+02 -0.38876805231E+02  0.15275075176E+02  0.44648182253E+02  0.10566000000E+00 0. -1.
         23    2    1    0    0    0  0.23899016003E+02 -0.14193629857E+02 -0.68920969485E+01  0.96362208626E+02  0.92008435246E+02 0.  0.
         13    1    3    3    0    0  0.39669720104E+02  0.24683175374E+02 -0.22167172125E+02  0.51714026373E+02  0.10566000000E+00 0.  1.
         22    1    1    0    0    0 -0.23899016003E+02  0.14193629857E+02  0.68920969485E+01  0.28637791374E+02  0.00000000000E+00 0.  1.
</event>
<event>
 5    1  0.1766634E-003  0.9118800E+02  0.7818608E-02  0.1130116E+00
         25   -1    0    0    0    0  0.00000000000E+00  0.00000000000E+00  0.99999998245E-14  0.12500000000E+03  0.12500000000E+03 0.  0.
        -13    1    3    3    0    0  0.21158544794E+02  0.30651538442E+02 -0.45820048254E+02  0.59048190596E+02  0.10566000000E+00 0. -1.
         23    2    1    0    0    0  0.18473403980E+02  0.24683874788E+01 -0.22901729491E+02  0.95472914045E+02  0.90792227152E+02 0.  0.
         13    1    3    3    0    0 -0.26851408137E+01 -0.28183150963E+02  0.22918318763E+02  0.36424723449E+02  0.10566000000E+00 0.  1.
         22    1    1    0    0    0 -0.18473403980E+02 -0.24683874788E+01  0.22901729491E+02  0.29527085955E+02  0.00000000000E+00 0. -1.
</event>
<event>
 5    1  0.1766634E-003  0.9118800E+02  0.7818608E-02  0.1130116E+00
         25   -1    0    0    0    0  0.00000000000E+00  0.00000000000E+00  0.99999998245E-14  0.12500000000E+03  0.12500000000E+03 0.  0.
        -13    1    3    3    0    0 -0.48469652570E+02 -0.39019634986E+02  0.44856744643E+01  0.62385668019E+02  0.10566000000E+00 0. -1.
         23    2    1    0    0    0 -0.23975540039E+02 -0.17611088046E+02  0.44720881142E+01  0.94917172433E+02  0.90023847442E+02 0.  0.
         13    1    3    3    0    0  0.24494112532E+02  0.21408546940E+02 -0.13586350080E-01  0.32531504414E+02  0.10566000000E+00 0.  1.
         22    1    1    0    0    0  0.23975540039E+02  0.17611088046E+02 -0.44720881142E+01  0.30082827567E+02  0.00000000000E+00 0. -1.
</event>
<event>
 5    1  0.1766634E-003  0.9118800E+02  0.7818608E-02  0.1130116E+00
         25   -1    0    0    0    0  0.00000000000E+00  0.00000000000E+00  0.99999998245E-14  0.12500000000E+03  0.12500000000E+03 0.  0.
        -13    1    3    3    0    0 -0.16669421007E+02  0.32068408912E+02  0.19036849151E+02  0.40849299094E+02  0.10566000000E+00 0. -1.
         23    2    1    0    0    0 -0.23684334708E+02 -0.14370737873E+02 -0.93904899466E+01  0.95748553557E+02  0.91170929518E+02 0.  0.
         13    1    3    3    0    0 -0.70149137013E+01 -0.46439146785E+02 -0.28427339097E+02  0.54899254463E+02  0.10566000000E+00 0.  1.
         22    1    1    0    0    0  0.23684334708E+02  0.14370737873E+02  0.93904899466E+01  0.29251446443E+02  0.00000000000E+00 0.  1.
</event>
<event>
 5    1  0.1766634E-003  0.9118800E+02  0.7818608E-02  0.1130116E+00
         25   -1    0    0    0    0  0.00000000000E+00  0.00000000000E+00  0.99999998245E-14  0.12500000000E+03  0.12500000000E+03 0.  0.
        -13    1    3    3    0    0  0.17644015808E+02  0.26472940267E+02  0.17912734979E+02  0.36510342352E+02  0.10566000000E+00 0. -1.
         23    2    1    0    0    0  0.15189421649E+01  0.39312066766E+00 -0.30848799305E+02  0.94111326546E+02  0.88897871946E+02 0.  0.
         13    1    3    3    0    0 -0.16125073643E+02 -0.26079819599E+02 -0.48761534284E+02  0.57600984194E+02  0.10566000000E+00 0.  1.
         22    1    1    0    0    0 -0.15189421649E+01 -0.39312066766E+00  0.30848799305E+02  0.30888673454E+02  0.00000000000E+00 0.  1.
</event>
<event>
 5    1  0.1766634E-003  0.9118800E+02  0.7818608E-02  0.1130116E+00
         25   -1    0    0    0    0  0.00000000000E+00  0.00000000000E+00  0.99999998245E-14  0.12500000000E+03  0.12500000000E+03 0.  0.
        -13    1    3    3    0    0 -0.45977700601E+01 -0.11446378727E+02 -0.33548652139E+02  0.35744682120E+02  0.10566000000E+00 0.  1.
         23    2    1    0    0    0  0.13572111059E+02  0.91866867342E+01  0.21906750205E+02  0.97641215006E+02  0.93729951198E+02 0.  0.
         13    1    3    3    0    0  0.18169881120E+02  0.20633065461E+02  0.55455402344E+02  0.61896532887E+02  0.10566000000E+00 0. -1.
         22    1    1    0    0    0 -0.13572111059E+02 -0.91866867342E+01 -0.21906750205E+02  0.27358784994E+02  0.00000000000E+00 0. -1.
</event>
<event>
 5    1  0.1766634E-003  0.9118800E+02  0.7818608E-02  0.1130116E+00
         25   -1    0    0    0    0  0.00000000000E+00  0.00000000000E+00  0.99999998245E-14  0.12500000000E+03  0.12500000000E+03 0.  0.
        -13    1    3    3    0    0  0.10802734601E+02 -0.47845218974E+02  0.29897647248E+02  0.57443402828E+02  0.10566000000E+00 0.  1.
         23    2    1    0    0    0  0.83448167121E+01 -0.27710909777E+02 -0.28032216791E+01  0.95924433997E+02  0.91411752523E+02 0.  0.
         13    1    3    3    0    0 -0.24579178887E+01  0.20134309197E+02 -0.32700868927E+02  0.38481031169E+02  0.10566000000E+00 0. -1.
         22    1    1    0    0    0 -0.83448167121E+01  0.27710909777E+02  0.28032216791E+01  0.29075566003E+02  0.00000000000E+00 0.  1.
</event>
<event>
 5    1  0.1766634E-003  0.9118800E+02  0.7818608E-02  0.1130116E+00
         25   -1    0    0    0    0  0.00000000000E+00  0.00000000000E+00  0.99999998245E-14  0.12500000000E+03  0.12500000000E+03 0.  0.
        -13    1    3    3    0    0 -0.33976182904E+02  0.13664363262E+02  0.13793873668E+02  0.39132824366E+02  0.10566000000E+00 0. -1.
         23    2    1    0    0    0  0.12395375486E+02 -0.17344257005E+02  0.20629824683E+02  0.95334224248E+02  0.90601082014E+02 0.  0.
         13    1    3    3    0    0  0.46371558390E+02 -0.31008620268E+02  0.68359510147E+01  0.56201399882E+02  0.10566000000E+00 0.  1.
         22    1    1    0    0    0 -0.12395375486E+02  0.17344257005E+02 -0.20629824683E+02  0.29665775752E+02  0.00000000000E+00 0.  1.
</event>
<event>
 5    1  0.1766634E-003  0.9118800E+02  0.7818608E-02  0.1130116E+00
         25   -1    0    0    0    0  0.00000000000E+00  0.00000000000E+00  0.99999998245E-14  0.12500000000E+03  0.12500000000E+03 0.  0.
        -13    1    3    3    0    0  0.17168366305E+02 -0.34373102964E+02 -0.28541300244E+02  0.47863138140E+02  0.10566000000E+00 0. -1.
         23    2    1    0    0    0  0.16491898686E+02  0.12652169200E+02 -0.20924187383E+02  0.95506242603E+02  0.90838101317E+02 0.  0.
         13    1    3    3    0    0 -0.67646761849E+00  0.47025272164E+02  0.76171128616E+01  0.47643104463E+02  0.10566000000E+00 0.  1.
         22    1    1    0    0    0 -0.16491898686E+02 -0.12652169200E+02  0.20924187383E+02  0.29493757397E+02  0.00000000000E+00 0.  1.
</event>
<event>
 5    1  0.1766634E-003  0.9118800E+02  0.7818608E-02  0.1130116E+00
         25   -1    0    0    0    0  0.00000000000E+00  0.00000000000E+00  0.99999998245E-14  0.12500000000E+03  0.12500000000E+03 0.  0.
        -13    1    3    3    0    0  0.34431133635E+02  0.19437605238E+02 -0.17882299142E+02  0.43394829732E+02  0.10566000000E+00 0. -1.
         23    2    1    0    0    0 -0.14717643948E+02  0.14551883332E+00 -0.24307279527E+02  0.96583912002E+02  0.92309143645E+02 0.  0.
         13    1    3    3    0    0 -0.49148777584E+02 -0.19292086404E+02 -0.64249803848E+01  0.53189082270E+02  0.10566000000E+00 0.  1.
         22    1    1    0    0    0  0.14717643948E+02 -0.14551883332E+00  0.24307279527E+02  0.28416087998E+02  0.00000000000E+00 0. -1.
</event>
<event>
 5    1  0.1766634E-003  0.9118800E+02  0.7818608E-02  0.1130116E+00
         25   -1    0    0    0    0  0.00000000000E+00  0.00000000000E+00  0.99999998245E-14  0.12500000000E+03  0.12500000000E+03 0.  0.
        -13    1    3    3    0    0  0.15623191266E+02  0.46985271528E+02 -0.33567585073E+02  0.59820513016E+02  0.10566000000E+00 0.  1.
         23    2    1    0    0    0  0.10880755839E+02  0.12070907205E+02 -0.23431354530E+02  0.96484635308E+02  0.92174610534E+02 0.  0.
         13    1    3    3    0    0 -0.47424354264E+01 -0.34914364322E+02  0.10136230543E+02  0.36664122292E+02  0.10566000000E+00 0. -1.
         22    1    1    0    0    0 -0.10880755839E+02 -0.12070907205E+02  0.23431354530E+02  0.28515364692E+02  0.00000000000E+00 0.  1.
</event>
<event>
 5    1  0.1766634E-003  0.9118800E+02  0.7818608E-02  0.1130116E+00
         25   -1    0    0    0    0  0.00000000000E+00  0.00000000000E+00  0.99999998245E-14  0.12500000000E+03  0.12500000000E+03 0.  0.
        -13    1    3    3    0    0  0.37118553888E+02  0.95067490028E+01  0.16213298614E+02  0.41605859387E+02  0.10566000000E+00 0.  1.
         23    2    1    0    0    0 -0.10554438478E+01 -0.28153027966E+02  0.50981540408E+01  0.96369629413E+02  0.92018516360E+02 0.  0.
         13    1    3    3    0    0 -0.38173997736E+02 -0.37659776968E+02 -0.11115144573E+02  0.54763770025E+02  0.10566000000E+00 0. -1.
         22    1    1    0    0    0  0.10554438478E+01  0.28153027966E+02 -0.50981540408E+01  0.28630370587E+02  0.00000000000E+00 0. -1.
</event>
<event>
 5    1  0.1766634E-003  0.9118800E+02  0.7818608E-02  0.1130116E+00
         25   -1    0    0    0    0  0.00000000000E+00  0.00000000000E+00  0.99999998245E-14  0.12500000000E+03  0.12500000000E+03 0.  0.
        -13    1    3    3    0    0 -0.28219997593E+02 -0.46322632888E+02 -0.24787706060E+02  0.59637204140E+02  0.10566000000E+00 0.  1.
         23    2    1    0    0    0 -0.22715818849E+02 -0.12342346091E+02 -0.13302354045E+02  0.95926050214E+02  0.91413962574E+02 0.  0.
         13    1    3    3    0    0  0.55041787441E+01  0.33980286797E+02  0.11485352015E+02  0.36288846074E+02  0.10566000000E+00 0. -1.
         22    1    1    0    0    0  0.22715818849E+02  0.12342346091E+02  0.13302354045E+02  0.29073949786E+02  0.00000000000E+00 0.  1.
</event>
<event>
 5    1  0.1766634E-003  0.9118800E+02  0.7818608E-02  0.1130116E+00
         25   -1    0    0    0    0  0.00000000000E+00  0.00000000000E+00  0.99999998245E-14  0.12500000000E+03  0.12500000000E+03 0.  0.
        -13    1    3    3    0    0  0.14134012160E+02 -0.31096641581E+02 -0.35239850005E+02  0.49077791411E+02  0.10566000000E+00 0. -1.
         23    2    1    0    0    0 -0.13346547793E+02  0.37713093629E+01 -0.27579770978E+02  0.94129352461E+02  0.88923214715E+02 0.  0.
         13    1    3    3    0    0 -0.27480559953E+02  0.34867950944E+02  0.76600790274E+01  0.45051561050E+02  0.10566000000E+00 0.  1.
         22    1    1    0    0    0  0.13346547793E+02 -0.37713093629E+01  0.27579770978E+02  0.30870647539E+02  0.00000000000E+00 0.  1.
</event>
<event>
 5    1  0.1766634E-003  0.9118800E+02  0.7818608E-02  0.1130116E+00
         25   -1    0    0    0    0  0.00000000000E+00  0.00000000000E+00  0.99999998245E-14  0.12500000000E+03  0.12500000000E+03 0.  0.
        -13    1    3    3    0    0 -0.27520663950E+02 -0.21671284410E+02  0.25810871501E+02  0.43511421075E+02  0.10566000000E+00 0.  1.
         23    2    1    0    0    0 -0.12453856063E+02 -0.12476879107E+02 -0.23348630778E+02  0.95743725420E+02  0.91164309655E+02 0.  0.
         13    1    3    3    0    0  0.15066807887E+02  0.91944053038E+01 -0.49159502280E+02  0.52232304345E+02  0.10566000000E+00 0. -1.
         22    1    1    0    0    0  0.12453856063E+02  0.12476879107E+02  0.23348630778E+02  0.29256274580E+02  0.00000000000E+00 0. -1.
</event>
<event>
 5    1  0.1766634E-003  0.9118800E+02  0.7818608E-02  0.1130116E+00
         25   -1    0    0    0    0  0.00000000000E+00  0.00000000000E+00  0.99999998245E-14  0.12500000000E+03  0.12500000000E+03 0.  0.
        -13    1    3    3    0    0 -0.15921936159E+02 -0.20785878817E+02 -0.23285069646E+02  0.35039498308E+02  0.10566000000E+00 0.  1.
         23    2    1    0    0    0 -0.19976693114E+02  0.10251265651E+02  0.24247811815E+02  0.91952865585E+02  0.85809185966E+02 0.  0.
         13    1    3    3    0    0 -0.40547569549E+01  0.31037144468E+02  0.47532881461E+02  0.56913367276E+02  0.10566000000E+00 0. -1.
         22    1    1    0    0    0  0.19976693114E+02 -0.10251265651E+02 -0.24247811815E+02  0.33047134415E+02  0.00000000000E+00 0. -1.
</event>
<event>
 5    1  0.1766634E-003  0.9118800E+02  0.7818608E-02  0.1130116E+00
         25   -1    0    0    0    0  0.00000000000E+00  0.00000000000E+00  0.99999998245E-14  0.12500000000E+03  0.12500000000E+03 0.  0.
        -13    1    3    3    0    0 -0.36766332468E+02 -0.42012373167E+02 -0.16308548345E+02  0.58161693712E+02  0.10566000000E+00 0.  1.
         23    2    1    0    0    0 -0.26859500037E+02 -0.64495920499E+01 -0.10050503911E+02  0.95605398306E+02  0.90974444635E+02 0.  0.
         13    1    3    3    0    0  0.99068324303E+01  0.35562781117E+02  0.62580444344E+01  0.37443704595E+02  0.10566000000E+00 0. -1.
         22    1    1    0    0    0  0.26859500037E+02  0.64495920499E+01  0.10050503911E+02  0.29394601694E+02  0.00000000000E+00 0.  1.
</event>
<event>
 5    1  0.1766634E-003  0.9118800E+02  0.7818608E-02  0.1130116E+00
         25   -1    0    0    0    0  0.00000000000E+00  0.00000000000E+00  0.99999998245E-14  0.12500000000E+03  0.12500000000E+03 0.  0.
        -13    1    3    3    0    0 -0.19968616085E+02 -0.24144824575E+02 -0.24483430088E+02  0.39763899394E+02  0.10566000000E+00 0.  1.
         23    2    1    0    0    0 -0.21678212087E+01  0.27104640348E+02 -0.11005906008E+02  0.95665874068E+02  0.91057501157E+02 0.  0.
         13    1    3    3    0    0  0.17800794876E+02  0.51249464922E+02  0.13477524080E+02  0.55901974674E+02  0.10566000000E+00 0. -1.
         22    1    1    0    0    0  0.21678212087E+01 -0.27104640348E+02  0.11005906008E+02  0.29334125932E+02  0.00000000000E+00 0. -1.
</event>
<event>
 5    1  0.1766634E-003  0.9118800E+02  0.7818608E-02  0.1130116E+00
         25   -1    0    0    0    0  0.00000000000E+00  0.00000000000E+00  0.99999998245E-14  0.12500000000E+03  0.12500000000E+03 0.  0.
        -13    1    3    3    0    0  0.26501078190E+02 -0.42524409867E+02  0.33640870968E+02  0.60351900909E+02  0.10566000000E+00 0. -1.
         23    2    1    0    0    0  0.22641979153E+01 -0.25319085240E+02  0.13977841129E+02  0.95990299688E+02  0.91501775512E+02 0.  0.
         13    1    3    3    0    0 -0.24236880275E+02  0.17205324627E+02 -0.19663029840E+02  0.35638398779E+02  0.10566000000E+00 0.  1.
         22    1    1    0    0    0 -0.22641979153E+01  0.25319085240E+02 -0.13977841129E+02  0.29009700312E+02  0.00000000000E+00 0. -1.
</event>
<event>
 5    1  0.1766634E-003  0.9118800E+02  0.7818608E-02  0.1130116E+00
         25   -1    0    0    0    0  0.00000000000E+00  0.00000000000E+00  0.99999998245E-14  0.12500000000E+03  0.12500000000E+03 0.  0.
        -13    1    3    3    0    0 -0.18928498091E+02 -0.29259977070E+02 -0.43628098840E+02  0.55837769212E+02  0.10566000000E+00 0. -1.
         23    2    1    0    0    0 -0.21826236889E+02 -0.19122184717E+02 -0.54122408045E+01  0.95481617327E+02  0.90804208777E+02 0.  0.
         13    1    3    3    0    0 -0.28977387979E+01  0.10137792353E+02  0.38215858035E+02  0.39643848115E+02  0.10566000000E+00 0.  1.
         22    1    1    0    0    0  0.21826236889E+02  0.19122184717E+02  0.54122408045E+01  0.29518382673E+02  0.00000000000E+00 0. -1.
</event>
<event>
 5    1  0.1766634E-003  0.9118800E+02  0.7818608E-02  0.1130116E+00
         25   -1    0    0    0    0  0.00000000000E+00  0.00000000000E+00  0.99999998245E-14  0.12500000000E+03  0.12500000000E+03 0.  0.
        -13    1    3    3    0    0 -0.90645209124E+01  0.93523234616E+01  0.35589402747E+02  0.37897865975E+02  0.10566000000E+00 0.  1.
         23    2    1    0    0    0  0.17157489899E+01 -0.27215069916E+02 -0.87388145365E+01  0.96364869397E+02  0.92012050022E+02 0.  0.
         13    1    3    3    0    0  0.10780269902E+02 -0.36567393378E+02 -0.44328217284E+02  0.58467003422E+02  0.10566000000E+00 0. -1.
         22    1    1    0    0    0 -0.17157489899E+01  0.27215069916E+02  0.87388145365E+01  0.28635130603E+02  0.00000000000E+00 0. -1.
</event>
<event>
 5    1  0.1766634E-003  0.9118800E+02  0.7818608E-02  0.1130116E+00
         25   -1    0    0    0    0  0.00000000000E+00  0.00000000000E+00  0.99999998245E-14  0.12500000000E+03  0.12500000000E+03 0.  0.
        -13    1    3    3    0    0  0.58307723686E+01 -0.26771104771E+02 -0.27495730157E+02  0.38816443655E+02  0.10566000000E+00 0.  1.
         23    2    1    0    0    0  0.24496078984E+02  0.48737810600E+01  0.15681263262E+02  0.95509092165E+02  0.90842022442E+02 0.  0.
         13    1    3    3    0    0  0.18665306616E+02  0.31644885831E+02  0.43176993419E+02  0.56692648510E+02  0.10566000000E+00 0. -1.
         22    1    1    0    0    0 -0.24496078984E+02 -0.48737810600E+01 -0.15681263262E+02  0.29490907835E+02  0.00000000000E+00 0. -1.
</event>
<event>
 5    1  0.1766634E-003  0.9118800E+02  0.7818608E-02  0.1130116E+00
         25   -1    0    0    0    0  0.00000000000E+00  0.00000000000E+00  0.99999998245E-14  0.12500000000E+03  0.12500000000E+03 0.  0.
        -13    1    3    3    0    0  0.26950686314E+02  0.15054583172E+02  0.48145270227E+02  0.57192291234E+02  0.10566000000E+00 0.  1.
         23    2    1    0    0    0  0.43554932814E+01  0.22728305949E+02  0.17754994838E+02  0.95831762914E+02  0.91284942507E+02 0.  0.
         13    1    3    3    0    0 -0.22595193033E+02  0.76737227768E+01 -0.30390275389E+02  0.38639471680E+02  0.10566000000E+00 0. -1.
         22    1    1    0    0    0 -0.43554932814E+01 -0.22728305949E+02 -0.17754994838E+02  0.29168237086E+02  0.00000000000E+00 0.  1.
</event>
<event>
 5    1  0.1766634E-003  0.9118800E+02  0.7818608E-02  0.1130116E+00
         25   -1    0    0    0    0  0.00000000000E+00  0.00000000000E+00  0.99999998245E-14  0.12500000000E+03  0.12500000000E+03 0.  0.
        -13    1    3    3    0    0  0.62104922779E+01  0.26217081717E+02  0.33853593963E+02  0.43266413953E+02  0.10566000000E+00 0.  1.
         23    2    1    0    0    0 -0.27875605140E+02  0.11908195257E+02 -0.18107434564E+01  0.94633352702E+02  0.89628891411E+02 0.  0.
         13    1    3    3    0    0 -0.34086097418E+02 -0.14308886459E+02 -0.35664337419E+02  0.51366938750E+02  0.10566000000E+00 0. -1.
         22    1    1    0    0    0  0.27875605140E+02 -0.11908195257E+02  0.18107434564E+01  0.30366647298E+02  0.00000000000E+00 0. -1.
</event>
<event>
 5    1  0.1766634E-003  0.9118800E+02  0.7818608E-02  0.1130116E+00
         25   -1    0    0    0    0  0.00000000000E+00  0.00000000000E+00  0.99999998245E-14  0.12500000000E+03  0.12500000000E+03 0.  0.
        -13    1    3    3    0    0 -0.27662720380E+02 -0.23328774561E+00 -0.37415590822E+02  0.46531904352E+02  0.10566000000E+00 0.  1.
         23    2    1    0    0    0  0.19199863199E+02 -0.21943252911E+01 -0.21568896950E+02  0.96040249898E+02  0.91569986756E+02 0.  0.
         13    1    3    3    0    0  0.46862583580E+02 -0.19610375455E+01  0.15846693872E+02  0.49508345546E+02  0.10566000000E+00 0. -1.
         22    1    1    0    0    0 -0.19199863199E+02  0.21943252911E+01  0.21568896950E+02  0.28959750102E+02  0.00000000000E+00 0.  1.
</event>
<event>
 5    1  0.1766634E-003  0.9118800E+02  0.7818608E-02  0.1130116E+00
         25   -1    0    0    0    0  0.00000000000E+00  0.00000000000E+00  0.99999998245E-14  0.12500000000E+03  0.12500000000E+03 0.  0.
        -13    1    3    3    0    0 -0.14367441364E+02  0.91269967369E+01  0.46360468099E+02  0.49386532650E+02  0.10566000000E+00 0.  1.
         23    2    1    0    0    0  0.20040140630E+02  0.72595115933E+01  0.52120447958E+01  0.10305750342E+03  0.10069446785E+03 0.  0.
         13    1    3    3    0    0  0.34407581995E+02 -0.18674851435E+01 -0.41148423303E+02  0.53670970774E+02  0.10566000000E+00 0. -1.
         22    1    1    0    0    0 -0.20040140630E+02 -0.72595115933E+01 -0.52120447958E+01  0.21942496576E+02  0.00000000000E+00 0. -1.
</event>
<event>
 5    1  0.1766634E-003  0.9118800E+02  0.7818608E-02  0.1130116E+00
         25   -1    0    0    0    0  0.00000000000E+00  0.00000000000E+00  0.99999998245E-14  0.12500000000E+03  0.12500000000E+03 0.  0.
        -13    1    3    3    0    0  0.82259871694E+00 -0.29078288230E+01  0.35762893186E+02  0.35890497770E+02  0.10566000000E+00 0.  1.
         23    2    1    0    0    0  0.16095947517E+02  0.14428846993E+02 -0.19561989140E+02  0.95846225439E+02  0.91304744454E+02 0.  0.
         13    1    3    3    0    0  0.15273348800E+02  0.17336675816E+02 -0.55324882326E+02  0.59955727669E+02  0.10566000000E+00 0. -1.
         22    1    1    0    0    0 -0.16095947517E+02 -0.14428846993E+02  0.19561989140E+02  0.29153774561E+02  0.00000000000E+00 0. -1.
</event>
<event>
 5    1  0.1766634E-003  0.9118800E+02  0.7818608E-02  0.1130116E+00
         25   -1    0    0    0    0  0.00000000000E+00  0.00000000000E+00  0.99999998245E-14  0.12500000000E+03  0.12500000000E+03 0.  0.
        -13    1    3    3    0    0  0.17509549145E+01  0.25495269510E+02 -0.23244999041E+02  0.34545850039E+02  0.10566000000E+00 0.  1.
         23    2    1    0    0    0  0.36539489446E+02  0.26983611247E+02  0.48928631995E+01  0.79314228963E+02  0.64834845884E+02 0.  0.
         13    1    3    3    0    0  0.34788534532E+02  0.14883417370E+01  0.28137862240E+02  0.44768378924E+02  0.10566000000E+00 0. -1.
         22    1    1    0    0    0 -0.36539489446E+02 -0.26983611247E+02 -0.48928631995E+01  0.45685771037E+02  0.00000000000E+00 0. -1.
</event>
<event>
 5    1  0.1766634E-003  0.9118800E+02  0.7818608E-02  0.1130116E+00
         25   -1    0    0    0    0  0.00000000000E+00  0.00000000000E+00  0.99999998245E-14  0.12500000000E+03  0.12500000000E+03 0.  0.
        -13    1    3    3    0    0  0.56419864582E+02 -0.80376471569E+01  0.59368162286E+01  0.57298009060E+02  0.10566000000E+00 0.  1.
         23    2    1    0    0    0  0.20760547302E+02 -0.19537479351E+02  0.95380797150E+01  0.94938589715E+02  0.90053580877E+02 0.  0.
         13    1    3    3    0    0 -0.35659317280E+02 -0.11499832194E+02  0.36012634864E+01  0.37640580655E+02  0.10566000000E+00 0. -1.
         22    1    1    0    0    0 -0.20760547302E+02  0.19537479351E+02 -0.95380797150E+01  0.30061410285E+02  0.00000000000E+00 0. -1.
</event>
<event>
 5    1  0.1766634E-003  0.9118800E+02  0.7818608E-02  0.1130116E+00
         25   -1    0    0    0    0  0.00000000000E+00  0.00000000000E+00  0.99999998245E-14  0.12500000000E+03  0.12500000000E+03 0.  0.
        -13    1    3    3    0    0  0.18530232854E+02 -0.37152307021E+02  0.86753441160E+01  0.42413868088E+02  0.10566000000E+00 0.  1.
         23    2    1    0    0    0  0.20223544978E+02  0.11385967410E+02 -0.15921664720E+02  0.96855170408E+02  0.92675739015E+02 0.  0.
         13    1    3    3    0    0  0.16933121236E+01  0.48538274430E+02 -0.24597008836E+02  0.54441302320E+02  0.10566000000E+00 0. -1.
         22    1    1    0    0    0 -0.20223544978E+02 -0.11385967410E+02  0.15921664720E+02  0.28144829592E+02  0.00000000000E+00 0. -1.
</event>
<event>
 5    1  0.1766634E-003  0.9118800E+02  0.7818608E-02  0.1130116E+00
         25   -1    0    0    0    0  0.00000000000E+00  0.00000000000E+00  0.99999998245E-14  0.12500000000E+03  0.12500000000E+03 0.  0.
        -13    1    3    3    0    0 -0.34894840854E+02 -0.31830243569E+02  0.30048177724E+02  0.55979625512E+02  0.10566000000E+00 0.  1.
         23    2    1    0    0    0 -0.26578047476E+02 -0.11940091132E+02 -0.32863569599E+01  0.95678360790E+02  0.91074640804E+02 0.  0.
         13    1    3    3    0    0  0.83167933783E+01  0.19890152437E+02 -0.33334534684E+02  0.39698735278E+02  0.10566000000E+00 0. -1.
         22    1    1    0    0    0  0.26578047476E+02  0.11940091132E+02  0.32863569599E+01  0.29321639210E+02  0.00000000000E+00 0.  1.
</event>
<event>
 5    1  0.1766634E-003  0.9118800E+02  0.7818608E-02  0.1130116E+00
         25   -1    0    0    0    0  0.00000000000E+00  0.00000000000E+00  0.99999998245E-14  0.12500000000E+03  0.12500000000E+03 0.  0.
        -13    1    3    3    0    0 -0.15034806411E+02 -0.11681063052E+02  0.32072983578E+02  0.37298526479E+02  0.10566000000E+00 0.  1.
         23    2    1    0    0    0  0.15296340570E+02  0.26284728976E+02  0.18337068100E+01  0.94533173896E+02  0.89489069020E+02 0.  0.
         13    1    3    3    0    0  0.30331146981E+02  0.37965792028E+02 -0.30239276768E+02  0.57234647418E+02  0.10566000000E+00 0. -1.
         22    1    1    0    0    0 -0.15296340570E+02 -0.26284728976E+02 -0.18337068100E+01  0.30466826104E+02  0.00000000000E+00 0. -1.
</event>
<event>
 5    1  0.1766634E-003  0.9118800E+02  0.7818608E-02  0.1130116E+00
         25   -1    0    0    0    0  0.00000000000E+00  0.00000000000E+00  0.99999998245E-14  0.12500000000E+03  0.12500000000E+03 0.  0.
        -13    1    3    3    0    0 -0.25348120794E+02 -0.28749010894E+01 -0.17099748122E+02  0.30711640039E+02  0.10566000000E+00 0.  1.
         23    2    1    0    0    0  0.60747841798E+01  0.35262090286E+02  0.11010725741E+02  0.87562664418E+02  0.79155960638E+02 0.  0.
         13    1    3    3    0    0  0.31422904973E+02  0.38136991375E+02  0.28110473862E+02  0.56851024379E+02  0.10566000000E+00 0. -1.
         22    1    1    0    0    0 -0.60747841798E+01 -0.35262090286E+02 -0.11010725741E+02  0.37437335582E+02  0.00000000000E+00 0. -1.
</event>
<event>
 5    1  0.1766634E-003  0.9118800E+02  0.7818608E-02  0.1130116E+00
         25   -1    0    0    0    0  0.00000000000E+00  0.00000000000E+00  0.99999998245E-14  0.12500000000E+03  0.12500000000E+03 0.  0.
        -13    1    3    3    0    0 -0.47088403493E+01 -0.37721945172E+02  0.43366875974E+02  0.57669883134E+02  0.10566000000E+00 0.  1.
         23    2    1    0    0    0  0.14471314531E+02 -0.12407051398E+02  0.21698087338E+02  0.96118156867E+02  0.91676274012E+02 0.  0.
         13    1    3    3    0    0  0.19180154881E+02  0.25314893773E+02 -0.21668788636E+02  0.38448273732E+02  0.10566000000E+00 0. -1.
         22    1    1    0    0    0 -0.14471314531E+02  0.12407051398E+02 -0.21698087338E+02  0.28881843133E+02  0.00000000000E+00 0.  1.
</event>
<event>
 5    1  0.1766634E-003  0.9118800E+02  0.7818608E-02  0.1130116E+00
         25   -1    0    0    0    0  0.00000000000E+00  0.00000000000E+00  0.99999998245E-14  0.12500000000E+03  0.12500000000E+03 0.  0.
        -13    1    3    3    0    0  0.27202223048E+01  0.28707990188E+02  0.11678587889E+02  0.31111876978E+02  0.10566000000E+00 0.  1.
         23    2    1    0    0    0 -0.25482535841E+02 -0.17073119163E+02 -0.14678783295E+02  0.90995328117E+02  0.84402796335E+02 0.  0.
         13    1    3    3    0    0 -0.28202758146E+02 -0.45781109351E+02 -0.26357371184E+02  0.59883451138E+02  0.10566000000E+00 0. -1.
         22    1    1    0    0    0  0.25482535841E+02  0.17073119163E+02  0.14678783295E+02  0.34004671883E+02  0.00000000000E+00 0. -1.
</event>
<event>
 5    1  0.1766634E-003  0.9118800E+02  0.7818608E-02  0.1130116E+00
         25   -1    0    0    0    0  0.00000000000E+00  0.00000000000E+00  0.99999998245E-14  0.12500000000E+03  0.12500000000E+03 0.  0.
        -13    1    3    3    0    0  0.42187074066E+02 -0.37689358695E+02  0.18065361733E+02  0.59385229104E+02  0.10566000000E+00 0.  1.
         23    2    1    0    0    0  0.15601229497E+02 -0.25556250710E+02 -0.22454269786E+01  0.94973973715E+02  0.90102682694E+02 0.  0.
         13    1    3    3    0    0 -0.26585844569E+02  0.12133107986E+02 -0.20310788712E+02  0.35588744611E+02  0.10566000000E+00 0. -1.
         22    1    1    0    0    0 -0.15601229497E+02  0.25556250710E+02  0.22454269786E+01  0.30026026285E+02  0.00000000000E+00 0.  1.
</event>
<event>
 5    1  0.1766634E-003  0.9118800E+02  0.7818608E-02  0.1130116E+00
         25   -1    0    0    0    0  0.00000000000E+00  0.00000000000E+00  0.99999998245E-14  0.12500000000E+03  0.12500000000E+03 0.  0.
        -13    1    3    3    0    0  0.35167363360E+02  0.22014353674E+01  0.43307039516E+02  0.55831000340E+02  0.10566000000E+00 0.  1.
         23    2    1    0    0    0  0.17488362409E+02 -0.18813543525E+02  0.15075369840E+02  0.95216464019E+02  0.90438465294E+02 0.  0.
         13    1    3    3    0    0 -0.17679000951E+02 -0.21014978893E+02 -0.28231669675E+02  0.39385463678E+02  0.10566000000E+00 0. -1.
         22    1    1    0    0    0 -0.17488362409E+02  0.18813543525E+02 -0.15075369840E+02  0.29783535981E+02  0.00000000000E+00 0. -1.
</event>
<event>
 5    1  0.1766634E-003  0.9118800E+02  0.7818608E-02  0.1130116E+00
         25   -1    0    0    0    0  0.00000000000E+00  0.00000000000E+00  0.99999998245E-14  0.12500000000E+03  0.12500000000E+03 0.  0.
        -13    1    3    3    0    0 -0.17346588370E+02  0.58024040584E+01  0.31498704136E+02  0.36424600852E+02  0.10566000000E+00 0.  1.
         23    2    1    0    0    0  0.13669366949E+02  0.19419531066E+02 -0.17151526447E+02  0.95705894124E+02  0.91112422485E+02 0.  0.
         13    1    3    3    0    0  0.31015955319E+02  0.13617127007E+02 -0.48650230583E+02  0.59281293273E+02  0.10566000000E+00 0. -1.
         22    1    1    0    0    0 -0.13669366949E+02 -0.19419531066E+02  0.17151526447E+02  0.29294105876E+02  0.00000000000E+00 0. -1.
</event>
<event>
 5    1  0.1766634E-003  0.9118800E+02  0.7818608E-02  0.1130116E+00
         25   -1    0    0    0    0  0.00000000000E+00  0.00000000000E+00  0.99999998245E-14  0.12500000000E+03  0.12500000000E+03 0.  0.
        -13    1    3    3    0    0 -0.27470106093E+02  0.51498520962E+02  0.10517668876E+02  0.59307140486E+02  0.10566000000E+00 0. -1.
         23    2    1    0    0    0 -0.22166448010E+02  0.18647166192E+02 -0.42672930628E+01  0.95720689651E+02  0.91132718674E+02 0.  0.
         13    1    3    3    0    0  0.53036580826E+01 -0.32851354769E+02 -0.14784961939E+02  0.36413549165E+02  0.10566000000E+00 0.  1.
         22    1    1    0    0    0  0.22166448010E+02 -0.18647166192E+02  0.42672930628E+01  0.29279310349E+02  0.00000000000E+00 0. -1.
</event>
<event>
 5    1  0.1766634E-003  0.9118800E+02  0.7818608E-02  0.1130116E+00
         25   -1    0    0    0    0  0.00000000000E+00  0.00000000000E+00  0.99999998245E-14  0.12500000000E+03  0.12500000000E+03 0.  0.
        -13    1    3    3    0    0  0.12285509614E+01 -0.31135485670E+02 -0.43679543905E+02  0.53654836922E+02  0.10566000000E+00 0. -1.
         23    2    1    0    0    0 -0.22269781004E+02 -0.12697105289E+02 -0.13873318001E+02  0.95851611004E+02  0.91312117219E+02 0.  0.
         13    1    3    3    0    0 -0.23498331966E+02  0.18438380382E+02  0.29806225904E+02  0.42196774082E+02  0.10566000000E+00 0.  1.
         22    1    1    0    0    0  0.22269781004E+02  0.12697105289E+02  0.13873318001E+02  0.29148388996E+02  0.00000000000E+00 0.  1.
</event>
<event>
 5    1  0.1766634E-003  0.9118800E+02  0.7818608E-02  0.1130116E+00
         25   -1    0    0    0    0  0.00000000000E+00  0.00000000000E+00  0.99999998245E-14  0.12500000000E+03  0.12500000000E+03 0.  0.
        -13    1    3    3    0    0 -0.44873896193E+02 -0.67327332137E+01  0.13360377735E+02  0.47302295011E+02  0.10566000000E+00 0. -1.
         23    2    1    0    0    0 -0.62688127434E+00 -0.26816501560E+02  0.11169728522E+02  0.95943493477E+02  0.91437811486E+02 0.  0.
         13    1    3    3    0    0  0.44247014919E+02 -0.20083768346E+02 -0.21906492129E+01  0.48641198466E+02  0.10566000000E+00 0.  1.
         22    1    1    0    0    0  0.62688127434E+00  0.26816501560E+02 -0.11169728522E+02  0.29056506523E+02  0.00000000000E+00 0. -1.
</event>
<event>
 5    1  0.1766634E-003  0.9118800E+02  0.7818608E-02  0.1130116E+00
         25   -1    0    0    0    0  0.00000000000E+00  0.00000000000E+00  0.99999998245E-14  0.12500000000E+03  0.12500000000E+03 0.  0.
        -13    1    3    3    0    0  0.29893104153E+00  0.55235932514E+02  0.26630183980E+02  0.61321084982E+02  0.10566000000E+00 0.  1.
         23    2    1    0    0    0 -0.40939220047E+01  0.28418247835E+02  0.54491864600E+01  0.95775855179E+02  0.91208353756E+02 0.  0.
         13    1    3    3    0    0 -0.43928530462E+01 -0.26817684679E+02 -0.21180997520E+02  0.34454770198E+02  0.10566000000E+00 0. -1.
         22    1    1    0    0    0  0.40939220047E+01 -0.28418247835E+02 -0.54491864600E+01  0.29224144821E+02  0.00000000000E+00 0.  1.
</event>
<event>
 5    1  0.1766634E-003  0.9118800E+02  0.7818608E-02  0.1130116E+00
         25   -1    0    0    0    0  0.00000000000E+00  0.00000000000E+00  0.99999998245E-14  0.12500000000E+03  0.12500000000E+03 0.  0.
        -13    1    3    3    0    0  0.35054063303E+02 -0.57411990555E+01  0.25459770298E+02  0.43703086713E+02  0.10566000000E+00 0.  1.
         23    2    1    0    0    0 -0.13753281754E+02 -0.18846915526E+02  0.19505574648E+02  0.94589041018E+02  0.89567071263E+02 0.  0.
         13    1    3    3    0    0 -0.48807345057E+02 -0.13105716470E+02 -0.59541956497E+01  0.50885954305E+02  0.10566000000E+00 0. -1.
         22    1    1    0    0    0  0.13753281754E+02  0.18846915526E+02 -0.19505574648E+02  0.30410958982E+02  0.00000000000E+00 0.  1.
</event>
<event>
 5    1  0.1766634E-003  0.9118800E+02  0.7818608E-02  0.1130116E+00
         25   -1    0    0    0    0  0.00000000000E+00  0.00000000000E+00  0.99999998245E-14  0.12500000000E+03  0.12500000000E+03 0.  0.
        -13    1    3    3    0    0  0.16595522693E+02  0.20727289981E+02  0.41028076745E+02  0.48870708700E+02  0.10566000000E+00 0.  1.
         23    2    1    0    0    0  0.29353071675E+02  0.20799505404E+01  0.15501659516E+00  0.95572919935E+02  0.90929808005E+02 0.  0.
         13    1    3    3    0    0  0.12757548982E+02 -0.18647339440E+02 -0.40873060150E+02  0.46702211235E+02  0.10566000000E+00 0. -1.
         22    1    1    0    0    0 -0.29353071675E+02 -0.20799505404E+01 -0.15501659516E+00  0.29427080065E+02  0.00000000000E+00 0. -1.
</event>
<event>
 5    1  0.1766634E-003  0.9118800E+02  0.7818608E-02  0.1130116E+00
         25   -1    0    0    0    0  0.00000000000E+00  0.00000000000E+00  0.99999998245E-14  0.12500000000E+03  0.12500000000E+03 0.  0.
        -13    1    3    3    0    0 -0.74780623105E+01 -0.25755790122E+02 -0.37616820880E+02  0.46198685239E+02  0.10566000000E+00 0.  1.
         23    2    1    0    0    0  0.27557266208E+02 -0.61508962071E+01 -0.95141762369E+01  0.95204765574E+02  0.90422294782E+02 0.  0.
         13    1    3    3    0    0  0.35035328519E+02  0.19604893915E+02  0.28102644643E+02  0.49006080335E+02  0.10566000000E+00 0. -1.
         22    1    1    0    0    0 -0.27557266208E+02  0.61508962071E+01  0.95141762369E+01  0.29795234426E+02  0.00000000000E+00 0.  1.
</event>
<event>
 5    1  0.1766634E-003  0.9118800E+02  0.7818608E-02  0.1130116E+00
         25   -1    0    0    0    0  0.00000000000E+00  0.00000000000E+00  0.99999998245E-14  0.12500000000E+03  0.12500000000E+03 0.  0.
        -13    1    3    3    0    0 -0.78444786078E+01 -0.28448697893E+01 -0.36873931984E+02  0.37806443270E+02  0.10566000000E+00 0.  1.
         23    2    1    0    0    0  0.17646971427E+02  0.31207833105E+02 -0.11440743916E+02  0.87367101241E+02  0.78846530110E+02 0.  0.
         13    1    3    3    0    0  0.25491450034E+02  0.34052702894E+02  0.25433188068E+02  0.49560657971E+02  0.10566000000E+00 0. -1.
         22    1    1    0    0    0 -0.17646971427E+02 -0.31207833105E+02  0.11440743916E+02  0.37632898759E+02  0.00000000000E+00 0. -1.
</event>
<event>
 5    1  0.1766634E-003  0.9118800E+02  0.7818608E-02  0.1130116E+00
         25   -1    0    0    0    0  0.00000000000E+00  0.00000000000E+00  0.99999998245E-14  0.12500000000E+03  0.12500000000E+03 0.  0.
        -13    1    3    3    0    0  0.26148661871E+02 -0.20029192390E+02  0.17588050136E+02  0.37339948274E+02  0.10566000000E+00 0.  1.
         23    2    1    0    0    0 -0.28643561423E+02 -0.53366280494E+01  0.66913096347E+01  0.95105070086E+02  0.90284370306E+02 0.  0.
         13    1    3    3    0    0 -0.54792223294E+02  0.14692564341E+02 -0.10896740501E+02  0.57765121813E+02  0.10566000000E+00 0. -1.
         22    1    1    0    0    0  0.28643561423E+02  0.53366280494E+01 -0.66913096347E+01  0.29894929914E+02  0.00000000000E+00 0. -1.
</event>
<event>
 5    1  0.1766634E-003  0.9118800E+02  0.7818608E-02  0.1130116E+00
         25   -1    0    0    0    0  0.00000000000E+00  0.00000000000E+00  0.99999998245E-14  0.12500000000E+03  0.12500000000E+03 0.  0.
        -13    1    3    3    0    0 -0.20175775631E+02  0.18889519951E+02 -0.27557357539E+02  0.39029412049E+02  0.10566000000E+00 0. -1.
         23    2    1    0    0    0 -0.40990031967E+01 -0.26483830258E+02  0.57812844960E+01  0.97584341285E+02  0.93654072636E+02 0.  0.
         13    1    3    3    0    0  0.16076772435E+02 -0.45373350209E+02  0.33338642035E+02  0.58554929236E+02  0.10566000000E+00 0.  1.
         22    1    1    0    0    0  0.40990031967E+01  0.26483830258E+02 -0.57812844960E+01  0.27415658715E+02  0.00000000000E+00 0.  1.
</event>
<event>
 5    1  0.1766634E-003  0.9118800E+02  0.7818608E-02  0.1130116E+00
         25   -1    0    0    0    0  0.00000000000E+00  0.00000000000E+00  0.99999998245E-14  0.12500000000E+03  0.12500000000E+03 0.  0.
        -13    1    3    3    0    0  0.40072072138E+02 -0.21606998528E+01 -0.70652174534E+01  0.40747614053E+02  0.10566000000E+00 0. -1.
         23    2    1    0    0    0 -0.11777671881E+02 -0.23967107427E+02 -0.83789403318E+01  0.97011744705E+02  0.92886684602E+02 0.  0.
         13    1    3    3    0    0 -0.51849744019E+02 -0.21806407575E+02 -0.13137228784E+01  0.56264130652E+02  0.10566000000E+00 0.  1.
         22    1    1    0    0    0  0.11777671881E+02  0.23967107427E+02  0.83789403318E+01  0.27988255295E+02  0.00000000000E+00 0.  1.
</event>
<event>
 5    1  0.1766634E-003  0.9118800E+02  0.7818608E-02  0.1130116E+00
         25   -1    0    0    0    0  0.00000000000E+00  0.00000000000E+00  0.99999998245E-14  0.12500000000E+03  0.12500000000E+03 0.  0.
        -13    1    3    3    0    0  0.26598459856E+02 -0.32376776389E+02  0.34395893306E+02  0.54210906250E+02  0.10566000000E+00 0.  1.
         23    2    1    0    0    0  0.18771682379E+02  0.67366271258E+01  0.20365474164E+02  0.96495425941E+02  0.92189242784E+02 0.  0.
         13    1    3    3    0    0 -0.78267774763E+01  0.39113403515E+02 -0.14030419142E+02  0.42284519691E+02  0.10566000000E+00 0. -1.
         22    1    1    0    0    0 -0.18771682379E+02 -0.67366271258E+01 -0.20365474164E+02  0.28504574059E+02  0.00000000000E+00 0.  1.
</event>
<event>
 5    1  0.1766634E-003  0.9118800E+02  0.7818608E-02  0.1130116E+00
         25   -1    0    0    0    0  0.00000000000E+00  0.00000000000E+00  0.99999998245E-14  0.12500000000E+03  0.12500000000E+03 0.  0.
        -13    1    3    3    0    0 -0.20630711159E+02  0.29716558106E+02  0.36604041573E+02  0.51464231191E+02  0.10566000000E+00 0. -1.
         23    2    1    0    0    0  0.16355334890E+02  0.19402094956E+02  0.15004096886E+02  0.95520156184E+02  0.90857245423E+02 0.  0.
         13    1    3    3    0    0  0.36986046049E+02 -0.10314463150E+02 -0.21599944687E+02  0.44055924992E+02  0.10566000000E+00 0.  1.
         22    1    1    0    0    0 -0.16355334890E+02 -0.19402094956E+02 -0.15004096886E+02  0.29479843816E+02  0.00000000000E+00 0. -1.
</event>
<event>
 5    1  0.1766634E-003  0.9118800E+02  0.7818608E-02  0.1130116E+00
         25   -1    0    0    0    0  0.00000000000E+00  0.00000000000E+00  0.99999998245E-14  0.12500000000E+03  0.12500000000E+03 0.  0.
        -13    1    3    3    0    0  0.47399621955E+02 -0.22548009291E+02 -0.19513073998E+02  0.55999179506E+02  0.10566000000E+00 0.  1.
         23    2    1    0    0    0  0.22957072076E+02  0.10363063837E+02 -0.71964062316E+01  0.98804418063E+02  0.95268591444E+02 0.  0.
         13    1    3    3    0    0 -0.24442549879E+02  0.32911073128E+02  0.12316667767E+02  0.42805238557E+02  0.10566000000E+00 0. -1.
         22    1    1    0    0    0 -0.22957072076E+02 -0.10363063837E+02  0.71964062316E+01  0.26195581937E+02  0.00000000000E+00 0.  1.
</event>
<event>
 5    1  0.1766634E-003  0.9118800E+02  0.7818608E-02  0.1130116E+00
         25   -1    0    0    0    0  0.00000000000E+00  0.00000000000E+00  0.99999998245E-14  0.12500000000E+03  0.12500000000E+03 0.  0.
        -13    1    3    3    0    0  0.12917396946E+02 -0.27007817609E+02 -0.18515307413E+02  0.35200981926E+02  0.10566000000E+00 0.  1.
         23    2    1    0    0    0  0.43036470811E+01  0.27671847945E+02  0.69716047752E+01  0.96140758499E+02  0.91707086011E+02 0.  0.
         13    1    3    3    0    0 -0.86137498651E+01  0.54679665554E+02  0.25486912188E+02  0.60939776573E+02  0.10566000000E+00 0. -1.
         22    1    1    0    0    0 -0.43036470811E+01 -0.27671847945E+02 -0.69716047752E+01  0.28859241501E+02  0.00000000000E+00 0. -1.
</event>
<event>
 5    1  0.1766634E-003  0.9118800E+02  0.7818608E-02  0.1130116E+00
         25   -1    0    0    0    0  0.00000000000E+00  0.00000000000E+00  0.99999998245E-14  0.12500000000E+03  0.12500000000E+03 0.  0.
        -13    1    3    3    0    0  0.57211742254E+01  0.60773150980E+02  0.52685639703E+01  0.61268888067E+02  0.10566000000E+00 0. -1.
         23    2    1    0    0    0 -0.59524053923E+01  0.22799697179E+02 -0.60613536468E+00  0.10142830678E+03  0.98651288354E+02 0.  0.
         13    1    3    3    0    0 -0.11673579618E+02 -0.37973453801E+02 -0.58746993350E+01  0.40159418709E+02  0.10566000000E+00 0.  1.
         22    1    1    0    0    0  0.59524053923E+01 -0.22799697179E+02  0.60613536468E+00  0.23571693225E+02  0.00000000000E+00 0. -1.
</event>
<event>
 5    1  0.1766634E-003  0.9118800E+02  0.7818608E-02  0.1130116E+00
         25   -1    0    0    0    0  0.00000000000E+00  0.00000000000E+00  0.99999998245E-14  0.12500000000E+03  0.12500000000E+03 0.  0.
        -13    1    3    3    0    0  0.39647962440E+02  0.22335575527E+02  0.78416251100E+01  0.46177279134E+02  0.10566000000E+00 0. -1.
         23    2    1    0    0    0  0.53198565180E+01  0.14817846498E+02 -0.25767379612E+02  0.94803521724E+02  0.89865902493E+02 0.  0.
         13    1    3    3    0    0 -0.34328105922E+02 -0.75177290289E+01 -0.33609004722E+02  0.48626242590E+02  0.10566000000E+00 0.  1.
         22    1    1    0    0    0 -0.53198565180E+01 -0.14817846498E+02  0.25767379612E+02  0.30196478276E+02  0.00000000000E+00 0. -1.
</event>
<event>
 5    1  0.1766634E-003  0.9118800E+02  0.7818608E-02  0.1130116E+00
         25   -1    0    0    0    0  0.00000000000E+00  0.00000000000E+00  0.99999998245E-14  0.12500000000E+03  0.12500000000E+03 0.  0.
        -13    1    3    3    0    0  0.25403531304E+02  0.74603712892E+01  0.25826922178E+02  0.36986992521E+02  0.10566000000E+00 0. -1.
         23    2    1    0    0    0 -0.23480362080E+02  0.15967439861E+02 -0.60561075781E+01  0.95966175276E+02  0.91468813368E+02 0.  0.
         13    1    3    3    0    0 -0.48883893384E+02  0.85070685717E+01 -0.31883029756E+02  0.58979182755E+02  0.10566000000E+00 0.  1.
         22    1    1    0    0    0  0.23480362080E+02 -0.15967439861E+02  0.60561075781E+01  0.29033824724E+02  0.00000000000E+00 0.  1.
</event>
<event>
 5    1  0.1766634E-003  0.9118800E+02  0.7818608E-02  0.1130116E+00
         25   -1    0    0    0    0  0.00000000000E+00  0.00000000000E+00  0.99999998245E-14  0.12500000000E+03  0.12500000000E+03 0.  0.
        -13    1    3    3    0    0  0.57313695902E+02  0.22930852327E+02 -0.31043743691E+01  0.61808834568E+02  0.10566000000E+00 0.  1.
         23    2    1    0    0    0  0.26083835208E+02  0.14751432815E+02 -0.67063717026E+01  0.94292563593E+02  0.89152346567E+02 0.  0.
         13    1    3    3    0    0 -0.31229860694E+02 -0.81794195126E+01 -0.36019973334E+01  0.32483729025E+02  0.10566000000E+00 0. -1.
         22    1    1    0    0    0 -0.26083835208E+02 -0.14751432815E+02  0.67063717026E+01  0.30707436407E+02  0.00000000000E+00 0.  1.
</event>
<event>
 5    1  0.1766634E-003  0.9118800E+02  0.7818608E-02  0.1130116E+00
         25   -1    0    0    0    0  0.00000000000E+00  0.00000000000E+00  0.99999998245E-14  0.12500000000E+03  0.12500000000E+03 0.  0.
        -13    1    3    3    0    0 -0.76724177136E+01  0.22232346088E+02  0.46531236582E+02  0.52137417926E+02  0.10566000000E+00 0. -1.
         23    2    1    0    0    0  0.14962540472E+02  0.19112229246E+02  0.40246322794E+01  0.10039608590E+03  0.97334585193E+02 0.  0.
         13    1    3    3    0    0  0.22634958185E+02 -0.31201168426E+01 -0.42506604302E+02  0.48258667973E+02  0.10566000000E+00 0.  1.
         22    1    1    0    0    0 -0.14962540472E+02 -0.19112229246E+02 -0.40246322794E+01  0.24603914101E+02  0.00000000000E+00 0.  1.
</event>
<event>
 5    1  0.1766634E-003  0.9118800E+02  0.7818608E-02  0.1130116E+00
         25   -1    0    0    0    0  0.00000000000E+00  0.00000000000E+00  0.99999998245E-14  0.12500000000E+03  0.12500000000E+03 0.  0.
        -13    1    3    3    0    0 -0.38270578867E+02 -0.75417266542E+00 -0.15609977569E+00  0.38278473251E+02  0.10566000000E+00 0.  1.
         23    2    1    0    0    0  0.12634711109E+02  0.12125367657E+02 -0.23458390222E+02  0.95726179999E+02  0.91140249065E+02 0.  0.
         13    1    3    3    0    0  0.50905289976E+02  0.12879540323E+02 -0.23302290447E+02  0.57447706748E+02  0.10566000000E+00 0. -1.
         22    1    1    0    0    0 -0.12634711109E+02 -0.12125367657E+02  0.23458390222E+02  0.29273820001E+02  0.00000000000E+00 0.  1.
</event>
<event>
 5    1  0.1766634E-003  0.9118800E+02  0.7818608E-02  0.1130116E+00
         25   -1    0    0    0    0  0.00000000000E+00  0.00000000000E+00  0.99999998245E-14  0.12500000000E+03  0.12500000000E+03 0.  0.
        -13    1    3    3    0    0  0.49312762994E+02 -0.30685094205E+02 -0.72780743057E+01  0.58534648971E+02  0.10566000000E+00 0.  1.
         23    2    1    0    0    0  0.13247776281E+02 -0.26551850908E+02 -0.50108597552E+01  0.94906594102E+02  0.90009158010E+02 0.  0.
         13    1    3    3    0    0 -0.36064986714E+02  0.41332432966E+01  0.22672145505E+01  0.36371945132E+02  0.10566000000E+00 0. -1.
         22    1    1    0    0    0 -0.13247776281E+02  0.26551850908E+02  0.50108597552E+01  0.30093405898E+02  0.00000000000E+00 0.  1.
</event>
<event>
 5    1  0.1766634E-003  0.9118800E+02  0.7818608E-02  0.1130116E+00
         25   -1    0    0    0    0  0.00000000000E+00  0.00000000000E+00  0.99999998245E-14  0.12500000000E+03  0.12500000000E+03 0.  0.
        -13    1    3    3    0    0  0.37471315154E+02 -0.64216449032E+01  0.42595210162E+02  0.57093783159E+02  0.10566000000E+00 0. -1.
         23    2    1    0    0    0  0.18347000046E+02 -0.19364501077E+02  0.11197088056E+02  0.96069547297E+02  0.91609971206E+02 0.  0.
         13    1    3    3    0    0 -0.19124315109E+02 -0.12942856174E+02 -0.31398122106E+02  0.38975764138E+02  0.10566000000E+00 0.  1.
         22    1    1    0    0    0 -0.18347000046E+02  0.19364501077E+02 -0.11197088056E+02  0.28930452703E+02  0.00000000000E+00 0. -1.
</event>
<event>
 5    1  0.1766634E-003  0.9118800E+02  0.7818608E-02  0.1130116E+00
         25   -1    0    0    0    0  0.00000000000E+00  0.00000000000E+00  0.99999998245E-14  0.12500000000E+03  0.12500000000E+03 0.  0.
        -13    1    3    3    0    0  0.29668078780E+02  0.37063450496E+02 -0.16931285773E+02  0.50404105618E+02  0.10566000000E+00 0. -1.
         23    2    1    0    0    0 -0.12761208250E+02  0.24673050346E+02 -0.11491063874E+02  0.94939188329E+02  0.90054411787E+02 0.  0.
         13    1    3    3    0    0 -0.42429287030E+02 -0.12390400151E+02  0.54402218987E+01  0.44535082711E+02  0.10566000000E+00 0.  1.
         22    1    1    0    0    0  0.12761208250E+02 -0.24673050346E+02  0.11491063874E+02  0.30060811671E+02  0.00000000000E+00 0. -1.
</event>
<event>
 5    1  0.1766634E-003  0.9118800E+02  0.7818608E-02  0.1130116E+00
         25   -1    0    0    0    0  0.00000000000E+00  0.00000000000E+00  0.99999998245E-14  0.12500000000E+03  0.12500000000E+03 0.  0.
        -13    1    3    3    0    0 -0.13510051677E+02  0.43090437175E+01  0.27171768648E+02  0.30649723156E+02  0.10566000000E+00 0.  1.
         23    2    1    0    0    0  0.23655178688E+02 -0.38403153266E+01 -0.21757607174E+02  0.92631667165E+02  0.86792377496E+02 0.  0.
         13    1    3    3    0    0  0.37165230364E+02 -0.81493590442E+01 -0.48929375821E+02  0.61981944009E+02  0.10566000000E+00 0. -1.
         22    1    1    0    0    0 -0.23655178688E+02  0.38403153266E+01  0.21757607174E+02  0.32368332835E+02  0.00000000000E+00 0. -1.
</event>
<event>
 5    1  0.1766634E-003  0.9118800E+02  0.7818608E-02  0.1130116E+00
         25   -1    0    0    0    0  0.00000000000E+00  0.00000000000E+00  0.99999998245E-14  0.12500000000E+03  0.12500000000E+03 0.  0.
        -13    1    3    3    0    0 -0.53079947054E+02  0.19432622751E+02 -0.24078901439E+02  0.61440314654E+02  0.10566000000E+00 0. -1.
         23    2    1    0    0    0 -0.20142528580E+02  0.15418808965E+02 -0.13485869326E+02  0.96271446278E+02  0.91885045407E+02 0.  0.
         13    1    3    3    0    0  0.32937418474E+02 -0.40138137868E+01  0.10593032112E+02  0.34831131624E+02  0.10566000000E+00 0.  1.
         22    1    1    0    0    0  0.20142528580E+02 -0.15418808965E+02  0.13485869326E+02  0.28728553722E+02  0.00000000000E+00 0. -1.
</event>
<event>
 5    1  0.1766634E-003  0.9118800E+02  0.7818608E-02  0.1130116E+00
         25   -1    0    0    0    0  0.00000000000E+00  0.00000000000E+00  0.99999998245E-14  0.12500000000E+03  0.12500000000E+03 0.  0.
        -13    1    3    3    0    0  0.12418068694E+02 -0.41366091160E+02  0.29892265444E+01  0.43293285476E+02  0.10566000000E+00 0.  1.
         23    2    1    0    0    0 -0.24548904008E+00  0.20678910521E+01  0.29297313962E+02  0.95628771840E+02  0.91006554489E+02 0.  0.
         13    1    3    3    0    0 -0.12663557734E+02  0.43433982212E+02  0.26308087417E+02  0.52335486363E+02  0.10566000000E+00 0. -1.
         22    1    1    0    0    0  0.24548904008E+00 -0.20678910521E+01 -0.29297313962E+02  0.29371228160E+02  0.00000000000E+00 0.  1.
</event>
<event>
 5    1  0.1766634E-003  0.9118800E+02  0.7818608E-02  0.1130116E+00
         25   -1    0    0    0    0  0.00000000000E+00  0.00000000000E+00  0.99999998245E-14  0.12500000000E+03  0.12500000000E+03 0.  0.
        -13    1    3    3    0    0  0.32915438357E+02 -0.19875593246E+02 -0.25978821295E+02  0.46404478329E+02  0.10566000000E+00 0.  1.
         23    2    1    0    0    0  0.23314358716E+02  0.93998999798E+01  0.13487096878E+02  0.96472483035E+02  0.92158129097E+02 0.  0.
         13    1    3    3    0    0 -0.96010796403E+01  0.29275493226E+02  0.39465918173E+02  0.50068004706E+02  0.10566000000E+00 0. -1.
         22    1    1    0    0    0 -0.23314358716E+02 -0.93998999798E+01 -0.13487096878E+02  0.28527516965E+02  0.00000000000E+00 0. -1.
</event>
<event>
 5    1  0.1766634E-003  0.9118800E+02  0.7818608E-02  0.1130116E+00
         25   -1    0    0    0    0  0.00000000000E+00  0.00000000000E+00  0.99999998245E-14  0.12500000000E+03  0.12500000000E+03 0.  0.
        -13    1    3    3    0    0  0.13860603037E+02  0.37675769803E+02  0.10924077697E+02  0.41604405829E+02  0.10566000000E+00 0.  1.
         23    2    1    0    0    0  0.17331886227E+02  0.49986017967E+01 -0.27467350818E+02  0.92139146982E+02  0.86080118178E+02 0.  0.
         13    1    3    3    0    0  0.34712831905E+01 -0.32677168007E+02 -0.38391428515E+02  0.50534741153E+02  0.10566000000E+00 0. -1.
         22    1    1    0    0    0 -0.17331886227E+02 -0.49986017967E+01  0.27467350818E+02  0.32860853018E+02  0.00000000000E+00 0.  1.
</event>
<event>
 5    1  0.1766634E-003  0.9118800E+02  0.7818608E-02  0.1130116E+00
         25   -1    0    0    0    0  0.00000000000E+00  0.00000000000E+00  0.99999998245E-14  0.12500000000E+03  0.12500000000E+03 0.  0.
        -13    1    3    3    0    0 -0.30762399902E+02  0.17832536934E+02  0.48514026052E+02  0.60149368318E+02  0.10566000000E+00 0. -1.
         23    2    1    0    0    0 -0.12437919673E+02 -0.32475035240E+01  0.25891295705E+02  0.96093126800E+02  0.91642139325E+02 0.  0.
         13    1    3    3    0    0  0.18324480229E+02 -0.21080040458E+02 -0.22622730347E+02  0.35943758482E+02  0.10566000000E+00 0.  1.
         22    1    1    0    0    0  0.12437919673E+02  0.32475035240E+01 -0.25891295705E+02  0.28906873200E+02  0.00000000000E+00 0. -1.
</event>
<event>
 5    1  0.1766634E-003  0.9118800E+02  0.7818608E-02  0.1130116E+00
         25   -1    0    0    0    0  0.00000000000E+00  0.00000000000E+00  0.99999998245E-14  0.12500000000E+03  0.12500000000E+03 0.  0.
        -13    1    3    3    0    0 -0.90881537094E-01  0.64788661685E+01 -0.38014451323E+02  0.38562853106E+02  0.10566000000E+00 0.  1.
         23    2    1    0    0    0 -0.24198776572E+02 -0.90786821359E+01  0.12217781655E+02  0.96411935262E+02  0.92075967633E+02 0.  0.
         13    1    3    3    0    0 -0.24107895035E+02 -0.15557548304E+02  0.50232232978E+02  0.57849082155E+02  0.10566000000E+00 0. -1.
         22    1    1    0    0    0  0.24198776572E+02  0.90786821359E+01 -0.12217781655E+02  0.28588064738E+02  0.00000000000E+00 0. -1.
</event>
<event>
 5    1  0.1766634E-003  0.9118800E+02  0.7818608E-02  0.1130116E+00
         25   -1    0    0    0    0  0.00000000000E+00  0.00000000000E+00  0.99999998245E-14  0.12500000000E+03  0.12500000000E+03 0.  0.
        -13    1    3    3    0    0  0.37078957453E+02 -0.27855858383E+02  0.20579768087E+02  0.50737914330E+02  0.10566000000E+00 0.  1.
         23    2    1    0    0    0  0.10871084426E+02 -0.23276544666E+02 -0.15066267064E+02  0.95217951524E+02  0.90440521234E+02 0.  0.
         13    1    3    3    0    0 -0.26207873027E+02  0.45793137176E+01 -0.35646035151E+02  0.44480037194E+02  0.10566000000E+00 0. -1.
         22    1    1    0    0    0 -0.10871084426E+02  0.23276544666E+02  0.15066267064E+02  0.29782048476E+02  0.00000000000E+00 0. -1.
</event>
<event>
 5    1  0.1766634E-003  0.9118800E+02  0.7818608E-02  0.1130116E+00
         25   -1    0    0    0    0  0.00000000000E+00  0.00000000000E+00  0.99999998245E-14  0.12500000000E+03  0.12500000000E+03 0.  0.
        -13    1    3    3    0    0 -0.31676567111E+02  0.51001346264E+02 -0.15448926433E+02  0.61993731269E+02  0.10566000000E+00 0.  1.
         23    2    1    0    0    0 -0.18179434818E+02  0.22360152558E+02 -0.11778222665E+02  0.93868106356E+02  0.88555217740E+02 0.  0.
         13    1    3    3    0    0  0.13497132293E+02 -0.28641193705E+02  0.36707037680E+01  0.31874375087E+02  0.10566000000E+00 0. -1.
         22    1    1    0    0    0  0.18179434818E+02 -0.22360152558E+02  0.11778222665E+02  0.31131893644E+02  0.00000000000E+00 0.  1.
</event>
<event>
 5    1  0.1766634E-003  0.9118800E+02  0.7818608E-02  0.1130116E+00
         25   -1    0    0    0    0  0.00000000000E+00  0.00000000000E+00  0.99999998245E-14  0.12500000000E+03  0.12500000000E+03 0.  0.
        -13    1    3    3    0    0 -0.12980829320E+02  0.18182222987E+02  0.24356176957E+02  0.33050411232E+02  0.10566000000E+00 0.  1.
         23    2    1    0    0    0 -0.21264181371E+02 -0.25333595159E+02 -0.11439213436E+02  0.90002685001E+02  0.82919667452E+02 0.  0.
         13    1    3    3    0    0 -0.82833520506E+01 -0.43515818146E+02 -0.35795390393E+02  0.56952273770E+02  0.10566000000E+00 0. -1.
         22    1    1    0    0    0  0.21264181371E+02  0.25333595159E+02  0.11439213436E+02  0.34997314999E+02  0.00000000000E+00 0. -1.
</event>
<event>
 5    1  0.1766634E-003  0.9118800E+02  0.7818608E-02  0.1130116E+00
         25   -1    0    0    0    0  0.00000000000E+00  0.00000000000E+00  0.99999998245E-14  0.12500000000E+03  0.12500000000E+03 0.  0.
        -13    1    3    3    0    0  0.14749880456E+02 -0.55452255017E+02  0.59470243225E+01  0.57687865468E+02  0.10566000000E+00 0. -1.
         23    2    1    0    0    0  0.44284961204E+01 -0.26518461747E+02 -0.14366646632E+02  0.94516546672E+02  0.89465840789E+02 0.  0.
         13    1    3    3    0    0 -0.10321384336E+02  0.28933793270E+02 -0.20313670954E+02  0.36828681204E+02  0.10566000000E+00 0.  1.
         22    1    1    0    0    0 -0.44284961204E+01  0.26518461747E+02  0.14366646632E+02  0.30483453328E+02  0.00000000000E+00 0. -1.
</event>
<event>
 5    1  0.1766634E-003  0.9118800E+02  0.7818608E-02  0.1130116E+00
         25   -1    0    0    0    0  0.00000000000E+00  0.00000000000E+00  0.99999998245E-14  0.12500000000E+03  0.12500000000E+03 0.  0.
        -13    1    3    3    0    0  0.18626363990E+02  0.36819538837E+02  0.14729339334E+02  0.43813062857E+02  0.10566000000E+00 0.  1.
         23    2    1    0    0    0  0.25978273594E+02 -0.55006048714E+01 -0.13498140628E+02  0.95211962917E+02  0.90432243858E+02 0.  0.
         13    1    3    3    0    0  0.73519096032E+01 -0.42320143708E+02 -0.28227479962E+02  0.51398900060E+02  0.10566000000E+00 0. -1.
         22    1    1    0    0    0 -0.25978273594E+02  0.55006048714E+01  0.13498140628E+02  0.29788037083E+02  0.00000000000E+00 0. -1.
</event>
<event>
 5    1  0.1766634E-003  0.9118800E+02  0.7818608E-02  0.1130116E+00
         25   -1    0    0    0    0  0.00000000000E+00  0.00000000000E+00  0.99999998245E-14  0.12500000000E+03  0.12500000000E+03 0.  0.
        -13    1    3    3    0    0 -0.21311159771E+02  0.35035383936E+02  0.37826880421E+02  0.55790032306E+02  0.10566000000E+00 0. -1.
         23    2    1    0    0    0  0.10877961477E+02  0.18238346415E+02  0.18016143262E+02  0.97151324198E+02  0.93074330777E+02 0.  0.
         13    1    3    3    0    0  0.32189121248E+02 -0.16797037521E+02 -0.19810737158E+02  0.41361291892E+02  0.10566000000E+00 0.  1.
         22    1    1    0    0    0 -0.10877961477E+02 -0.18238346415E+02 -0.18016143262E+02  0.27848675802E+02  0.00000000000E+00 0. -1.
</event>
<event>
 5    1  0.1766634E-003  0.9118800E+02  0.7818608E-02  0.1130116E+00
         25   -1    0    0    0    0  0.00000000000E+00  0.00000000000E+00  0.99999998245E-14  0.12500000000E+03  0.12500000000E+03 0.  0.
        -13    1    3    3    0    0 -0.49051752233E+02  0.10925170314E+02  0.19248993019E+01  0.50290656636E+02  0.10566000000E+00 0. -1.
         23    2    1    0    0    0 -0.78046843634E+01  0.15372700208E+02 -0.21111199573E+02  0.97743518989E+02  0.93866286532E+02 0.  0.
         13    1    3    3    0    0  0.41247067870E+02  0.44475298943E+01 -0.23036098875E+02  0.47452862353E+02  0.10566000000E+00 0.  1.
         22    1    1    0    0    0  0.78046843634E+01 -0.15372700208E+02  0.21111199573E+02  0.27256481011E+02  0.00000000000E+00 0. -1.
</event>
<event>
 5    1  0.1766634E-003  0.9118800E+02  0.7818608E-02  0.1130116E+00
         25   -1    0    0    0    0  0.00000000000E+00  0.00000000000E+00  0.99999998245E-14  0.12500000000E+03  0.12500000000E+03 0.  0.
        -13    1    3    3    0    0 -0.78380417170E+01 -0.19939389864E+02 -0.39968322924E+02  0.45348563015E+02  0.10566000000E+00 0. -1.
         23    2    1    0    0    0 -0.26912956031E+02  0.11864540571E+02 -0.74813385583E+01  0.94651277590E+02  0.89653886684E+02 0.  0.
         13    1    3    3    0    0 -0.19074914314E+02  0.31803930435E+02  0.32486984366E+02  0.49302714575E+02  0.10566000000E+00 0.  1.
         22    1    1    0    0    0  0.26912956031E+02 -0.11864540571E+02  0.74813385583E+01  0.30348722410E+02  0.00000000000E+00 0.  1.
</event>
<event>
 5    1  0.1766634E-003  0.9118800E+02  0.7818608E-02  0.1130116E+00
         25   -1    0    0    0    0  0.00000000000E+00  0.00000000000E+00  0.99999998245E-14  0.12500000000E+03  0.12500000000E+03 0.  0.
        -13    1    3    3    0    0  0.26409216120E+02  0.50051878498E+02 -0.85712633643E+01  0.57237356306E+02  0.10566000000E+00 0.  1.
         23    2    1    0    0    0  0.20213547731E+02  0.85380711912E+01 -0.13083154556E+02  0.99452884611E+02  0.96115665491E+02 0.  0.
         13    1    3    3    0    0 -0.61956683889E+01 -0.41513807307E+02 -0.45118911921E+01  0.42215528305E+02  0.10566000000E+00 0. -1.
         22    1    1    0    0    0 -0.20213547731E+02 -0.85380711912E+01  0.13083154556E+02  0.25547115389E+02  0.00000000000E+00 0.  1.
</event>
<event>
 5    1  0.1766634E-003  0.9118800E+02  0.7818608E-02  0.1130116E+00
         25   -1    0    0    0    0  0.00000000000E+00  0.00000000000E+00  0.99999998245E-14  0.12500000000E+03  0.12500000000E+03 0.  0.
        -13    1    3    3    0    0 -0.22492341004E+02  0.34529093056E+01  0.26473462757E+02  0.34909645958E+02  0.10566000000E+00 0.  1.
         23    2    1    0    0    0  0.18341043813E+02 -0.16935106535E+02 -0.14403183143E+02  0.96179115105E+02  0.91759352527E+02 0.  0.
         13    1    3    3    0    0  0.40833384817E+02 -0.20388015840E+02 -0.40876645900E+02  0.61269469147E+02  0.10566000000E+00 0. -1.
         22    1    1    0    0    0 -0.18341043813E+02  0.16935106535E+02  0.14403183143E+02  0.28820884895E+02  0.00000000000E+00 0. -1.
</event>
<event>
 5    1  0.1766634E-003  0.9118800E+02  0.7818608E-02  0.1130116E+00
         25   -1    0    0    0    0  0.00000000000E+00  0.00000000000E+00  0.99999998245E-14  0.12500000000E+03  0.12500000000E+03 0.  0.
        -13    1    3    3    0    0  0.56151588925E+01  0.48589537627E+02 -0.21872056988E+02  0.53580511542E+02  0.10566000000E+00 0.  1.
         23    2    1    0    0    0  0.70503126552E+01  0.60295795225E+01 -0.26979593182E+02  0.96469994988E+02  0.92154754337E+02 0.  0.
         13    1    3    3    0    0  0.14351537627E+01 -0.42559958105E+02 -0.51075361934E+01  0.42889483445E+02  0.10566000000E+00 0. -1.
         22    1    1    0    0    0 -0.70503126552E+01 -0.60295795225E+01  0.26979593182E+02  0.28530005012E+02  0.00000000000E+00 0.  1.
</event>
<event>
 5    1  0.1766634E-003  0.9118800E+02  0.7818608E-02  0.1130116E+00
         25   -1    0    0    0    0  0.00000000000E+00  0.00000000000E+00  0.99999998245E-14  0.12500000000E+03  0.12500000000E+03 0.  0.
        -13    1    3    3    0    0  0.22523877244E+02 -0.17787512350E+02  0.28748146813E+02  0.40622503011E+02  0.10566000000E+00 0.  1.
         23    2    1    0    0    0 -0.12563803318E+02 -0.24733472612E+02 -0.11940502328E+02  0.94797857409E+02  0.89858023304E+02 0.  0.
         13    1    3    3    0    0 -0.35087680562E+02 -0.69459602624E+01 -0.40688649141E+02  0.54175354398E+02  0.10566000000E+00 0. -1.
         22    1    1    0    0    0  0.12563803318E+02  0.24733472612E+02  0.11940502328E+02  0.30202142591E+02  0.00000000000E+00 0. -1.
</event>
<event>
 5    1  0.1766634E-003  0.9118800E+02  0.7818608E-02  0.1130116E+00
         25   -1    0    0    0    0  0.00000000000E+00  0.00000000000E+00  0.99999998245E-14  0.12500000000E+03  0.12500000000E+03 0.  0.
        -13    1    3    3    0    0  0.33385549587E+02 -0.63673500705E+01  0.36298711540E+02  0.49726710043E+02  0.10566000000E+00 0.  1.
         23    2    1    0    0    0  0.60341421752E+01 -0.27051178586E+02  0.37045300735E+01  0.97037513027E+02  0.92921355224E+02 0.  0.
         13    1    3    3    0    0 -0.27351407412E+02 -0.20683828515E+02 -0.32594181467E+02  0.47310802984E+02  0.10566000000E+00 0. -1.
         22    1    1    0    0    0 -0.60341421752E+01  0.27051178586E+02 -0.37045300735E+01  0.27962486973E+02  0.00000000000E+00 0. -1.
</event>
<event>
 5    1  0.1766634E-003  0.9118800E+02  0.7818608E-02  0.1130116E+00
         25   -1    0    0    0    0  0.00000000000E+00  0.00000000000E+00  0.99999998245E-14  0.12500000000E+03  0.12500000000E+03 0.  0.
        -13    1    3    3    0    0 -0.92861129064E+01  0.38294739738E+02 -0.29352289535E+02  0.49135395079E+02  0.10566000000E+00 0.  1.
         23    2    1    0    0    0 -0.26775938314E+02 -0.74032272103E+00 -0.15263686345E+02  0.94170159404E+02  0.88980558838E+02 0.  0.
         13    1    3    3    0    0 -0.17489825407E+02 -0.39035062459E+02  0.14088603190E+02  0.45034764326E+02  0.10566000000E+00 0. -1.
         22    1    1    0    0    0  0.26775938314E+02  0.74032272103E+00  0.15263686345E+02  0.30829840596E+02  0.00000000000E+00 0.  1.
</event>
<event>
 5    1  0.1766634E-003  0.9118800E+02  0.7818608E-02  0.1130116E+00
         25   -1    0    0    0    0  0.00000000000E+00  0.00000000000E+00  0.99999998245E-14  0.12500000000E+03  0.12500000000E+03 0.  0.
        -13    1    3    3    0    0 -0.12489991840E+02  0.35381378257E+02  0.65950943571E+01  0.38096564899E+02  0.10566000000E+00 0.  1.
         23    2    1    0    0    0  0.24808840245E+02 -0.10540556558E+02  0.65615260564E+01  0.97257694561E+02  0.93217078051E+02 0.  0.
         13    1    3    3    0    0  0.37298832085E+02 -0.45921934814E+02 -0.33568300738E-01  0.59161129662E+02  0.10566000000E+00 0. -1.
         22    1    1    0    0    0 -0.24808840245E+02  0.10540556558E+02 -0.65615260564E+01  0.27742305439E+02  0.00000000000E+00 0. -1.
</event>
<event>
 5    1  0.1766634E-003  0.9118800E+02  0.7818608E-02  0.1130116E+00
         25   -1    0    0    0    0  0.00000000000E+00  0.00000000000E+00  0.99999998245E-14  0.12500000000E+03  0.12500000000E+03 0.  0.
        -13    1    3    3    0    0 -0.48274273145E+02 -0.34805692980E+02  0.94182140110E+01  0.60254092232E+02  0.10566000000E+00 0. -1.
         23    2    1    0    0    0 -0.29114064362E+02 -0.67910273228E+01  0.17295003972E+01  0.95054416563E+02  0.90214212521E+02 0.  0.
         13    1    3    3    0    0  0.19160208783E+02  0.28014665657E+02 -0.76887136138E+01  0.34800324331E+02  0.10566000000E+00 0.  1.
         22    1    1    0    0    0  0.29114064362E+02  0.67910273228E+01 -0.17295003972E+01  0.29945583437E+02  0.00000000000E+00 0. -1.
</event>
<event>
 5    1  0.1766634E-003  0.9118800E+02  0.7818608E-02  0.1130116E+00
         25   -1    0    0    0    0  0.00000000000E+00  0.00000000000E+00  0.99999998245E-14  0.12500000000E+03  0.12500000000E+03 0.  0.
        -13    1    3    3    0    0  0.34820820124E+02  0.33719871495E+01 -0.16500306971E+02  0.38679854002E+02  0.10566000000E+00 0.  1.
         23    2    1    0    0    0 -0.20541476201E+02  0.16239277938E+02 -0.13357234726E+02  0.95604726367E+02  0.90973521377E+02 0.  0.
         13    1    3    3    0    0 -0.55362296325E+02  0.12867290788E+02  0.31430722455E+01  0.56924872365E+02  0.10566000000E+00 0. -1.
         22    1    1    0    0    0  0.20541476201E+02 -0.16239277938E+02  0.13357234726E+02  0.29395273633E+02  0.00000000000E+00 0. -1.
</event>
<event>
 5    1  0.1766634E-003  0.9118800E+02  0.7818608E-02  0.1130116E+00
         25   -1    0    0    0    0  0.00000000000E+00  0.00000000000E+00  0.99999998245E-14  0.12500000000E+03  0.12500000000E+03 0.  0.
        -13    1    3    3    0    0 -0.17929217956E+02 -0.43389476662E+01 -0.27081781402E+02  0.32767626879E+02  0.10566000000E+00 0.  1.
         23    2    1    0    0    0  0.29927540334E+02  0.44895107560E+01  0.90889943709E+01  0.93402164695E+02  0.87895057733E+02 0.  0.
         13    1    3    3    0    0  0.47856758290E+02  0.88284584221E+01  0.36170775773E+02  0.60634537816E+02  0.10566000000E+00 0. -1.
         22    1    1    0    0    0 -0.29927540334E+02 -0.44895107560E+01 -0.90889943709E+01  0.31597835305E+02  0.00000000000E+00 0. -1.
</event>
<event>
 5    1  0.1766634E-003  0.9118800E+02  0.7818608E-02  0.1130116E+00
         25   -1    0    0    0    0  0.00000000000E+00  0.00000000000E+00  0.99999998245E-14  0.12500000000E+03  0.12500000000E+03 0.  0.
        -13    1    3    3    0    0 -0.34321711406E+02 -0.33025489501E+01 -0.21381974798E+02  0.40571994204E+02  0.10566000000E+00 0. -1.
         23    2    1    0    0    0 -0.70827350240E+01  0.41919395259E+01  0.27096174161E+02  0.96681452252E+02  0.92441132960E+02 0.  0.
         13    1    3    3    0    0  0.27238976382E+02  0.74944884760E+01  0.48478148959E+02  0.56109458047E+02  0.10566000000E+00 0.  1.
         22    1    1    0    0    0  0.70827350240E+01 -0.41919395259E+01 -0.27096174161E+02  0.28318547748E+02  0.00000000000E+00 0.  1.
</event>
<event>
 5    1  0.1766634E-003  0.9118800E+02  0.7818608E-02  0.1130116E+00
         25   -1    0    0    0    0  0.00000000000E+00  0.00000000000E+00  0.99999998245E-14  0.12500000000E+03  0.12500000000E+03 0.  0.
        -13    1    3    3    0    0  0.58528559909E+01  0.46401873102E+02 -0.12266352701E+02  0.48351466609E+02  0.10566000000E+00 0.  1.
         23    2    1    0    0    0 -0.10268328949E+02  0.43338365861E+01 -0.27031713295E+02  0.95760741415E+02  0.91187638163E+02 0.  0.
         13    1    3    3    0    0 -0.16121184939E+02 -0.42068036516E+02 -0.14765360593E+02  0.47409274806E+02  0.10566000000E+00 0. -1.
         22    1    1    0    0    0  0.10268328949E+02 -0.43338365861E+01  0.27031713295E+02  0.29239258585E+02  0.00000000000E+00 0.  1.
</event>
<event>
 5    1  0.1766634E-003  0.9118800E+02  0.7818608E-02  0.1130116E+00
         25   -1    0    0    0    0  0.00000000000E+00  0.00000000000E+00  0.99999998245E-14  0.12500000000E+03  0.12500000000E+03 0.  0.
        -13    1    3    3    0    0 -0.53377818608E+02 -0.19286173931E+02 -0.21636575776E+02  0.60739613101E+02  0.10566000000E+00 0. -1.
         23    2    1    0    0    0 -0.24963937287E+02  0.91878769473E+00 -0.13746512491E+02  0.96486688348E+02  0.92177394663E+02 0.  0.
         13    1    3    3    0    0  0.28413881321E+02  0.20204961626E+02  0.78900632845E+01  0.35747075247E+02  0.10566000000E+00 0.  1.
         22    1    1    0    0    0  0.24963937287E+02 -0.91878769473E+00  0.13746512491E+02  0.28513311652E+02  0.00000000000E+00 0. -1.
</event>
<event>
 5    1  0.1766634E-003  0.9118800E+02  0.7818608E-02  0.1130116E+00
         25   -1    0    0    0    0  0.00000000000E+00  0.00000000000E+00  0.99999998245E-14  0.12500000000E+03  0.12500000000E+03 0.  0.
        -13    1    3    3    0    0 -0.32393103217E+02  0.12040559784E+02  0.13264052637E+02  0.37016678300E+02  0.10566000000E+00 0.  1.
         23    2    1    0    0    0  0.19872741928E+02  0.14185950856E+02  0.24381039501E+02  0.90494896601E+02  0.83658377645E+02 0.  0.
         13    1    3    3    0    0  0.52265845146E+02  0.21453910719E+01  0.11116986864E+02  0.53478218301E+02  0.10566000000E+00 0. -1.
         22    1    1    0    0    0 -0.19872741928E+02 -0.14185950856E+02 -0.24381039501E+02  0.34505103399E+02  0.00000000000E+00 0. -1.
</event>
<event>
 5    1  0.1766634E-003  0.9118800E+02  0.7818608E-02  0.1130116E+00
         25   -1    0    0    0    0  0.00000000000E+00  0.00000000000E+00  0.99999998245E-14  0.12500000000E+03  0.12500000000E+03 0.  0.
        -13    1    3    3    0    0 -0.18175177180E+02  0.51030236358E+02  0.10350255030E+02  0.55150349333E+02  0.10566000000E+00 0. -1.
         23    2    1    0    0    0 -0.18564570356E+02  0.17577190852E+02 -0.13358311957E+02  0.96154802668E+02  0.91726226713E+02 0.  0.
         13    1    3    3    0    0 -0.38939317583E+00 -0.33453045506E+02 -0.23708566987E+02  0.41004453335E+02  0.10566000000E+00 0.  1.
         22    1    1    0    0    0  0.18564570356E+02 -0.17577190852E+02  0.13358311957E+02  0.28845197332E+02  0.00000000000E+00 0. -1.
</event>
<event>
 5    1  0.1766634E-003  0.9118800E+02  0.7818608E-02  0.1130116E+00
         25   -1    0    0    0    0  0.00000000000E+00  0.00000000000E+00  0.99999998245E-14  0.12500000000E+03  0.12500000000E+03 0.  0.
        -13    1    3    3    0    0 -0.80974136433E+01  0.34643642604E+01  0.47347468684E+02  0.48159774525E+02  0.10566000000E+00 0.  1.
         23    2    1    0    0    0  0.16341511804E+02  0.21585121625E+02  0.10457394134E+02  0.95977257612E+02  0.91483957080E+02 0.  0.
         13    1    3    3    0    0  0.24438925447E+02  0.18120757365E+02 -0.36890074550E+02  0.47817483088E+02  0.10566000000E+00 0. -1.
         22    1    1    0    0    0 -0.16341511804E+02 -0.21585121625E+02 -0.10457394134E+02  0.29022742388E+02  0.00000000000E+00 0.  1.
</event>
<event>
 5    1  0.1766634E-003  0.9118800E+02  0.7818608E-02  0.1130116E+00
         25   -1    0    0    0    0  0.00000000000E+00  0.00000000000E+00  0.99999998245E-14  0.12500000000E+03  0.12500000000E+03 0.  0.
        -13    1    3    3    0    0  0.44506775759E+02  0.40180171420E+02  0.64402236460E+01  0.60305778400E+02  0.10566000000E+00 0. -1.
         23    2    1    0    0    0  0.27112131842E+02  0.13902998058E+02 -0.55626993251E+01  0.94027356073E+02  0.88779721887E+02 0.  0.
         13    1    3    3    0    0 -0.17394643918E+02 -0.26277173361E+02 -0.12002922971E+02  0.33721577673E+02  0.10566000000E+00 0.  1.
         22    1    1    0    0    0 -0.27112131842E+02 -0.13902998058E+02  0.55626993251E+01  0.30972643927E+02  0.00000000000E+00 0. -1.
</event>
<event>
 5    1  0.1766634E-003  0.9118800E+02  0.7818608E-02  0.1130116E+00
         25   -1    0    0    0    0  0.00000000000E+00  0.00000000000E+00  0.99999998245E-14  0.12500000000E+03  0.12500000000E+03 0.  0.
        -13    1    3    3    0    0 -0.39940915962E+02 -0.16186553754E+02  0.91962474626E+01  0.44066579420E+02  0.10566000000E+00 0. -1.
         23    2    1    0    0    0  0.10450246461E+02 -0.21991557658E+02  0.16884202252E+02  0.95370410988E+02  0.90650994186E+02 0.  0.
         13    1    3    3    0    0  0.50391162423E+02 -0.58050039044E+01  0.76879547899E+01  0.51303831568E+02  0.10566000000E+00 0.  1.
         22    1    1    0    0    0 -0.10450246461E+02  0.21991557658E+02 -0.16884202252E+02  0.29629589012E+02  0.00000000000E+00 0.  1.
</event>
<event>
 5    1  0.1766634E-003  0.9118800E+02  0.7818608E-02  0.1130116E+00
         25   -1    0    0    0    0  0.00000000000E+00  0.00000000000E+00  0.99999998245E-14  0.12500000000E+03  0.12500000000E+03 0.  0.
        -13    1    3    3    0    0  0.15101057661E+01 -0.49227848534E+02  0.21264303549E+02  0.53645533460E+02  0.10566000000E+00 0.  1.
         23    2    1    0    0    0  0.13802220708E+02 -0.13095248453E+02  0.26718460933E+02  0.92199649649E+02  0.86167931461E+02 0.  0.
         13    1    3    3    0    0  0.12292114942E+02  0.36132600081E+02  0.54541573838E+01  0.38554116189E+02  0.10566000000E+00 0. -1.
         22    1    1    0    0    0 -0.13802220708E+02  0.13095248453E+02 -0.26718460933E+02  0.32800350351E+02  0.00000000000E+00 0. -1.
</event>
<event>
 5    1  0.1766634E-003  0.9118800E+02  0.7818608E-02  0.1130116E+00
         25   -1    0    0    0    0  0.00000000000E+00  0.00000000000E+00  0.99999998245E-14  0.12500000000E+03  0.12500000000E+03 0.  0.
        -13    1    3    3    0    0  0.17230518222E+02  0.27740627467E+02 -0.25612740098E+02  0.41502491369E+02  0.10566000000E+00 0.  1.
         23    2    1    0    0    0  0.21262780671E+02 -0.16728157561E+02  0.73058167882E+01  0.96976580219E+02  0.92839350788E+02 0.  0.
         13    1    3    3    0    0  0.40322624496E+01 -0.44468785028E+02  0.32918556886E+02  0.55474088851E+02  0.10566000000E+00 0. -1.
         22    1    1    0    0    0 -0.21262780671E+02  0.16728157561E+02 -0.73058167882E+01  0.28023419781E+02  0.00000000000E+00 0. -1.
</event>
<event>
 5    1  0.1766634E-003  0.9118800E+02  0.7818608E-02  0.1130116E+00
         25   -1    0    0    0    0  0.00000000000E+00  0.00000000000E+00  0.99999998245E-14  0.12500000000E+03  0.12500000000E+03 0.  0.
        -13    1    3    3    0    0  0.21768340600E+02 -0.51882296922E+02  0.37034936636E+01  0.56385817505E+02  0.10566000000E+00 0. -1.
         23    2    1    0    0    0 -0.47361115677E+01 -0.25586973069E+02 -0.11309810890E+02  0.96626847796E+02  0.92367266654E+02 0.  0.
         13    1    3    3    0    0 -0.26504452168E+02  0.26295323853E+02 -0.15013304553E+02  0.40241030291E+02  0.10566000000E+00 0.  1.
         22    1    1    0    0    0  0.47361115677E+01  0.25586973069E+02  0.11309810890E+02  0.28373152204E+02  0.00000000000E+00 0. -1.
</event>
<event>
 5    1  0.1766634E-003  0.9118800E+02  0.7818608E-02  0.1130116E+00
         25   -1    0    0    0    0  0.00000000000E+00  0.00000000000E+00  0.99999998245E-14  0.12500000000E+03  0.12500000000E+03 0.  0.
        -13    1    3    3    0    0  0.95033157459E+01  0.35489675128E+02 -0.14015166213E+02  0.39322590185E+02  0.10566000000E+00 0. -1.
         23    2    1    0    0    0 -0.16328009670E+02  0.16365315947E+01  0.23677964291E+02  0.96191526795E+02  0.91776258905E+02 0.  0.
         13    1    3    3    0    0 -0.25831325416E+02 -0.33853143533E+02  0.37693130504E+02  0.56868936609E+02  0.10566000000E+00 0.  1.
         22    1    1    0    0    0  0.16328009670E+02 -0.16365315947E+01 -0.23677964291E+02  0.28808473205E+02  0.00000000000E+00 0.  1.
</event>
<event>
 5    1  0.1766634E-003  0.9118800E+02  0.7818608E-02  0.1130116E+00
         25   -1    0    0    0    0  0.00000000000E+00  0.00000000000E+00  0.99999998245E-14  0.12500000000E+03  0.12500000000E+03 0.  0.
        -13    1    3    3    0    0 -0.18051036652E+02  0.25764561216E+02  0.53059249718E+02  0.61684257988E+02  0.10566000000E+00 0. -1.
         23    2    1    0    0    0 -0.20332043488E+01  0.10226817107E+02  0.27360670140E+02  0.95719836432E+02  0.91131548369E+02 0.  0.
         13    1    3    3    0    0  0.16017832303E+02 -0.15537744109E+02 -0.25698579578E+02  0.34035578445E+02  0.10566000000E+00 0.  1.
         22    1    1    0    0    0  0.20332043488E+01 -0.10226817107E+02 -0.27360670140E+02  0.29280163568E+02  0.00000000000E+00 0. -1.
</event>
<event>
 5    1  0.1766634E-003  0.9118800E+02  0.7818608E-02  0.1130116E+00
         25   -1    0    0    0    0  0.00000000000E+00  0.00000000000E+00  0.99999998245E-14  0.12500000000E+03  0.12500000000E+03 0.  0.
        -13    1    3    3    0    0 -0.38171346496E+02  0.74739676185E+01  0.18997552751E+02  0.43287758776E+02  0.10566000000E+00 0.  1.
         23    2    1    0    0    0  0.13274400115E+02  0.11757726848E+02 -0.12079359257E+02  0.10354388760E+03  0.10129645552E+03 0.  0.
         13    1    3    3    0    0  0.51445746611E+02  0.42837592299E+01 -0.31076912008E+02  0.60256128829E+02  0.10566000000E+00 0. -1.
         22    1    1    0    0    0 -0.13274400115E+02 -0.11757726848E+02  0.12079359257E+02  0.21456112395E+02  0.00000000000E+00 0. -1.
</event>
<event>
 5    1  0.1766634E-003  0.9118800E+02  0.7818608E-02  0.1130116E+00
         25   -1    0    0    0    0  0.00000000000E+00  0.00000000000E+00  0.99999998245E-14  0.12500000000E+03  0.12500000000E+03 0.  0.
        -13    1    3    3    0    0  0.32448251655E+00 -0.34960752947E+02  0.52860862449E+01  0.35359771030E+02  0.10566000000E+00 0.  1.
         23    2    1    0    0    0 -0.23254620035E+02  0.19065504563E+02 -0.25269711021E+01  0.94822915976E+02  0.89892875102E+02 0.  0.
         13    1    3    3    0    0 -0.23579102552E+02  0.54026257510E+02 -0.78130573470E+01  0.59463144946E+02  0.10566000000E+00 0. -1.
         22    1    1    0    0    0  0.23254620035E+02 -0.19065504563E+02  0.25269711021E+01  0.30177084024E+02  0.00000000000E+00 0. -1.
</event>
<event>
 5    1  0.1766634E-003  0.9118800E+02  0.7818608E-02  0.1130116E+00
         25   -1    0    0    0    0  0.00000000000E+00  0.00000000000E+00  0.99999998245E-14  0.12500000000E+03  0.12500000000E+03 0.  0.
        -13    1    3    3    0    0  0.75939865639E+01  0.36879306627E+02  0.19911703127E+01  0.37705806085E+02  0.10566000000E+00 0. -1.
         23    2    1    0    0    0 -0.34170501806E-01 -0.13378099225E+02 -0.26017475750E+02  0.95744509047E+02  0.91165384120E+02 0.  0.
         13    1    3    3    0    0 -0.76281570658E+01 -0.50257405852E+02 -0.28008646063E+02  0.58038702962E+02  0.10566000000E+00 0.  1.
         22    1    1    0    0    0  0.34170501806E-01  0.13378099225E+02  0.26017475750E+02  0.29255490953E+02  0.00000000000E+00 0.  1.
</event>
<event>
 5    1  0.1766634E-003  0.9118800E+02  0.7818608E-02  0.1130116E+00
         25   -1    0    0    0    0  0.00000000000E+00  0.00000000000E+00  0.99999998245E-14  0.12500000000E+03  0.12500000000E+03 0.  0.
        -13    1    3    3    0    0  0.47311371412E+02  0.34345828362E+02  0.19345196792E+02  0.61581243847E+02  0.10566000000E+00 0. -1.
         23    2    1    0    0    0  0.17458592132E+02  0.18255616980E+02  0.14598607879E+02  0.95824850599E+02  0.91275476716E+02 0.  0.
         13    1    3    3    0    0 -0.29852779280E+02 -0.16090211382E+02 -0.47465889133E+01  0.34243606752E+02  0.10566000000E+00 0.  1.
         22    1    1    0    0    0 -0.17458592132E+02 -0.18255616980E+02 -0.14598607879E+02  0.29175149401E+02  0.00000000000E+00 0. -1.
</event>
<event>
 5    1  0.1766634E-003  0.9118800E+02  0.7818608E-02  0.1130116E+00
         25   -1    0    0    0    0  0.00000000000E+00  0.00000000000E+00  0.99999998245E-14  0.12500000000E+03  0.12500000000E+03 0.  0.
        -13    1    3    3    0    0  0.36303795059E+02  0.21823695876E+02  0.23725543021E+02  0.48550507650E+02  0.10566000000E+00 0.  1.
         23    2    1    0    0    0 -0.38232208692E+01 -0.48727973500E+01  0.27420865294E+02  0.96888347161E+02  0.92720476651E+02 0.  0.
         13    1    3    3    0    0 -0.40127015928E+02 -0.26696493226E+02  0.36953222733E+01  0.48337839511E+02  0.10566000000E+00 0. -1.
         22    1    1    0    0    0  0.38232208692E+01  0.48727973500E+01 -0.27420865294E+02  0.28111652839E+02  0.00000000000E+00 0.  1.
</event>
<event>
 5    1  0.1766634E-003  0.9118800E+02  0.7818608E-02  0.1130116E+00
         25   -1    0    0    0    0  0.00000000000E+00  0.00000000000E+00  0.99999998245E-14  0.12500000000E+03  0.12500000000E+03 0.  0.
        -13    1    3    3    0    0  0.14700710631E+02  0.19709218083E+02  0.32951960851E+02  0.41114560176E+02  0.10566000000E+00 0. -1.
         23    2    1    0    0    0  0.63543343963E+01 -0.23341942515E+02 -0.63360664830E+01  0.99992609403E+02  0.96815041966E+02 0.  0.
         13    1    3    3    0    0 -0.83463762351E+01 -0.43051160598E+02 -0.39288027334E+02  0.58878049228E+02  0.10566000000E+00 0.  1.
         22    1    1    0    0    0 -0.63543343963E+01  0.23341942515E+02  0.63360664830E+01  0.25007390597E+02  0.00000000000E+00 0.  1.
</event>
<event>
 5    1  0.1766634E-003  0.9118800E+02  0.7818608E-02  0.1130116E+00
         25   -1    0    0    0    0  0.00000000000E+00  0.00000000000E+00  0.99999998245E-14  0.12500000000E+03  0.12500000000E+03 0.  0.
        -13    1    3    3    0    0 -0.24953709546E+02 -0.26835447197E+02 -0.10201092109E+02  0.38038168865E+02  0.10566000000E+00 0.  1.
         23    2    1    0    0    0  0.15815814783E+02  0.17163470168E+02 -0.13363916434E+02  0.98105410062E+02  0.94346979367E+02 0.  0.
         13    1    3    3    0    0  0.40769524329E+02  0.43998917365E+02 -0.31628243250E+01  0.60067241197E+02  0.10566000000E+00 0. -1.
         22    1    1    0    0    0 -0.15815814783E+02 -0.17163470168E+02  0.13363916434E+02  0.26894589938E+02  0.00000000000E+00 0. -1.
</event>
<event>
 5    1  0.1766634E-003  0.9118800E+02  0.7818608E-02  0.1130116E+00
         25   -1    0    0    0    0  0.00000000000E+00  0.00000000000E+00  0.99999998245E-14  0.12500000000E+03  0.12500000000E+03 0.  0.
        -13    1    3    3    0    0  0.28328847535E+02 -0.22702601861E+02 -0.44836110357E+02  0.57690724470E+02  0.10566000000E+00 0.  1.
         23    2    1    0    0    0  0.52379731220E+01 -0.25449428338E+02 -0.17054588259E+02  0.93919962261E+02  0.88628384648E+02 0.  0.
         13    1    3    3    0    0 -0.23090874413E+02 -0.27468264763E+01  0.27781522097E+02  0.36229237791E+02  0.10566000000E+00 0. -1.
         22    1    1    0    0    0 -0.52379731220E+01  0.25449428338E+02  0.17054588259E+02  0.31080037739E+02  0.00000000000E+00 0.  1.
</event>
<event>
 5    1  0.1766634E-003  0.9118800E+02  0.7818608E-02  0.1130116E+00
         25   -1    0    0    0    0  0.00000000000E+00  0.00000000000E+00  0.99999998245E-14  0.12500000000E+03  0.12500000000E+03 0.  0.
        -13    1    3    3    0    0 -0.46065590234E+02 -0.29869998462E+01  0.96668767832E+01  0.47163761962E+02  0.10566000000E+00 0. -1.
         23    2    1    0    0    0 -0.16901278290E+01 -0.15617818623E+02  0.24733367306E+02  0.95699620328E+02  0.91103814860E+02 0.  0.
         13    1    3    3    0    0  0.44375462405E+02 -0.12630818777E+02  0.15066490523E+02  0.48535858366E+02  0.10566000000E+00 0.  1.
         22    1    1    0    0    0  0.16901278290E+01  0.15617818623E+02 -0.24733367306E+02  0.29300379672E+02  0.00000000000E+00 0. -1.
</event>
<event>
 5    1  0.1766634E-003  0.9118800E+02  0.7818608E-02  0.1130116E+00
         25   -1    0    0    0    0  0.00000000000E+00  0.00000000000E+00  0.99999998245E-14  0.12500000000E+03  0.12500000000E+03 0.  0.
        -13    1    3    3    0    0 -0.25945434829E+02 -0.11529516434E+02  0.34304667775E+02  0.44529953209E+02  0.10566000000E+00 0.  1.
         23    2    1    0    0    0  0.17574331589E+02 -0.21855739598E+02  0.14099230149E+02  0.93610212251E+02  0.88190436345E+02 0.  0.
         13    1    3    3    0    0  0.43519766417E+02 -0.10326223164E+02 -0.20205437626E+02  0.49080259041E+02  0.10566000000E+00 0. -1.
         22    1    1    0    0    0 -0.17574331589E+02  0.21855739598E+02 -0.14099230149E+02  0.31389787749E+02  0.00000000000E+00 0. -1.
</event>
<event>
 5    1  0.1766634E-003  0.9118800E+02  0.7818608E-02  0.1130116E+00
         25   -1    0    0    0    0  0.00000000000E+00  0.00000000000E+00  0.99999998245E-14  0.12500000000E+03  0.12500000000E+03 0.  0.
        -13    1    3    3    0    0  0.78275264119E+01 -0.54372521189E+02 -0.12956627816E+02  0.56440469511E+02  0.10566000000E+00 0.  1.
         23    2    1    0    0    0  0.19226991810E+02 -0.15194847224E+02 -0.13033978723E+02  0.97243105405E+02  0.93197512580E+02 0.  0.
         13    1    3    3    0    0  0.11399465398E+02  0.39177673965E+02 -0.77350907627E-01  0.40802635894E+02  0.10566000000E+00 0. -1.
         22    1    1    0    0    0 -0.19226991810E+02  0.15194847224E+02  0.13033978723E+02  0.27756894595E+02  0.00000000000E+00 0.  1.
</event>
<event>
 5    1  0.1766634E-003  0.9118800E+02  0.7818608E-02  0.1130116E+00
         25   -1    0    0    0    0  0.00000000000E+00  0.00000000000E+00  0.99999998245E-14  0.12500000000E+03  0.12500000000E+03 0.  0.
        -13    1    3    3    0    0  0.23830804796E+02 -0.40325947183E+01 -0.39663711588E+02  0.46447715319E+02  0.10566000000E+00 0.  1.
         23    2    1    0    0    0 -0.10348446544E+02 -0.25126845444E+02 -0.11556408993E+02  0.95470365789E+02  0.90788718722E+02 0.  0.
         13    1    3    3    0    0 -0.34179251341E+02 -0.21094250726E+02  0.28107302595E+02  0.49022650469E+02  0.10566000000E+00 0. -1.
         22    1    1    0    0    0  0.10348446544E+02  0.25126845444E+02  0.11556408993E+02  0.29529634211E+02  0.00000000000E+00 0.  1.
</event>
<event>
 5    1  0.1766634E-003  0.9118800E+02  0.7818608E-02  0.1130116E+00
         25   -1    0    0    0    0  0.00000000000E+00  0.00000000000E+00  0.99999998245E-14  0.12500000000E+03  0.12500000000E+03 0.  0.
        -13    1    3    3    0    0  0.88029190987E+01 -0.11344010482E+02 -0.32385374927E+02  0.35426002197E+02  0.10566000000E+00 0. -1.
         23    2    1    0    0    0  0.28756783755E+01  0.25564543482E+02  0.14562586111E+02  0.95438465469E+02  0.90744786998E+02 0.  0.
         13    1    3    3    0    0 -0.59272407232E+01  0.36908553964E+02  0.46947961038E+02  0.60012463272E+02  0.10566000000E+00 0.  1.
         22    1    1    0    0    0 -0.28756783755E+01 -0.25564543482E+02 -0.14562586111E+02  0.29561534531E+02  0.00000000000E+00 0.  1.
</event>
<event>
 5    1  0.1766634E-003  0.9118800E+02  0.7818608E-02  0.1130116E+00
         25   -1    0    0    0    0  0.00000000000E+00  0.00000000000E+00  0.99999998245E-14  0.12500000000E+03  0.12500000000E+03 0.  0.
        -13    1    3    3    0    0  0.21661119843E+02  0.39386299720E+02 -0.21290962819E+02  0.49737319794E+02  0.10566000000E+00 0.  1.
         23    2    1    0    0    0  0.27774860320E+02 -0.42492127991E+01 -0.72605043816E+01  0.95979083421E+02  0.91486451758E+02 0.  0.
         13    1    3    3    0    0  0.61137404771E+01 -0.43635512519E+02  0.14030458437E+02  0.46241763628E+02  0.10566000000E+00 0. -1.
         22    1    1    0    0    0 -0.27774860320E+02  0.42492127991E+01  0.72605043816E+01  0.29020916579E+02  0.00000000000E+00 0. -1.
</event>
<event>
 5    1  0.1766634E-003  0.9118800E+02  0.7818608E-02  0.1130116E+00
         25   -1    0    0    0    0  0.00000000000E+00  0.00000000000E+00  0.99999998245E-14  0.12500000000E+03  0.12500000000E+03 0.  0.
        -13    1    3    3    0    0 -0.35950354602E+02  0.40072645239E+02 -0.26819672927E+02  0.60146079776E+02  0.10566000000E+00 0.  1.
         23    2    1    0    0    0 -0.66410615601E+01  0.25426160019E+02 -0.12318683552E+02  0.95976849302E+02  0.91483399180E+02 0.  0.
         13    1    3    3    0    0  0.29309293042E+02 -0.14646485220E+02  0.14500989375E+02  0.35830769526E+02  0.10566000000E+00 0. -1.
         22    1    1    0    0    0  0.66410615601E+01 -0.25426160019E+02  0.12318683552E+02  0.29023150698E+02  0.00000000000E+00 0.  1.
</event>
<event>
 5    1  0.1766634E-003  0.9118800E+02  0.7818608E-02  0.1130116E+00
         25   -1    0    0    0    0  0.00000000000E+00  0.00000000000E+00  0.99999998245E-14  0.12500000000E+03  0.12500000000E+03 0.  0.
        -13    1    3    3    0    0  0.16714734503E+02 -0.24405635586E+02 -0.18082920732E+02  0.34670168504E+02  0.10566000000E+00 0.  1.
         23    2    1    0    0    0 -0.16814574398E+02  0.24169933082E+02 -0.72019019880E+01  0.94688567015E+02  0.89705862426E+02 0.  0.
         13    1    3    3    0    0 -0.33529308901E+02  0.48575568668E+02  0.10881018744E+02  0.60018398510E+02  0.10566000000E+00 0. -1.
         22    1    1    0    0    0  0.16814574398E+02 -0.24169933082E+02  0.72019019880E+01  0.30311432985E+02  0.00000000000E+00 0. -1.
</event>
<event>
 5    1  0.1766634E-003  0.9118800E+02  0.7818608E-02  0.1130116E+00
         25   -1    0    0    0    0  0.00000000000E+00  0.00000000000E+00  0.99999998245E-14  0.12500000000E+03  0.12500000000E+03 0.  0.
        -13    1    3    3    0    0 -0.23151265425E+02 -0.30567971305E+02 -0.39904374162E+02  0.55342137669E+02  0.10566000000E+00 0. -1.
         23    2    1    0    0    0 -0.30682317599E+01 -0.32440505445E+02 -0.10960876537E+02  0.90620627491E+02  0.83846030751E+02 0.  0.
         13    1    3    3    0    0  0.20083033665E+02 -0.18725341396E+01  0.28943497625E+02  0.35278489822E+02  0.10566000000E+00 0.  1.
         22    1    1    0    0    0  0.30682317599E+01  0.32440505445E+02  0.10960876537E+02  0.34379372509E+02  0.00000000000E+00 0. -1.
</event>
<event>
 5    1  0.1766634E-003  0.9118800E+02  0.7818608E-02  0.1130116E+00
         25   -1    0    0    0    0  0.00000000000E+00  0.00000000000E+00  0.99999998245E-14  0.12500000000E+03  0.12500000000E+03 0.  0.
        -13    1    3    3    0    0  0.28374999227E+02 -0.14503439316E+02 -0.47972691822E+02  0.57592366315E+02  0.10566000000E+00 0. -1.
         23    2    1    0    0    0  0.19901023403E+02  0.93508328888E+01 -0.20746557243E+02  0.94769081297E+02  0.89817984414E+02 0.  0.
         13    1    3    3    0    0 -0.84739758239E+01  0.23854272205E+02  0.27226134579E+02  0.37176714982E+02  0.10566000000E+00 0.  1.
         22    1    1    0    0    0 -0.19901023403E+02 -0.93508328888E+01  0.20746557243E+02  0.30230918703E+02  0.00000000000E+00 0. -1.
</event>
<event>
 5    1  0.1766634E-003  0.9118800E+02  0.7818608E-02  0.1130116E+00
         25   -1    0    0    0    0  0.00000000000E+00  0.00000000000E+00  0.99999998245E-14  0.12500000000E+03  0.12500000000E+03 0.  0.
        -13    1    3    3    0    0 -0.20837567467E+02 -0.41065910402E+01  0.56342172845E+02  0.60212290380E+02  0.10566000000E+00 0. -1.
         23    2    1    0    0    0 -0.19443279634E+02  0.10426092646E+00  0.19008998721E+02  0.97808199294E+02  0.93952380616E+02 0.  0.
         13    1    3    3    0    0  0.13942878336E+01  0.42108519667E+01 -0.37333174124E+02  0.37595908914E+02  0.10566000000E+00 0.  1.
         22    1    1    0    0    0  0.19443279634E+02 -0.10426092646E+00 -0.19008998721E+02  0.27191800706E+02  0.00000000000E+00 0. -1.
</event>
<event>
 5    1  0.1766634E-003  0.9118800E+02  0.7818608E-02  0.1130116E+00
         25   -1    0    0    0    0  0.00000000000E+00  0.00000000000E+00  0.99999998245E-14  0.12500000000E+03  0.12500000000E+03 0.  0.
        -13    1    3    3    0    0 -0.15273492865E+02 -0.31218325299E+02  0.36749055081E+01  0.34948240489E+02  0.10566000000E+00 0. -1.
         23    2    1    0    0    0  0.24041271702E+02  0.12368298240E+02 -0.11567689694E+02  0.95593045189E+02  0.90957469716E+02 0.  0.
         13    1    3    3    0    0  0.39314764567E+02  0.43586623539E+02 -0.15242595202E+02  0.60644804699E+02  0.10566000000E+00 0.  1.
         22    1    1    0    0    0 -0.24041271702E+02 -0.12368298240E+02  0.11567689694E+02  0.29406954811E+02  0.00000000000E+00 0.  1.
</event>
<event>
 5    1  0.1766634E-003  0.9118800E+02  0.7818608E-02  0.1130116E+00
         25   -1    0    0    0    0  0.00000000000E+00  0.00000000000E+00  0.99999998245E-14  0.12500000000E+03  0.12500000000E+03 0.  0.
        -13    1    3    3    0    0 -0.21476489871E+02 -0.18364701156E+02  0.28162135167E+02  0.39895098533E+02  0.10566000000E+00 0.  1.
         23    2    1    0    0    0  0.15420149643E+02  0.21009108531E+02  0.12592662573E+02  0.96056282082E+02  0.91591869292E+02 0.  0.
         13    1    3    3    0    0  0.36896639514E+02  0.39373809687E+02 -0.15569472594E+02  0.56161183549E+02  0.10566000000E+00 0. -1.
         22    1    1    0    0    0 -0.15420149643E+02 -0.21009108531E+02 -0.12592662573E+02  0.28943717918E+02  0.00000000000E+00 0. -1.
</event>
<event>
 5    1  0.1766634E-003  0.9118800E+02  0.7818608E-02  0.1130116E+00
         25   -1    0    0    0    0  0.00000000000E+00  0.00000000000E+00  0.99999998245E-14  0.12500000000E+03  0.12500000000E+03 0.  0.
        -13    1    3    3    0    0  0.33642288568E+02  0.11638220388E+02 -0.90572586127E+01  0.36732776256E+02  0.10566000000E+00 0.  1.
         23    2    1    0    0    0 -0.22849830989E+02  0.14241498489E+02  0.98019356043E+01  0.96346675637E+02  0.91987330156E+02 0.  0.
         13    1    3    3    0    0 -0.56492119557E+02  0.26032781013E+01  0.18859194217E+02  0.59613899381E+02  0.10566000000E+00 0. -1.
         22    1    1    0    0    0  0.22849830989E+02 -0.14241498489E+02 -0.98019356043E+01  0.28653324363E+02  0.00000000000E+00 0. -1.
</event>
<event>
 5    1  0.1766634E-003  0.9118800E+02  0.7818608E-02  0.1130116E+00
         25   -1    0    0    0    0  0.00000000000E+00  0.00000000000E+00  0.99999998245E-14  0.12500000000E+03  0.12500000000E+03 0.  0.
        -13    1    3    3    0    0  0.20525014409E+02  0.11694942407E+02  0.25395088157E+02  0.34683851588E+02  0.10566000000E+00 0.  1.
         23    2    1    0    0    0 -0.31002703520E+02 -0.12378583178E+01 -0.89646210218E+00  0.93959646215E+02  0.88684336575E+02 0.  0.
         13    1    3    3    0    0 -0.51527717930E+02 -0.12932800725E+02 -0.26291550259E+02  0.59275794627E+02  0.10566000000E+00 0. -1.
         22    1    1    0    0    0  0.31002703520E+02  0.12378583178E+01  0.89646210218E+00  0.31040353785E+02  0.00000000000E+00 0. -1.
</event>
<event>
 5    1  0.1766634E-003  0.9118800E+02  0.7818608E-02  0.1130116E+00
         25   -1    0    0    0    0  0.00000000000E+00  0.00000000000E+00  0.99999998245E-14  0.12500000000E+03  0.12500000000E+03 0.  0.
        -13    1    3    3    0    0 -0.33114332656E+02  0.28572591317E+02 -0.28504706129E+02  0.52206143674E+02  0.10566000000E+00 0. -1.
         23    2    1    0    0    0 -0.14455221196E+02  0.23289039933E+02  0.10405171751E+02  0.95681057318E+02  0.91078341715E+02 0.  0.
         13    1    3    3    0    0  0.18659111460E+02 -0.52835513837E+01  0.38909877880E+02  0.43474913644E+02  0.10566000000E+00 0.  1.
         22    1    1    0    0    0  0.14455221196E+02 -0.23289039933E+02 -0.10405171751E+02  0.29318942682E+02  0.00000000000E+00 0. -1.
</event>
<event>
 5    1  0.1766634E-003  0.9118800E+02  0.7818608E-02  0.1130116E+00
         25   -1    0    0    0    0  0.00000000000E+00  0.00000000000E+00  0.99999998245E-14  0.12500000000E+03  0.12500000000E+03 0.  0.
        -13    1    3    3    0    0  0.21250985830E+02 -0.17579448797E+02 -0.44402830271E+02  0.52271061964E+02  0.10566000000E+00 0.  1.
         23    2    1    0    0    0 -0.15317671744E+02 -0.69313323710E+01 -0.24612064069E+02  0.95193488399E+02  0.90406703843E+02 0.  0.
         13    1    3    3    0    0 -0.36568657574E+02  0.10648116426E+02  0.19790766202E+02  0.42922426435E+02  0.10566000000E+00 0. -1.
         22    1    1    0    0    0  0.15317671744E+02  0.69313323710E+01  0.24612064069E+02  0.29806511601E+02  0.00000000000E+00 0.  1.
</event>
<event>
 5    1  0.1766634E-003  0.9118800E+02  0.7818608E-02  0.1130116E+00
         25   -1    0    0    0    0  0.00000000000E+00  0.00000000000E+00  0.99999998245E-14  0.12500000000E+03  0.12500000000E+03 0.  0.
        -13    1    3    3    0    0 -0.21682152618E+02  0.31903961886E+02 -0.58079675492E+01  0.39009257584E+02  0.10566000000E+00 0.  1.
         23    2    1    0    0    0 -0.32035230442E+01 -0.18786922755E+02 -0.22525530855E+02  0.95493889331E+02  0.90821100702E+02 0.  0.
         13    1    3    3    0    0  0.18478629574E+02 -0.50690884641E+02 -0.16717563306E+02  0.56484631747E+02  0.10566000000E+00 0. -1.
         22    1    1    0    0    0  0.32035230442E+01  0.18786922755E+02  0.22525530855E+02  0.29506110669E+02  0.00000000000E+00 0. -1.
</event>
<event>
 5    1  0.1766634E-003  0.9118800E+02  0.7818608E-02  0.1130116E+00
         25   -1    0    0    0    0  0.00000000000E+00  0.00000000000E+00  0.99999998245E-14  0.12500000000E+03  0.12500000000E+03 0.  0.
        -13    1    3    3    0    0 -0.37910486333E+02 -0.11224520161E+02  0.10745690513E+02  0.40971646971E+02  0.10566000000E+00 0.  1.
         23    2    1    0    0    0 -0.43465668891E+01  0.25202612174E+02 -0.13456858475E+02  0.96101014826E+02  0.91652897971E+02 0.  0.
         13    1    3    3    0    0  0.33563919444E+02  0.36427132334E+02 -0.24202548988E+02  0.55129367855E+02  0.10566000000E+00 0. -1.
         22    1    1    0    0    0  0.43465668891E+01 -0.25202612174E+02  0.13456858475E+02  0.28898985174E+02  0.00000000000E+00 0. -1.
</event>
<event>
 5    1  0.1766634E-003  0.9118800E+02  0.7818608E-02  0.1130116E+00
         25   -1    0    0    0    0  0.00000000000E+00  0.00000000000E+00  0.99999998245E-14  0.12500000000E+03  0.12500000000E+03 0.  0.
        -13    1    3    3    0    0  0.89602314230E+01  0.22906724222E+02 -0.31672229084E+02  0.40101683517E+02  0.10566000000E+00 0.  1.
         23    2    1    0    0    0 -0.28201546957E+02 -0.53252501321E+00  0.37585540235E+01  0.96544111997E+02  0.92255232910E+02 0.  0.
         13    1    3    3    0    0 -0.37161778380E+02 -0.23439249235E+02  0.35430783107E+02  0.56442428480E+02  0.10566000000E+00 0. -1.
         22    1    1    0    0    0  0.28201546957E+02  0.53252501321E+00 -0.37585540235E+01  0.28455888003E+02  0.00000000000E+00 0. -1.
</event>
<event>
 5    1  0.1766634E-003  0.9118800E+02  0.7818608E-02  0.1130116E+00
         25   -1    0    0    0    0  0.00000000000E+00  0.00000000000E+00  0.99999998245E-14  0.12500000000E+03  0.12500000000E+03 0.  0.
        -13    1    3    3    0    0 -0.55495585882E+00  0.14092645967E+02 -0.18538090153E+02  0.23293402433E+02  0.10566000000E+00 0.  1.
         23    2    1    0    0    0 -0.11067153402E+02 -0.41732469790E+02 -0.69611091412E+01  0.81267426789E+02  0.68497129116E+02 0.  0.
         13    1    3    3    0    0 -0.10512197543E+02 -0.55825115758E+02  0.11576981012E+02  0.57974024355E+02  0.10566000000E+00 0. -1.
         22    1    1    0    0    0  0.11067153402E+02  0.41732469790E+02  0.69611091412E+01  0.43732573211E+02  0.00000000000E+00 0. -1.
</event>
<event>
 5    1  0.1766634E-003  0.9118800E+02  0.7818608E-02  0.1130116E+00
         25   -1    0    0    0    0  0.00000000000E+00  0.00000000000E+00  0.99999998245E-14  0.12500000000E+03  0.12500000000E+03 0.  0.
        -13    1    3    3    0    0 -0.76365376076E+01 -0.26478212169E+02  0.23336159662E+02  0.36110939314E+02  0.10566000000E+00 0.  1.
         23    2    1    0    0    0  0.35016775023E+00  0.76234462566E+01 -0.26724336901E+02  0.97207379881E+02  0.93149583844E+02 0.  0.
         13    1    3    3    0    0  0.79867053578E+01  0.34101658426E+02 -0.50060496563E+02  0.61096440568E+02  0.10566000000E+00 0. -1.
         22    1    1    0    0    0 -0.35016775023E+00 -0.76234462566E+01  0.26724336901E+02  0.27792620119E+02  0.00000000000E+00 0. -1.
</event>
<event>
 5    1  0.1766634E-003  0.9118800E+02  0.7818608E-02  0.1130116E+00
         25   -1    0    0    0    0  0.00000000000E+00  0.00000000000E+00  0.99999998245E-14  0.12500000000E+03  0.12500000000E+03 0.  0.
        -13    1    3    3    0    0  0.45927688456E+02 -0.31907505361E+02  0.11413939195E+02  0.57076533158E+02  0.10566000000E+00 0.  1.
         23    2    1    0    0    0  0.15424861769E+02 -0.12130252755E+02  0.22559491855E+02  0.95100166133E+02  0.90277580458E+02 0.  0.
         13    1    3    3    0    0 -0.30502826687E+02  0.19777252606E+02  0.11145552660E+02  0.38023632976E+02  0.10566000000E+00 0. -1.
         22    1    1    0    0    0 -0.15424861769E+02  0.12130252755E+02 -0.22559491855E+02  0.29899833867E+02  0.00000000000E+00 0.  1.
</event>
<event>
 5    1  0.1766634E-003  0.9118800E+02  0.7818608E-02  0.1130116E+00
         25   -1    0    0    0    0  0.00000000000E+00  0.00000000000E+00  0.99999998245E-14  0.12500000000E+03  0.12500000000E+03 0.  0.
        -13    1    3    3    0    0  0.29457694146E+02 -0.30527430653E+02 -0.29010029363E+02  0.51393314102E+02  0.10566000000E+00 0.  1.
         23    2    1    0    0    0  0.89825654755E+01  0.89505626246E+01 -0.26126648910E+02  0.95958635757E+02  0.91458509387E+02 0.  0.
         13    1    3    3    0    0 -0.20475128671E+02  0.39477993278E+02  0.28833804534E+01  0.44565321655E+02  0.10566000000E+00 0. -1.
         22    1    1    0    0    0 -0.89825654755E+01 -0.89505626246E+01  0.26126648910E+02  0.29041364243E+02  0.00000000000E+00 0. -1.
</event>
<event>
 5    1  0.1766634E-003  0.9118800E+02  0.7818608E-02  0.1130116E+00
         25   -1    0    0    0    0  0.00000000000E+00  0.00000000000E+00  0.99999998245E-14  0.12500000000E+03  0.12500000000E+03 0.  0.
        -13    1    3    3    0    0  0.27345102715E+02 -0.48427591466E+02  0.17638577016E+02  0.58344809717E+02  0.10566000000E+00 0.  1.
         23    2    1    0    0    0  0.18830249464E+02 -0.10960755498E+02  0.17952819740E+02  0.96768453946E+02  0.92558702922E+02 0.  0.
         13    1    3    3    0    0 -0.85148532507E+01  0.37466835968E+02  0.31424272418E+00  0.38423644230E+02  0.10566000000E+00 0. -1.
         22    1    1    0    0    0 -0.18830249464E+02  0.10960755498E+02 -0.17952819740E+02  0.28231546054E+02  0.00000000000E+00 0.  1.
</event>
<event>
 5    1  0.1766634E-003  0.9118800E+02  0.7818608E-02  0.1130116E+00
         25   -1    0    0    0    0  0.00000000000E+00  0.00000000000E+00  0.99999998245E-14  0.12500000000E+03  0.12500000000E+03 0.  0.
        -13    1    3    3    0    0  0.22156676648E+01 -0.28606134817E+01  0.32666820285E+02  0.32866770518E+02  0.10566000000E+00 0.  1.
         23    2    1    0    0    0  0.51268490988E+01  0.11459174214E+01 -0.29401708243E+02  0.95132657366E+02  0.90322557213E+02 0.  0.
         13    1    3    3    0    0  0.29111814339E+01  0.40065309031E+01 -0.62068528528E+02  0.62265886848E+02  0.10566000000E+00 0. -1.
         22    1    1    0    0    0 -0.51268490988E+01 -0.11459174214E+01  0.29401708243E+02  0.29867342634E+02  0.00000000000E+00 0. -1.
</event>
<event>
 5    1  0.1766634E-003  0.9118800E+02  0.7818608E-02  0.1130116E+00
         25   -1    0    0    0    0  0.00000000000E+00  0.00000000000E+00  0.99999998245E-14  0.12500000000E+03  0.12500000000E+03 0.  0.
        -13    1    3    3    0    0 -0.40514626202E+02 -0.16421397294E+02 -0.43913456053E+02  0.61963699146E+02  0.10566000000E+00 0.  1.
         23    2    1    0    0    0 -0.15220796906E+02 -0.11888782940E+02 -0.21897901432E+02  0.95801816745E+02  0.91243926846E+02 0.  0.
         13    1    3    3    0    0  0.25293829296E+02  0.45326143533E+01  0.22015554621E+02  0.33838117599E+02  0.10566000000E+00 0. -1.
         22    1    1    0    0    0  0.15220796906E+02  0.11888782940E+02  0.21897901432E+02  0.29198183255E+02  0.00000000000E+00 0.  1.
</event>
<event>
 5    1  0.1766634E-003  0.9118800E+02  0.7818608E-02  0.1130116E+00
         25   -1    0    0    0    0  0.00000000000E+00  0.00000000000E+00  0.99999998245E-14  0.12500000000E+03  0.12500000000E+03 0.  0.
        -13    1    3    3    0    0 -0.36587297311E+02 -0.26098089626E+02  0.19008761319E+02  0.48796360290E+02  0.10566000000E+00 0.  1.
         23    2    1    0    0    0 -0.19173070037E+02 -0.69696543944E+01 -0.20537841037E+02  0.96052018871E+02  0.91586050890E+02 0.  0.
         13    1    3    3    0    0  0.17414227275E+02  0.19128435232E+02 -0.39546602355E+02  0.47255658581E+02  0.10566000000E+00 0. -1.
         22    1    1    0    0    0  0.19173070037E+02  0.69696543944E+01  0.20537841037E+02  0.28947981129E+02  0.00000000000E+00 0.  1.
</event>
<event>
 5    1  0.1766634E-003  0.9118800E+02  0.7818608E-02  0.1130116E+00
         25   -1    0    0    0    0  0.00000000000E+00  0.00000000000E+00  0.99999998245E-14  0.12500000000E+03  0.12500000000E+03 0.  0.
        -13    1    3    3    0    0  0.45475794797E+02  0.77460230013E+01  0.19715154121E+02  0.50167192973E+02  0.10566000000E+00 0.  1.
         23    2    1    0    0    0  0.13800314419E+02 -0.23660871174E+02  0.48699468263E+01  0.97179110639E+02  0.93111640838E+02 0.  0.
         13    1    3    3    0    0 -0.31675480378E+02 -0.31406894175E+02 -0.14845207294E+02  0.47011917665E+02  0.10566000000E+00 0. -1.
         22    1    1    0    0    0 -0.13800314419E+02  0.23660871174E+02 -0.48699468263E+01  0.27820889361E+02  0.00000000000E+00 0.  1.
</event>
<event>
 5    1  0.1766634E-003  0.9118800E+02  0.7818608E-02  0.1130116E+00
         25   -1    0    0    0    0  0.00000000000E+00  0.00000000000E+00  0.99999998245E-14  0.12500000000E+03  0.12500000000E+03 0.  0.
        -13    1    3    3    0    0  0.34576559343E+02  0.46535435564E+02 -0.16115229438E+02  0.60173058780E+02  0.10566000000E+00 0.  1.
         23    2    1    0    0    0  0.36571705157E+01  0.22136031802E+02 -0.11376883376E+02  0.99844239716E+02  0.96623288751E+02 0.  0.
         13    1    3    3    0    0 -0.30919388827E+02 -0.24399403762E+02  0.47383460622E+01  0.39671180936E+02  0.10566000000E+00 0. -1.
         22    1    1    0    0    0 -0.36571705157E+01 -0.22136031802E+02  0.11376883376E+02  0.25155760284E+02  0.00000000000E+00 0.  1.
</event>
<event>
 5    1  0.1766634E-003  0.9118800E+02  0.7818608E-02  0.1130116E+00
         25   -1    0    0    0    0  0.00000000000E+00  0.00000000000E+00  0.99999998245E-14  0.12500000000E+03  0.12500000000E+03 0.  0.
        -13    1    3    3    0    0  0.17982846387E+02  0.13384289601E+02  0.32672986769E+02  0.39623947314E+02  0.10566000000E+00 0. -1.
         23    2    1    0    0    0 -0.14728805747E+02  0.19680812332E+02 -0.13804857927E+02  0.96806983220E+02  0.92610721869E+02 0.  0.
         13    1    3    3    0    0 -0.32711652134E+02  0.62965227308E+01 -0.46477844696E+02  0.57183035906E+02  0.10566000000E+00 0.  1.
         22    1    1    0    0    0  0.14728805747E+02 -0.19680812332E+02  0.13804857927E+02  0.28193016780E+02  0.00000000000E+00 0.  1.
</event>
<event>
 5    1  0.1766634E-003  0.9118800E+02  0.7818608E-02  0.1130116E+00
         25   -1    0    0    0    0  0.00000000000E+00  0.00000000000E+00  0.99999998245E-14  0.12500000000E+03  0.12500000000E+03 0.  0.
        -13    1    3    3    0    0 -0.34381568382E+02  0.19220291864E+02 -0.69874365346E+01  0.40004340979E+02  0.10566000000E+00 0.  1.
         23    2    1    0    0    0 -0.34083676967E+00 -0.45788198669E+01  0.29411833273E+02  0.95231934938E+02  0.90459845978E+02 0.  0.
         13    1    3    3    0    0  0.34040731613E+02 -0.23799111731E+02  0.36399269808E+02  0.55227593959E+02  0.10566000000E+00 0. -1.
         22    1    1    0    0    0  0.34083676967E+00  0.45788198669E+01 -0.29411833273E+02  0.29768065062E+02  0.00000000000E+00 0. -1.
</event>
<event>
 5    1  0.1766634E-003  0.9118800E+02  0.7818608E-02  0.1130116E+00
         25   -1    0    0    0    0  0.00000000000E+00  0.00000000000E+00  0.99999998245E-14  0.12500000000E+03  0.12500000000E+03 0.  0.
        -13    1    3    3    0    0 -0.27768238222E+02  0.46022355789E+02  0.27135565733E+02  0.60211978692E+02  0.10566000000E+00 0.  1.
         23    2    1    0    0    0 -0.15849322804E+02  0.27234751267E+02  0.25265172338E+01  0.93388040250E+02  0.87874968349E+02 0.  0.
         13    1    3    3    0    0  0.11918915418E+02 -0.18787604522E+02 -0.24609048499E+02  0.33176061558E+02  0.10566000000E+00 0. -1.
         22    1    1    0    0    0  0.15849322804E+02 -0.27234751267E+02 -0.25265172338E+01  0.31611959750E+02  0.00000000000E+00 0.  1.
</event>
<event>
 5    1  0.1766634E-003  0.9118800E+02  0.7818608E-02  0.1130116E+00
         25   -1    0    0    0    0  0.00000000000E+00  0.00000000000E+00  0.99999998245E-14  0.12500000000E+03  0.12500000000E+03 0.  0.
        -13    1    3    3    0    0  0.24479997154E+02 -0.46877104735E+02  0.24462719331E+02  0.58268078827E+02  0.10566000000E+00 0. -1.
         23    2    1    0    0    0  0.24009868143E+02 -0.15204584695E+02  0.32398648552E+01  0.96396680468E+02  0.92055255782E+02 0.  0.
         13    1    3    3    0    0 -0.47012901154E+00  0.31672520040E+02 -0.21222854476E+02  0.38128601642E+02  0.10566000000E+00 0.  1.
         22    1    1    0    0    0 -0.24009868143E+02  0.15204584695E+02 -0.32398648552E+01  0.28603319532E+02  0.00000000000E+00 0. -1.
</event>
<event>
 5    1  0.1766634E-003  0.9118800E+02  0.7818608E-02  0.1130116E+00
         25   -1    0    0    0    0  0.00000000000E+00  0.00000000000E+00  0.99999998245E-14  0.12500000000E+03  0.12500000000E+03 0.  0.
        -13    1    3    3    0    0  0.18648608154E+02  0.31997089614E+02 -0.13490094327E+02  0.39415455583E+02  0.10566000000E+00 0.  1.
         23    2    1    0    0    0  0.72655526348E+01  0.74157723197E+01  0.31445616407E+02  0.91884916950E+02  0.85710146642E+02 0.  0.
         13    1    3    3    0    0 -0.11383055520E+02 -0.24581317294E+02  0.44935710734E+02  0.52469461366E+02  0.10566000000E+00 0. -1.
         22    1    1    0    0    0 -0.72655526348E+01 -0.74157723197E+01 -0.31445616407E+02  0.33115083050E+02  0.00000000000E+00 0. -1.
</event>
<event>
 5    1  0.1766634E-003  0.9118800E+02  0.7818608E-02  0.1130116E+00
         25   -1    0    0    0    0  0.00000000000E+00  0.00000000000E+00  0.99999998245E-14  0.12500000000E+03  0.12500000000E+03 0.  0.
        -13    1    3    3    0    0  0.49053905106E+02  0.18351397344E+01 -0.94163226780E+01  0.49983313624E+02  0.10566000000E+00 0. -1.
         23    2    1    0    0    0  0.89720956140E+01 -0.24224006281E+02 -0.85164505107E+01  0.97800167108E+02  0.93941693497E+02 0.  0.
         13    1    3    3    0    0 -0.40081809492E+02 -0.26059146016E+02  0.89987216737E+00  0.47816853485E+02  0.10566000000E+00 0.  1.
         22    1    1    0    0    0 -0.89720956140E+01  0.24224006281E+02  0.85164505107E+01  0.27199832892E+02  0.00000000000E+00 0. -1.
</event>
<event>
 5    1  0.1766634E-003  0.9118800E+02  0.7818608E-02  0.1130116E+00
         25   -1    0    0    0    0  0.00000000000E+00  0.00000000000E+00  0.99999998245E-14  0.12500000000E+03  0.12500000000E+03 0.  0.
        -13    1    3    3    0    0  0.82661601644E+01  0.25852096629E+02  0.18067475299E+02  0.32605293002E+02  0.10566000000E+00 0. -1.
         23    2    1    0    0    0  0.22707022252E+02 -0.23912008947E+02 -0.86554190762E+01  0.90907342275E+02  0.84272389124E+02 0.  0.
         13    1    3    3    0    0  0.14440862087E+02 -0.49764105576E+02 -0.26722894376E+02  0.58302049273E+02  0.10566000000E+00 0.  1.
         22    1    1    0    0    0 -0.22707022252E+02  0.23912008947E+02  0.86554190762E+01  0.34092657725E+02  0.00000000000E+00 0.  1.
</event>
<event>
 5    1  0.1766634E-003  0.9118800E+02  0.7818608E-02  0.1130116E+00
         25   -1    0    0    0    0  0.00000000000E+00  0.00000000000E+00  0.99999998245E-14  0.12500000000E+03  0.12500000000E+03 0.  0.
        -13    1    3    3    0    0 -0.31168093220E+02 -0.43490148285E+02  0.61625371159E+00  0.53509195149E+02  0.10566000000E+00 0. -1.
         23    2    1    0    0    0 -0.29268685176E+02 -0.13446001452E+01  0.18434135965E+00  0.95699865815E+02  0.91104151683E+02 0.  0.
         13    1    3    3    0    0  0.18994080438E+01  0.42145548140E+02 -0.43191235194E+00  0.42190670666E+02  0.10566000000E+00 0.  1.
         22    1    1    0    0    0  0.29268685176E+02  0.13446001452E+01 -0.18434135965E+00  0.29300134185E+02  0.00000000000E+00 0. -1.
</event>
<event>
 5    1  0.1766634E-003  0.9118800E+02  0.7818608E-02  0.1130116E+00
         25   -1    0    0    0    0  0.00000000000E+00  0.00000000000E+00  0.99999998245E-14  0.12500000000E+03  0.12500000000E+03 0.  0.
        -13    1    3    3    0    0 -0.34064761496E+02  0.60259258694E+00 -0.34489663793E+02  0.48480090410E+02  0.10566000000E+00 0.  1.
         23    2    1    0    0    0 -0.11191444201E+02  0.29187535828E+02 -0.11596486110E+02  0.91658746858E+02  0.85379662183E+02 0.  0.
         13    1    3    3    0    0  0.22873317295E+02  0.28584943241E+02  0.22893177683E+02  0.43178656447E+02  0.10566000000E+00 0. -1.
         22    1    1    0    0    0  0.11191444201E+02 -0.29187535828E+02  0.11596486110E+02  0.33341253142E+02  0.00000000000E+00 0.  1.
</event>
<event>
 5    1  0.1766634E-003  0.9118800E+02  0.7818608E-02  0.1130116E+00
         25   -1    0    0    0    0  0.00000000000E+00  0.00000000000E+00  0.99999998245E-14  0.12500000000E+03  0.12500000000E+03 0.  0.
        -13    1    3    3    0    0 -0.22336052752E+02 -0.17782781546E+02 -0.17944079191E+02  0.33721324323E+02  0.10566000000E+00 0.  1.
         23    2    1    0    0    0  0.28638399273E+02  0.71152334765E+01  0.52819684195E+01  0.95021947182E+02  0.90169212016E+02 0.  0.
         13    1    3    3    0    0  0.50974452025E+02  0.24898015022E+02  0.23226047611E+02  0.61300622859E+02  0.10566000000E+00 0. -1.
         22    1    1    0    0    0 -0.28638399273E+02 -0.71152334765E+01 -0.52819684195E+01  0.29978052818E+02  0.00000000000E+00 0. -1.
</event>
<event>
 5    1  0.1766634E-003  0.9118800E+02  0.7818608E-02  0.1130116E+00
         25   -1    0    0    0    0  0.00000000000E+00  0.00000000000E+00  0.99999998245E-14  0.12500000000E+03  0.12500000000E+03 0.  0.
        -13    1    3    3    0    0  0.66729922539E+01  0.52792100311E+02 -0.23287058742E+02  0.58084704956E+02  0.10566000000E+00 0.  1.
         23    2    1    0    0    0  0.17065316048E+02  0.19650043902E+02 -0.18323092251E+02  0.93171004622E+02  0.87565696226E+02 0.  0.
         13    1    3    3    0    0  0.10392323794E+02 -0.33142056410E+02  0.49639664907E+01  0.35086299666E+02  0.10566000000E+00 0. -1.
         22    1    1    0    0    0 -0.17065316048E+02 -0.19650043902E+02  0.18323092251E+02  0.31828995378E+02  0.00000000000E+00 0.  1.
</event>
<event>
 5    1  0.1766634E-003  0.9118800E+02  0.7818608E-02  0.1130116E+00
         25   -1    0    0    0    0  0.00000000000E+00  0.00000000000E+00  0.99999998245E-14  0.12500000000E+03  0.12500000000E+03 0.  0.
        -13    1    3    3    0    0 -0.32110629376E+02  0.38679914560E+02 -0.77429223416E+01  0.50864450452E+02  0.10566000000E+00 0. -1.
         23    2    1    0    0    0  0.83176460883E+01  0.26748304462E+02  0.80122411544E+01  0.95864951753E+02  0.91330377959E+02 0.  0.
         13    1    3    3    0    0  0.40428275464E+02 -0.11931610098E+02  0.15755163496E+02  0.45000501301E+02  0.10566000000E+00 0.  1.
         22    1    1    0    0    0 -0.83176460883E+01 -0.26748304462E+02 -0.80122411544E+01  0.29135048247E+02  0.00000000000E+00 0. -1.
</event>
<event>
 5    1  0.1766634E-003  0.9118800E+02  0.7818608E-02  0.1130116E+00
         25   -1    0    0    0    0  0.00000000000E+00  0.00000000000E+00  0.99999998245E-14  0.12500000000E+03  0.12500000000E+03 0.  0.
        -13    1    3    3    0    0  0.49275548546E+01  0.40065235679E+02 -0.37825768876E+02  0.55320013214E+02  0.10566000000E+00 0. -1.
         23    2    1    0    0    0  0.22032092434E+02  0.16328861087E+02 -0.96785634018E+01  0.95918745024E+02  0.91403972868E+02 0.  0.
         13    1    3    3    0    0  0.17104537580E+02 -0.23736374592E+02  0.28147205474E+02  0.40598731811E+02  0.10566000000E+00 0.  1.
         22    1    1    0    0    0 -0.22032092434E+02 -0.16328861087E+02  0.96785634018E+01  0.29081254976E+02  0.00000000000E+00 0. -1.
</event>
<event>
 5    1  0.1766634E-003  0.9118800E+02  0.7818608E-02  0.1130116E+00
         25   -1    0    0    0    0  0.00000000000E+00  0.00000000000E+00  0.99999998245E-14  0.12500000000E+03  0.12500000000E+03 0.  0.
        -13    1    3    3    0    0 -0.88553556100E+01 -0.28071757336E+02  0.20135768799E+02  0.35663724316E+02  0.10566000000E+00 0. -1.
         23    2    1    0    0    0  0.23752847728E+02  0.15503867592E+02 -0.59500158107E+01  0.96017757615E+02  0.91539277929E+02 0.  0.
         13    1    3    3    0    0  0.32608203338E+02  0.43575624927E+02 -0.26085784610E+02  0.60354033299E+02  0.10566000000E+00 0.  1.
         22    1    1    0    0    0 -0.23752847728E+02 -0.15503867592E+02  0.59500158107E+01  0.28982242385E+02  0.00000000000E+00 0.  1.
</event>
<event>
 5    1  0.1766634E-003  0.9118800E+02  0.7818608E-02  0.1130116E+00
         25   -1    0    0    0    0  0.00000000000E+00  0.00000000000E+00  0.99999998245E-14  0.12500000000E+03  0.12500000000E+03 0.  0.
        -13    1    3    3    0    0 -0.12619599552E+01 -0.48519345582E+01 -0.35968877325E+02  0.36316733222E+02  0.10566000000E+00 0. -1.
         23    2    1    0    0    0  0.26129177301E+01 -0.26442945062E+02  0.16868091733E+02  0.93526372924E+02  0.88071523383E+02 0.  0.
         13    1    3    3    0    0  0.38748776852E+01 -0.21591010504E+02  0.52836969057E+02  0.57209639702E+02  0.10566000000E+00 0.  1.
         22    1    1    0    0    0 -0.26129177301E+01  0.26442945062E+02 -0.16868091733E+02  0.31473627076E+02  0.00000000000E+00 0.  1.
</event>
<event>
 5    1  0.1766634E-003  0.9118800E+02  0.7818608E-02  0.1130116E+00
         25   -1    0    0    0    0  0.00000000000E+00  0.00000000000E+00  0.99999998245E-14  0.12500000000E+03  0.12500000000E+03 0.  0.
        -13    1    3    3    0    0 -0.73847285983E+01  0.32429872560E+02  0.45756769185E+01  0.33573484092E+02  0.10566000000E+00 0. -1.
         23    2    1    0    0    0  0.65955459066E+01 -0.28190472361E+02 -0.97173942358E+00  0.96031944573E+02  0.91558648653E+02 0.  0.
         13    1    3    3    0    0  0.13980274505E+02 -0.60620344921E+02 -0.55474163421E+01  0.62458460481E+02  0.10566000000E+00 0.  1.
         22    1    1    0    0    0 -0.65955459066E+01  0.28190472361E+02  0.97173942358E+00  0.28968055427E+02  0.00000000000E+00 0.  1.
</event>
<event>
 5    1  0.1766634E-003  0.9118800E+02  0.7818608E-02  0.1130116E+00
         25   -1    0    0    0    0  0.00000000000E+00  0.00000000000E+00  0.99999998245E-14  0.12500000000E+03  0.12500000000E+03 0.  0.
        -13    1    3    3    0    0 -0.14795458047E+02 -0.13339751299E+02 -0.19874100078E+02  0.28139750558E+02  0.10566000000E+00 0.  1.
         23    2    1    0    0    0  0.24904643262E+02  0.16649578951E+02  0.17443960889E+02  0.90333856477E+02  0.83417408971E+02 0.  0.
         13    1    3    3    0    0  0.39700101308E+02  0.29989330250E+02  0.37318060967E+02  0.62194105919E+02  0.10566000000E+00 0. -1.
         22    1    1    0    0    0 -0.24904643262E+02 -0.16649578951E+02 -0.17443960889E+02  0.34666143523E+02  0.00000000000E+00 0. -1.
</event>
<event>
 5    1  0.1766634E-003  0.9118800E+02  0.7818608E-02  0.1130116E+00
         25   -1    0    0    0    0  0.00000000000E+00  0.00000000000E+00  0.99999998245E-14  0.12500000000E+03  0.12500000000E+03 0.  0.
        -13    1    3    3    0    0 -0.11700387868E+01  0.37977746681E+02  0.19496924303E+02  0.42706199258E+02  0.10566000000E+00 0. -1.
         23    2    1    0    0    0  0.24922933231E+02 -0.75555229339E+01  0.13889165527E+02  0.95484792959E+02  0.90808580211E+02 0.  0.
         13    1    3    3    0    0  0.26092972017E+02 -0.45533269615E+02 -0.56077587767E+01  0.52778593701E+02  0.10566000000E+00 0.  1.
         22    1    1    0    0    0 -0.24922933231E+02  0.75555229339E+01 -0.13889165527E+02  0.29515207041E+02  0.00000000000E+00 0.  1.
</event>
<event>
 5    1  0.1766634E-003  0.9118800E+02  0.7818608E-02  0.1130116E+00
         25   -1    0    0    0    0  0.00000000000E+00  0.00000000000E+00  0.99999998245E-14  0.12500000000E+03  0.12500000000E+03 0.  0.
        -13    1    3    3    0    0  0.16085576362E+02  0.12043245518E+02 -0.42994899272E+02  0.47459014496E+02  0.10566000000E+00 0.  1.
         23    2    1    0    0    0 -0.20243369511E+02  0.11543404164E+02 -0.29810387431E+01  0.10150679288E+03  0.98750687186E+02 0.  0.
         13    1    3    3    0    0 -0.36328945873E+02 -0.49984135404E+00  0.40013860529E+02  0.54047778383E+02  0.10566000000E+00 0. -1.
         22    1    1    0    0    0  0.20243369511E+02 -0.11543404164E+02  0.29810387431E+01  0.23493207121E+02  0.00000000000E+00 0. -1.
</event>
<event>
 5    1  0.1766634E-003  0.9118800E+02  0.7818608E-02  0.1130116E+00
         25   -1    0    0    0    0  0.00000000000E+00  0.00000000000E+00  0.99999998245E-14  0.12500000000E+03  0.12500000000E+03 0.  0.
        -13    1    3    3    0    0 -0.18644346043E+02 -0.46869830491E+02 -0.32196150077E+02  0.59841422890E+02  0.10566000000E+00 0.  1.
         23    2    1    0    0    0 -0.18308675225E+01 -0.17115642044E+02 -0.24804613902E+02  0.94807846229E+02  0.89871917512E+02 0.  0.
         13    1    3    3    0    0  0.16813478521E+02  0.29754188447E+02  0.73915361746E+01  0.34966423340E+02  0.10566000000E+00 0. -1.
         22    1    1    0    0    0  0.18308675225E+01  0.17115642044E+02  0.24804613902E+02  0.30192153771E+02  0.00000000000E+00 0.  1.
</event>
<event>
 5    1  0.1766634E-003  0.9118800E+02  0.7818608E-02  0.1130116E+00
         25   -1    0    0    0    0  0.00000000000E+00  0.00000000000E+00  0.99999998245E-14  0.12500000000E+03  0.12500000000E+03 0.  0.
        -13    1    3    3    0    0  0.29508135119E+02 -0.12789166683E+02 -0.59607675659E+01  0.32708328246E+02  0.10566000000E+00 0. -1.
         23    2    1    0    0    0 -0.29625163230E+02  0.45093091123E+01  0.26406661683E+01  0.94917492078E+02  0.90024291275E+02 0.  0.
         13    1    3    3    0    0 -0.59133298348E+02  0.17298475795E+02  0.86014337342E+01  0.62209163832E+02  0.10566000000E+00 0.  1.
         22    1    1    0    0    0  0.29625163230E+02 -0.45093091123E+01 -0.26406661683E+01  0.30082507922E+02  0.00000000000E+00 0.  1.
</event>
<event>
 5    1  0.1766634E-003  0.9118800E+02  0.7818608E-02  0.1130116E+00
         25   -1    0    0    0    0  0.00000000000E+00  0.00000000000E+00  0.99999998245E-14  0.12500000000E+03  0.12500000000E+03 0.  0.
        -13    1    3    3    0    0  0.29794989649E+02  0.45306646734E+01 -0.16938716011E+02  0.34571658837E+02  0.10566000000E+00 0.  1.
         23    2    1    0    0    0 -0.68654213360E+01 -0.97524667979E+01  0.28158709690E+02  0.94419654185E+02  0.89330361838E+02 0.  0.
         13    1    3    3    0    0 -0.36660410985E+02 -0.14283131471E+02  0.45097425702E+02  0.59847995348E+02  0.10566000000E+00 0. -1.
         22    1    1    0    0    0  0.68654213360E+01  0.97524667979E+01 -0.28158709690E+02  0.30580345815E+02  0.00000000000E+00 0. -1.
</event>
<event>
 5    1  0.1766634E-003  0.9118800E+02  0.7818608E-02  0.1130116E+00
         25   -1    0    0    0    0  0.00000000000E+00  0.00000000000E+00  0.99999998245E-14  0.12500000000E+03  0.12500000000E+03 0.  0.
        -13    1    3    3    0    0  0.53153882177E+01 -0.38519335927E+02  0.91647256289E+01  0.39949918048E+02  0.10566000000E+00 0. -1.
         23    2    1    0    0    0  0.26025471540E+02  0.12315932687E+02  0.89708146985E+01  0.94842366088E+02  0.89919917271E+02 0.  0.
         13    1    3    3    0    0  0.20710083322E+02  0.50835268614E+02 -0.19391093047E+00  0.54892448040E+02  0.10566000000E+00 0.  1.
         22    1    1    0    0    0 -0.26025471540E+02 -0.12315932687E+02 -0.89708146985E+01  0.30157633912E+02  0.00000000000E+00 0.  1.
</event>
<event>
 5    1  0.1766634E-003  0.9118800E+02  0.7818608E-02  0.1130116E+00
         25   -1    0    0    0    0  0.00000000000E+00  0.00000000000E+00  0.99999998245E-14  0.12500000000E+03  0.12500000000E+03 0.  0.
        -13    1    3    3    0    0 -0.99188307252E+01 -0.21492022931E+02  0.35249574100E+02  0.42459791460E+02  0.10566000000E+00 0.  1.
         23    2    1    0    0    0 -0.31221257839E+02  0.23079213586E+00 -0.54820851576E+01  0.93300260825E+02  0.87750015421E+02 0.  0.
         13    1    3    3    0    0 -0.21302427114E+02  0.21722815067E+02 -0.40731659257E+02  0.50840469365E+02  0.10566000000E+00 0. -1.
         22    1    1    0    0    0  0.31221257839E+02 -0.23079213586E+00  0.54820851576E+01  0.31699739175E+02  0.00000000000E+00 0. -1.
</event>
<event>
 5    1  0.1766634E-003  0.9118800E+02  0.7818608E-02  0.1130116E+00
         25   -1    0    0    0    0  0.00000000000E+00  0.00000000000E+00  0.99999998245E-14  0.12500000000E+03  0.12500000000E+03 0.  0.
        -13    1    3    3    0    0  0.40186459235E+02  0.36504621219E+02 -0.18669879600E+02  0.57411797085E+02  0.10566000000E+00 0. -1.
         23    2    1    0    0    0  0.11880755953E+02  0.88989240153E+01 -0.23458732078E+02  0.97239320589E+02  0.93192436106E+02 0.  0.
         13    1    3    3    0    0 -0.28305703282E+02 -0.27605697204E+02 -0.47888524775E+01  0.39827523504E+02  0.10566000000E+00 0.  1.
         22    1    1    0    0    0 -0.11880755953E+02 -0.88989240153E+01  0.23458732078E+02  0.27760679411E+02  0.00000000000E+00 0. -1.
</event>
<event>
 5    1  0.1766634E-003  0.9118800E+02  0.7818608E-02  0.1130116E+00
         25   -1    0    0    0    0  0.00000000000E+00  0.00000000000E+00  0.99999998245E-14  0.12500000000E+03  0.12500000000E+03 0.  0.
        -13    1    3    3    0    0  0.95369497512E+01  0.48288344844E+02  0.15080188200E+02  0.51479519214E+02  0.10566000000E+00 0.  1.
         23    2    1    0    0    0 -0.19997949738E+02  0.12002232374E+02 -0.26790505084E+01  0.10152343962E+03  0.98771756616E+02 0.  0.
         13    1    3    3    0    0 -0.29534899489E+02 -0.36286112470E+02 -0.17759238709E+02  0.50043920405E+02  0.10566000000E+00 0. -1.
         22    1    1    0    0    0  0.19997949738E+02 -0.12002232374E+02  0.26790505084E+01  0.23476560380E+02  0.00000000000E+00 0. -1.
</event>
<event>
 5    1  0.1766634E-003  0.9118800E+02  0.7818608E-02  0.1130116E+00
         25   -1    0    0    0    0  0.00000000000E+00  0.00000000000E+00  0.99999998245E-14  0.12500000000E+03  0.12500000000E+03 0.  0.
        -13    1    3    3    0    0 -0.22379092963E+02 -0.10716562694E+02  0.25688730160E+02  0.35715410387E+02  0.10566000000E+00 0.  1.
         23    2    1    0    0    0  0.10178944564E+01  0.23156162108E+02 -0.17931722847E+02  0.95694870125E+02  0.91097297058E+02 0.  0.
         13    1    3    3    0    0  0.23396987420E+02  0.33872724802E+02 -0.43620453008E+02  0.59979459738E+02  0.10566000000E+00 0. -1.
         22    1    1    0    0    0 -0.10178944564E+01 -0.23156162108E+02  0.17931722847E+02  0.29305129875E+02  0.00000000000E+00 0. -1.
</event>
<event>
 5    1  0.1766634E-003  0.9118800E+02  0.7818608E-02  0.1130116E+00
         25   -1    0    0    0    0  0.00000000000E+00  0.00000000000E+00  0.99999998245E-14  0.12500000000E+03  0.12500000000E+03 0.  0.
        -13    1    3    3    0    0  0.10208970288E+01  0.39123869668E+02 -0.13206734898E+00  0.39137552483E+02  0.10566000000E+00 0. -1.
         23    2    1    0    0    0 -0.20047200769E+02 -0.11328619064E+02 -0.17025488013E+02  0.96362697218E+02  0.92009099030E+02 0.  0.
         13    1    3    3    0    0 -0.21068097798E+02 -0.50452488732E+02 -0.16893420664E+02  0.57225144734E+02  0.10566000000E+00 0.  1.
         22    1    1    0    0    0  0.20047200769E+02  0.11328619064E+02  0.17025488013E+02  0.28637302782E+02  0.00000000000E+00 0.  1.
</event>
<event>
 5    1  0.1766634E-003  0.9118800E+02  0.7818608E-02  0.1130116E+00
         25   -1    0    0    0    0  0.00000000000E+00  0.00000000000E+00  0.99999998245E-14  0.12500000000E+03  0.12500000000E+03 0.  0.
        -13    1    3    3    0    0 -0.30305603484E+02  0.45731915888E+02 -0.13950025526E+02  0.56607880278E+02  0.10566000000E+00 0.  1.
         23    2    1    0    0    0 -0.21057325458E+02  0.15692171072E+02  0.10790623339E+02  0.96608227593E+02  0.92342064620E+02 0.  0.
         13    1    3    3    0    0  0.92482780268E+01 -0.30039744816E+02  0.24740648865E+02  0.40000347315E+02  0.10566000000E+00 0. -1.
         22    1    1    0    0    0  0.21057325458E+02 -0.15692171072E+02 -0.10790623339E+02  0.28391772407E+02  0.00000000000E+00 0.  1.
</event>
<event>
 5    1  0.1766634E-003  0.9118800E+02  0.7818608E-02  0.1130116E+00
         25   -1    0    0    0    0  0.00000000000E+00  0.00000000000E+00  0.99999998245E-14  0.12500000000E+03  0.12500000000E+03 0.  0.
        -13    1    3    3    0    0 -0.36131917022E+02  0.27838293150E+02 -0.15181107175E+02  0.48072478325E+02  0.10566000000E+00 0. -1.
         23    2    1    0    0    0  0.11419249528E+00  0.36748744519E-01 -0.29156644457E+02  0.95843108767E+02  0.91300477500E+02 0.  0.
         13    1    3    3    0    0  0.36246109518E+02 -0.27801544405E+02 -0.13975537281E+02  0.47770630442E+02  0.10566000000E+00 0.  1.
         22    1    1    0    0    0 -0.11419249528E+00 -0.36748744519E-01  0.29156644457E+02  0.29156891233E+02  0.00000000000E+00 0.  1.
</event>
<event>
 5    1  0.1766634E-003  0.9118800E+02  0.7818608E-02  0.1130116E+00
         25   -1    0    0    0    0  0.00000000000E+00  0.00000000000E+00  0.99999998245E-14  0.12500000000E+03  0.12500000000E+03 0.  0.
        -13    1    3    3    0    0 -0.26586199249E+02 -0.17028875348E+02  0.29748137182E+02  0.43379389299E+02  0.10566000000E+00 0.  1.
         23    2    1    0    0    0  0.15370870573E+01 -0.25400973365E+02 -0.13922799997E+02  0.95992820815E+02  0.91505219544E+02 0.  0.
         13    1    3    3    0    0  0.28123286306E+02 -0.83720980174E+01 -0.43670937179E+02  0.52613431517E+02  0.10566000000E+00 0. -1.
         22    1    1    0    0    0 -0.15370870573E+01  0.25400973365E+02  0.13922799997E+02  0.29007179185E+02  0.00000000000E+00 0. -1.
</event>
<event>
 4    1  0.1766634E-003  0.9118800E+02  0.7818608E-02  0.1130116E+00
         25   -1    0    0    0    0  0.00000000000E+00  0.00000000000E+00  0.99999998245E-14  0.12500000000E+03  0.12500000000E+03 0.  0.
        -13    1    1    0    0    0 -0.13351062305E+02 -0.57705460602E+01 -0.16160255360E+02  0.21742011955E+02  0.10566000000E+00 0. -1.
         13    1    1    0    0    0 -0.25369383968E+02  0.39566734106E+02 -0.58190259214E+01  0.47360366525E+02  0.10566000000E+00 0.  1.
         22    1    1    0    0    0  0.38720446272E+02 -0.33796188046E+02  0.21979281282E+02  0.55897621520E+02  0.00000000000E+00 0.  1.
</event>
<event>
 5    1  0.1766634E-003  0.9118800E+02  0.7818608E-02  0.1130116E+00
         25   -1    0    0    0    0  0.00000000000E+00  0.00000000000E+00  0.99999998245E-14  0.12500000000E+03  0.12500000000E+03 0.  0.
        -13    1    3    3    0    0  0.11359275387E+02 -0.35946345915E+02 -0.21697561399E+02  0.43496761450E+02  0.10566000000E+00 0.  1.
         23    2    1    0    0    0  0.46187645697E+01  0.16973489039E+02 -0.21983420796E+02  0.96845016317E+02  0.92662042278E+02 0.  0.
         13    1    3    3    0    0 -0.67405108169E+01  0.52919834955E+02 -0.28585939729E+00  0.53348254867E+02  0.10566000000E+00 0. -1.
         22    1    1    0    0    0 -0.46187645697E+01 -0.16973489039E+02  0.21983420796E+02  0.28154983683E+02  0.00000000000E+00 0. -1.
</event>
<event>
 5    1  0.1766634E-003  0.9118800E+02  0.7818608E-02  0.1130116E+00
         25   -1    0    0    0    0  0.00000000000E+00  0.00000000000E+00  0.99999998245E-14  0.12500000000E+03  0.12500000000E+03 0.  0.
        -13    1    3    3    0    0  0.26775727317E+02  0.36241825946E+02 -0.24477932135E+02  0.51279526586E+02  0.10566000000E+00 0. -1.
         23    2    1    0    0    0  0.14969963396E+02  0.26746021269E+02  0.13001845306E+02  0.91705894828E+02  0.85448661236E+02 0.  0.
         13    1    3    3    0    0 -0.11805763921E+02 -0.94958046770E+01  0.37479777440E+02  0.40426368242E+02  0.10566000000E+00 0.  1.
         22    1    1    0    0    0 -0.14969963396E+02 -0.26746021269E+02 -0.13001845306E+02  0.33294105172E+02  0.00000000000E+00 0. -1.
</event>
<event>
 5    1  0.1766634E-003  0.9118800E+02  0.7818608E-02  0.1130116E+00
         25   -1    0    0    0    0  0.00000000000E+00  0.00000000000E+00  0.99999998245E-14  0.12500000000E+03  0.12500000000E+03 0.  0.
        -13    1    3    3    0    0  0.64244612883E+01 -0.23546352934E+02 -0.24443361835E+02  0.34542633675E+02  0.10566000000E+00 0.  1.
         23    2    1    0    0    0  0.40882734217E+00  0.41627485250E+01  0.29351034683E+02  0.95352422493E+02  0.90626186190E+02 0.  0.
         13    1    3    3    0    0 -0.60156339461E+01  0.27709101459E+02  0.53794396517E+02  0.60809788819E+02  0.10566000000E+00 0. -1.
         22    1    1    0    0    0 -0.40882734217E+00 -0.41627485250E+01 -0.29351034683E+02  0.29647577507E+02  0.00000000000E+00 0. -1.
</event>
<event>
 5    1  0.1766634E-003  0.9118800E+02  0.7818608E-02  0.1130116E+00
         25   -1    0    0    0    0  0.00000000000E+00  0.00000000000E+00  0.99999998245E-14  0.12500000000E+03  0.12500000000E+03 0.  0.
        -13    1    3    3    0    0 -0.36931137032E+02 -0.24748986668E+02 -0.40533340566E+02  0.60161317182E+02  0.10566000000E+00 0. -1.
         23    2    1    0    0    0 -0.38057752786E+01 -0.79170632072E+01 -0.21211601440E+02  0.10204143186E+03  0.99425137493E+02 0.  0.
         13    1    3    3    0    0  0.33125361754E+02  0.16831923461E+02  0.19321739126E+02  0.41880114680E+02  0.10566000000E+00 0.  1.
         22    1    1    0    0    0  0.38057752786E+01  0.79170632072E+01  0.21211601440E+02  0.22958568138E+02  0.00000000000E+00 0. -1.
</event>
<event>
 5    1  0.1766634E-003  0.9118800E+02  0.7818608E-02  0.1130116E+00
         25   -1    0    0    0    0  0.00000000000E+00  0.00000000000E+00  0.99999998245E-14  0.12500000000E+03  0.12500000000E+03 0.  0.
        -13    1    3    3    0    0 -0.28079489777E+01  0.34795030288E+02  0.35230729681E+02  0.49596312243E+02  0.10566000000E+00 0. -1.
         23    2    1    0    0    0 -0.21094458512E+02  0.21204306248E+02 -0.38597951448E+01  0.94842135322E+02  0.89919596477E+02 0.  0.
         13    1    3    3    0    0 -0.18286509534E+02 -0.13590724040E+02 -0.39090524826E+02  0.45245823079E+02  0.10566000000E+00 0.  1.
         22    1    1    0    0    0  0.21094458512E+02 -0.21204306248E+02  0.38597951448E+01  0.30157864678E+02  0.00000000000E+00 0. -1.
</event>
<event>
 5    1  0.1766634E-003  0.9118800E+02  0.7818608E-02  0.1130116E+00
         25   -1    0    0    0    0  0.00000000000E+00  0.00000000000E+00  0.99999998245E-14  0.12500000000E+03  0.12500000000E+03 0.  0.
        -13    1    3    3    0    0  0.31538648024E+00 -0.11652864629E+02 -0.42465976587E+02  0.44037019135E+02  0.10566000000E+00 0.  1.
         23    2    1    0    0    0 -0.29783425152E+02  0.39073835399E+01 -0.50069285847E+01  0.94546931291E+02  0.89508283543E+02 0.  0.
         13    1    3    3    0    0 -0.30098811633E+02  0.15560248169E+02  0.37459048003E+02  0.50509912157E+02  0.10566000000E+00 0. -1.
         22    1    1    0    0    0  0.29783425152E+02 -0.39073835399E+01  0.50069285847E+01  0.30453068709E+02  0.00000000000E+00 0. -1.
</event>
<event>
 4    1  0.1766634E-003  0.9118800E+02  0.7818608E-02  0.1130116E+00
         25   -1    0    0    0    0  0.00000000000E+00  0.00000000000E+00  0.99999998245E-14  0.12500000000E+03  0.12500000000E+03 0.  0.
        -13    1    1    0    0    0 -0.52021106631E+02 -0.13551857001E+02  0.80318165895E+01  0.54354113047E+02  0.10566000000E+00 0. -1.
         13    1    1    0    0    0  0.93781560234E+01 -0.15379074291E+02  0.20781823878E+01  0.18132725733E+02  0.10566000000E+00 0.  1.
         22    1    1    0    0    0  0.42642950608E+02  0.28930931292E+02 -0.10109998977E+02  0.52513161220E+02  0.00000000000E+00 0. -1.
</event>
<event>
 5    1  0.1766634E-003  0.9118800E+02  0.7818608E-02  0.1130116E+00
         25   -1    0    0    0    0  0.00000000000E+00  0.00000000000E+00  0.99999998245E-14  0.12500000000E+03  0.12500000000E+03 0.  0.
        -13    1    3    3    0    0  0.16995178739E+02 -0.38033561906E+02  0.34509373643E+02  0.54095249005E+02  0.10566000000E+00 0.  1.
         23    2    1    0    0    0  0.22381859764E+02 -0.20130539045E+02 -0.17027604591E+01  0.94848952889E+02  0.89929073286E+02 0.  0.
         13    1    3    3    0    0  0.53866810246E+01  0.17903022860E+02 -0.36212134102E+02  0.40753703884E+02  0.10566000000E+00 0. -1.
         22    1    1    0    0    0 -0.22381859764E+02  0.20130539045E+02  0.17027604591E+01  0.30151047111E+02  0.00000000000E+00 0. -1.
</event>
<event>
 5    1  0.1766634E-003  0.9118800E+02  0.7818608E-02  0.1130116E+00
         25   -1    0    0    0    0  0.00000000000E+00  0.00000000000E+00  0.99999998245E-14  0.12500000000E+03  0.12500000000E+03 0.  0.
        -13    1    3    3    0    0  0.54888964573E+02  0.88269469020E+01 -0.21950854817E+02  0.59770934532E+02  0.10566000000E+00 0. -1.
         23    2    1    0    0    0  0.26612896708E+02 -0.12426805742E+01 -0.22997879922E+02  0.89804929221E+02  0.82621016124E+02 0.  0.
         13    1    3    3    0    0 -0.28276067865E+02 -0.10069627476E+02 -0.10470251048E+01  0.30033994690E+02  0.10566000000E+00 0.  1.
         22    1    1    0    0    0 -0.26612896708E+02  0.12426805742E+01  0.22997879922E+02  0.35195070779E+02  0.00000000000E+00 0. -1.
</event>
<event>
 5    1  0.1766634E-003  0.9118800E+02  0.7818608E-02  0.1130116E+00
         25   -1    0    0    0    0  0.00000000000E+00  0.00000000000E+00  0.99999998245E-14  0.12500000000E+03  0.12500000000E+03 0.  0.
        -13    1    3    3    0    0  0.37858139019E+02 -0.21536307635E+01  0.10274487841E+02  0.39286805418E+02  0.10566000000E+00 0. -1.
         23    2    1    0    0    0 -0.31691022471E+01  0.13846349313E+02 -0.25358367868E+02  0.95934360161E+02  0.91425324939E+02 0.  0.
         13    1    3    3    0    0 -0.41027241267E+02  0.15999980076E+02 -0.35632855709E+02  0.56647554743E+02  0.10566000000E+00 0.  1.
         22    1    1    0    0    0  0.31691022471E+01 -0.13846349313E+02  0.25358367868E+02  0.29065639839E+02  0.00000000000E+00 0.  1.
</event>
<event>
 5    1  0.1766634E-003  0.9118800E+02  0.7818608E-02  0.1130116E+00
         25   -1    0    0    0    0  0.00000000000E+00  0.00000000000E+00  0.99999998245E-14  0.12500000000E+03  0.12500000000E+03 0.  0.
        -13    1    3    3    0    0 -0.31267871298E+02 -0.39517978524E+02 -0.30031285965E+02  0.58662080622E+02  0.10566000000E+00 0. -1.
         23    2    1    0    0    0 -0.21848556963E+02 -0.41976754506E+01 -0.14891155308E+02  0.98228253196E+02  0.94509593687E+02 0.  0.
         13    1    3    3    0    0  0.94193143352E+01  0.35320303074E+02  0.15140130657E+02  0.39566172573E+02  0.10566000000E+00 0.  1.
         22    1    1    0    0    0  0.21848556963E+02  0.41976754506E+01  0.14891155308E+02  0.26771746804E+02  0.00000000000E+00 0. -1.
</event>
<event>
 5    1  0.1766634E-003  0.9118800E+02  0.7818608E-02  0.1130116E+00
         25   -1    0    0    0    0  0.00000000000E+00  0.00000000000E+00  0.99999998245E-14  0.12500000000E+03  0.12500000000E+03 0.  0.
        -13    1    3    3    0    0  0.18680998736E+02 -0.12404250652E+02  0.22509888260E+02  0.31773438302E+02  0.10566000000E+00 0. -1.
         23    2    1    0    0    0  0.20880482376E+02 -0.44739076746E+02 -0.64145418119E+01  0.75213195735E+02  0.56376404051E+02 0.  0.
         13    1    3    3    0    0  0.21994836396E+01 -0.32334826094E+02 -0.28924430072E+02  0.43439757433E+02  0.10566000000E+00 0.  1.
         22    1    1    0    0    0 -0.20880482376E+02  0.44739076746E+02  0.64145418119E+01  0.49786804265E+02  0.00000000000E+00 0.  1.
</event>
<event>
 5    1  0.1766634E-003  0.9118800E+02  0.7818608E-02  0.1130116E+00
         25   -1    0    0    0    0  0.00000000000E+00  0.00000000000E+00  0.99999998245E-14  0.12500000000E+03  0.12500000000E+03 0.  0.
        -13    1    3    3    0    0 -0.38702285179E+02  0.13316333160E+02 -0.10761020498E+02  0.42320235504E+02  0.10566000000E+00 0.  1.
         23    2    1    0    0    0 -0.28696687289E+01 -0.12712660939E+02  0.23374783125E+02  0.98237577970E+02  0.94521925988E+02 0.  0.
         13    1    3    3    0    0  0.35832616450E+02 -0.26028994099E+02  0.34135803623E+02  0.55917342466E+02  0.10566000000E+00 0. -1.
         22    1    1    0    0    0  0.28696687289E+01  0.12712660939E+02 -0.23374783125E+02  0.26762422030E+02  0.00000000000E+00 0. -1.
</event>
<event>
 5    1  0.1766634E-003  0.9118800E+02  0.7818608E-02  0.1130116E+00
         25   -1    0    0    0    0  0.00000000000E+00  0.00000000000E+00  0.99999998245E-14  0.12500000000E+03  0.12500000000E+03 0.  0.
        -13    1    3    3    0    0  0.29414016912E+02 -0.98244730702E+01 -0.14050576319E+02  0.34046064691E+02  0.10566000000E+00 0. -1.
         23    2    1    0    0    0 -0.21444771165E+02  0.21226072466E+02 -0.26955906073E+01  0.94706591949E+02  0.89730975628E+02 0.  0.
         13    1    3    3    0    0 -0.50858788077E+02  0.31050545536E+02  0.11354985711E+02  0.60660527258E+02  0.10566000000E+00 0.  1.
         22    1    1    0    0    0  0.21444771165E+02 -0.21226072466E+02  0.26955906073E+01  0.30293408051E+02  0.00000000000E+00 0.  1.
</event>
<event>
 5    1  0.1766634E-003  0.9118800E+02  0.7818608E-02  0.1130116E+00
         25   -1    0    0    0    0  0.00000000000E+00  0.00000000000E+00  0.99999998245E-14  0.12500000000E+03  0.12500000000E+03 0.  0.
        -13    1    3    3    0    0 -0.71167459347E+01 -0.47053764687E+02 -0.21111820407E+02  0.52061741892E+02  0.10566000000E+00 0.  1.
         23    2    1    0    0    0  0.86308108429E+01 -0.23707697630E+02  0.13260987876E+02  0.96497375170E+02  0.92191885720E+02 0.  0.
         13    1    3    3    0    0  0.15747556778E+02  0.23346067057E+02  0.34372808283E+02  0.44435633278E+02  0.10566000000E+00 0. -1.
         22    1    1    0    0    0 -0.86308108429E+01  0.23707697630E+02 -0.13260987876E+02  0.28502624830E+02  0.00000000000E+00 0.  1.
</event>
<event>
 5    1  0.1766634E-003  0.9118800E+02  0.7818608E-02  0.1130116E+00
         25   -1    0    0    0    0  0.00000000000E+00  0.00000000000E+00  0.99999998245E-14  0.12500000000E+03  0.12500000000E+03 0.  0.
        -13    1    3    3    0    0 -0.75333296729E+01 -0.37839953470E+02 -0.99127249288E+00  0.38595426150E+02  0.10566000000E+00 0. -1.
         23    2    1    0    0    0 -0.18884940949E+02  0.19734115830E+02  0.35617567093E+01  0.97454357276E+02  0.93480422116E+02 0.  0.
         13    1    3    3    0    0 -0.11351611276E+02  0.57574069299E+02  0.45530292022E+01  0.58858931125E+02  0.10566000000E+00 0.  1.
         22    1    1    0    0    0  0.18884940949E+02 -0.19734115830E+02 -0.35617567093E+01  0.27545642724E+02  0.00000000000E+00 0.  1.
</event>
<event>
 5    1  0.1766634E-003  0.9118800E+02  0.7818608E-02  0.1130116E+00
         25   -1    0    0    0    0  0.00000000000E+00  0.00000000000E+00  0.99999998245E-14  0.12500000000E+03  0.12500000000E+03 0.  0.
        -13    1    3    3    0    0  0.13190418465E+01 -0.42155619919E+02 -0.87862563084E+01  0.43081847989E+02  0.10566000000E+00 0. -1.
         23    2    1    0    0    0 -0.19043043152E+02 -0.13756630405E+01  0.20283846750E+02  0.97143862790E+02  0.93064309472E+02 0.  0.
         13    1    3    3    0    0 -0.20362084999E+02  0.40779956879E+02  0.29070103058E+02  0.54062014801E+02  0.10566000000E+00 0.  1.
         22    1    1    0    0    0  0.19043043152E+02  0.13756630405E+01 -0.20283846750E+02  0.27856137210E+02  0.00000000000E+00 0.  1.
</event>
<event>
 5    1  0.1766634E-003  0.9118800E+02  0.7818608E-02  0.1130116E+00
         25   -1    0    0    0    0  0.00000000000E+00  0.00000000000E+00  0.99999998245E-14  0.12500000000E+03  0.12500000000E+03 0.  0.
        -13    1    3    3    0    0  0.67520006049E+00 -0.30742340726E+02 -0.11947235148E+02  0.32989316455E+02  0.10566000000E+00 0.  1.
         23    2    1    0    0    0 -0.83885856021E+01  0.19876270611E+02  0.21666307208E+02  0.94424464521E+02  0.89337092690E+02 0.  0.
         13    1    3    3    0    0 -0.90637856626E+01  0.50618611337E+02  0.33613542356E+02  0.61435148066E+02  0.10566000000E+00 0. -1.
         22    1    1    0    0    0  0.83885856021E+01 -0.19876270611E+02 -0.21666307208E+02  0.30575535479E+02  0.00000000000E+00 0. -1.
</event>
<event>
 5    1  0.1766634E-003  0.9118800E+02  0.7818608E-02  0.1130116E+00
         25   -1    0    0    0    0  0.00000000000E+00  0.00000000000E+00  0.99999998245E-14  0.12500000000E+03  0.12500000000E+03 0.  0.
        -13    1    3    3    0    0  0.27661464236E+02  0.17021134520E+02 -0.34131224088E+02  0.47115042670E+02  0.10566000000E+00 0.  1.
         23    2    1    0    0    0  0.26730153427E+02 -0.82493205494E+00  0.11325050055E+02  0.95957989500E+02  0.91457626117E+02 0.  0.
         13    1    3    3    0    0 -0.93131080864E+00 -0.17846066574E+02  0.45456274143E+02  0.48842946830E+02  0.10566000000E+00 0. -1.
         22    1    1    0    0    0 -0.26730153427E+02  0.82493205494E+00 -0.11325050055E+02  0.29042010500E+02  0.00000000000E+00 0. -1.
</event>
<event>
 5    1  0.1766634E-003  0.9118800E+02  0.7818608E-02  0.1130116E+00
         25   -1    0    0    0    0  0.00000000000E+00  0.00000000000E+00  0.99999998245E-14  0.12500000000E+03  0.12500000000E+03 0.  0.
        -13    1    3    3    0    0 -0.56448549307E+02 -0.18677324812E+02 -0.77330111150E+01  0.59959084432E+02  0.10566000000E+00 0.  1.
         23    2    1    0    0    0 -0.19709068680E+02 -0.17044309583E+02 -0.10650631469E+02  0.96850544800E+02  0.92669499837E+02 0.  0.
         13    1    3    3    0    0  0.36739480627E+02  0.16330152297E+01 -0.29176203540E+01  0.36891460368E+02  0.10566000000E+00 0. -1.
         22    1    1    0    0    0  0.19709068680E+02  0.17044309583E+02  0.10650631469E+02  0.28149455200E+02  0.00000000000E+00 0.  1.
</event>
<event>
 5    1  0.1766634E-003  0.9118800E+02  0.7818608E-02  0.1130116E+00
         25   -1    0    0    0    0  0.00000000000E+00  0.00000000000E+00  0.99999998245E-14  0.12500000000E+03  0.12500000000E+03 0.  0.
        -13    1    3    3    0    0  0.18901564991E+02 -0.30018949485E+02  0.11979466283E+02  0.37442292448E+02  0.10566000000E+00 0. -1.
         23    2    1    0    0    0  0.13106386806E+02  0.26043455672E+02 -0.28037977496E+01  0.95710065888E+02  0.91118145679E+02 0.  0.
         13    1    3    3    0    0 -0.57951781841E+01  0.56062405157E+02 -0.14783264033E+02  0.58267773440E+02  0.10566000000E+00 0.  1.
         22    1    1    0    0    0 -0.13106386806E+02 -0.26043455672E+02  0.28037977496E+01  0.29289934112E+02  0.00000000000E+00 0.  1.
</event>
<event>
 5    1  0.1766634E-003  0.9118800E+02  0.7818608E-02  0.1130116E+00
         25   -1    0    0    0    0  0.00000000000E+00  0.00000000000E+00  0.99999998245E-14  0.12500000000E+03  0.12500000000E+03 0.  0.
        -13    1    3    3    0    0 -0.32909996764E+02  0.27075438804E+02 -0.22159033438E+02  0.48033126074E+02  0.10566000000E+00 0. -1.
         23    2    1    0    0    0 -0.26339240666E+02 -0.15419461156E+02 -0.65064003055E+01  0.93793452191E+02  0.88449776980E+02 0.  0.
         13    1    3    3    0    0  0.65707560977E+01 -0.42494899961E+02  0.15652633133E+02  0.45760326117E+02  0.10566000000E+00 0.  1.
         22    1    1    0    0    0  0.26339240666E+02  0.15419461156E+02  0.65064003055E+01  0.31206547809E+02  0.00000000000E+00 0.  1.
</event>
<event>
 5    1  0.1766634E-003  0.9118800E+02  0.7818608E-02  0.1130116E+00
         25   -1    0    0    0    0  0.00000000000E+00  0.00000000000E+00  0.99999998245E-14  0.12500000000E+03  0.12500000000E+03 0.  0.
        -13    1    3    3    0    0  0.27052451316E+02  0.32377422152E+02 -0.13646933208E+02  0.44343912067E+02  0.10566000000E+00 0.  1.
         23    2    1    0    0    0 -0.15772748782E+02  0.29158974169E+02  0.55531664469E+01  0.91386564646E+02  0.84980239829E+02 0.  0.
         13    1    3    3    0    0 -0.42825200098E+02 -0.32184479829E+01  0.19200099655E+02  0.47042652579E+02  0.10566000000E+00 0. -1.
         22    1    1    0    0    0  0.15772748782E+02 -0.29158974169E+02 -0.55531664469E+01  0.33613435354E+02  0.00000000000E+00 0.  1.
</event>
<event>
 5    1  0.1766634E-003  0.9118800E+02  0.7818608E-02  0.1130116E+00
         25   -1    0    0    0    0  0.00000000000E+00  0.00000000000E+00  0.99999998245E-14  0.12500000000E+03  0.12500000000E+03 0.  0.
        -13    1    3    3    0    0 -0.17542201037E+02 -0.35340985222E+02  0.34396842511E+01  0.39605007833E+02  0.10566000000E+00 0. -1.
         23    2    1    0    0    0  0.97722723089E+01  0.19989039118E+02 -0.58215211379E+01  0.10200110656E+03  0.99374426494E+02 0.  0.
         13    1    3    3    0    0  0.27314473346E+02  0.55330024339E+02 -0.92612053889E+01  0.62396098731E+02  0.10566000000E+00 0.  1.
         22    1    1    0    0    0 -0.97722723089E+01 -0.19989039118E+02  0.58215211379E+01  0.22998893436E+02  0.00000000000E+00 0.  1.
</event>
<event>
 5    1  0.1766634E-003  0.9118800E+02  0.7818608E-02  0.1130116E+00
         25   -1    0    0    0    0  0.00000000000E+00  0.00000000000E+00  0.99999998245E-14  0.12500000000E+03  0.12500000000E+03 0.  0.
        -13    1    3    3    0    0  0.38458440534E+02  0.38706778788E+02  0.99623125981E+01  0.55466433172E+02  0.10566000000E+00 0.  1.
         23    2    1    0    0    0  0.95280682132E+01  0.97114916154E+01  0.22850440217E+02  0.98406020016E+02  0.94744419382E+02 0.  0.
         13    1    3    3    0    0 -0.28930372321E+02 -0.28995287173E+02  0.12888127619E+02  0.42939586845E+02  0.10566000000E+00 0. -1.
         22    1    1    0    0    0 -0.95280682132E+01 -0.97114916154E+01 -0.22850440217E+02  0.26593979984E+02  0.00000000000E+00 0.  1.
</event>
<event>
 5    1  0.1766634E-003  0.9118800E+02  0.7818608E-02  0.1130116E+00
         25   -1    0    0    0    0  0.00000000000E+00  0.00000000000E+00  0.99999998245E-14  0.12500000000E+03  0.12500000000E+03 0.  0.
        -13    1    3    3    0    0 -0.17752312710E+02 -0.57522275273E+02 -0.10232918225E+02  0.61062922781E+02  0.10566000000E+00 0. -1.
         23    2    1    0    0    0 -0.15513950360E+02 -0.24654810912E+02  0.95498366975E+00  0.95854599836E+02  0.91316208633E+02 0.  0.
         13    1    3    3    0    0  0.22383623504E+01  0.32867464360E+02  0.11187901895E+02  0.34791677056E+02  0.10566000000E+00 0.  1.
         22    1    1    0    0    0  0.15513950360E+02  0.24654810912E+02 -0.95498366975E+00  0.29145400164E+02  0.00000000000E+00 0. -1.
</event>
<event>
 5    1  0.1766634E-003  0.9118800E+02  0.7818608E-02  0.1130116E+00
         25   -1    0    0    0    0  0.00000000000E+00  0.00000000000E+00  0.99999998245E-14  0.12500000000E+03  0.12500000000E+03 0.  0.
        -13    1    3    3    0    0  0.40349248019E+02  0.16817448358E+02 -0.20517130374E+02  0.48289255407E+02  0.10566000000E+00 0. -1.
         23    2    1    0    0    0  0.20431131136E+02 -0.56127889048E+01  0.18061704023E+02  0.97158310558E+02  0.93083713073E+02 0.  0.
         13    1    3    3    0    0 -0.19918116883E+02 -0.22430237263E+02  0.38578834397E+02  0.48869055151E+02  0.10566000000E+00 0.  1.
         22    1    1    0    0    0 -0.20431131136E+02  0.56127889048E+01 -0.18061704023E+02  0.27841689442E+02  0.00000000000E+00 0. -1.
</event>
<event>
 5    1  0.1766634E-003  0.9118800E+02  0.7818608E-02  0.1130116E+00
         25   -1    0    0    0    0  0.00000000000E+00  0.00000000000E+00  0.99999998245E-14  0.12500000000E+03  0.12500000000E+03 0.  0.
        -13    1    3    3    0    0  0.27109992360E+02  0.27388120052E+02 -0.48958337714E+02  0.62305624156E+02  0.10566000000E+00 0.  1.
         23    2    1    0    0    0  0.17699494609E+02  0.12966470550E+02 -0.27583854300E+02  0.89754142286E+02  0.82544143169E+02 0.  0.
         13    1    3    3    0    0 -0.94104977504E+01 -0.14421649503E+02  0.21374483414E+02  0.27448518130E+02  0.10566000000E+00 0. -1.
         22    1    1    0    0    0 -0.17699494609E+02 -0.12966470550E+02  0.27583854300E+02  0.35245857714E+02  0.00000000000E+00 0.  1.
</event>
<event>
 5    1  0.1766634E-003  0.9118800E+02  0.7818608E-02  0.1130116E+00
         25   -1    0    0    0    0  0.00000000000E+00  0.00000000000E+00  0.99999998245E-14  0.12500000000E+03  0.12500000000E+03 0.  0.
        -13    1    3    3    0    0  0.39007541750E+02 -0.44173737541E+02  0.12988277931E+02  0.60345786343E+02  0.10566000000E+00 0. -1.
         23    2    1    0    0    0  0.30683184525E+02 -0.18717669303E+02  0.29894306367E+01  0.88934148392E+02  0.81292909272E+02 0.  0.
         13    1    3    3    0    0 -0.83243572256E+01  0.25456068238E+02 -0.99988472945E+01  0.28588362048E+02  0.10566000000E+00 0.  1.
         22    1    1    0    0    0 -0.30683184525E+02  0.18717669303E+02 -0.29894306367E+01  0.36065851608E+02  0.00000000000E+00 0. -1.
</event>
<event>
 5    1  0.1766634E-003  0.9118800E+02  0.7818608E-02  0.1130116E+00
         25   -1    0    0    0    0  0.00000000000E+00  0.00000000000E+00  0.99999998245E-14  0.12500000000E+03  0.12500000000E+03 0.  0.
        -13    1    3    3    0    0 -0.10720796750E+02 -0.43890700622E+01 -0.33350379533E+02  0.35305217716E+02  0.10566000000E+00 0.  1.
         23    2    1    0    0    0  0.96164893761E+01  0.92370388964E+00  0.25465070020E+02  0.97763996477E+02  0.93893552064E+02 0.  0.
         13    1    3    3    0    0  0.20337286126E+02  0.53127739518E+01  0.58815449553E+02  0.62458778760E+02  0.10566000000E+00 0. -1.
         22    1    1    0    0    0 -0.96164893761E+01 -0.92370388964E+00 -0.25465070020E+02  0.27236003523E+02  0.00000000000E+00 0. -1.
</event>
<event>
 5    1  0.1766634E-003  0.9118800E+02  0.7818608E-02  0.1130116E+00
         25   -1    0    0    0    0  0.00000000000E+00  0.00000000000E+00  0.99999998245E-14  0.12500000000E+03  0.12500000000E+03 0.  0.
        -13    1    3    3    0    0  0.91478189830E+01 -0.42287922488E+02 -0.12407807586E+02  0.45010174779E+02  0.10566000000E+00 0. -1.
         23    2    1    0    0    0  0.28924410872E+02 -0.33195065783E+00  0.69167455814E+01  0.95258226264E+02  0.90496168792E+02 0.  0.
         13    1    3    3    0    0  0.19776591889E+02  0.41955971830E+02  0.19324553168E+02  0.50248051485E+02  0.10566000000E+00 0.  1.
         22    1    1    0    0    0 -0.28924410872E+02  0.33195065783E+00 -0.69167455814E+01  0.29741773736E+02  0.00000000000E+00 0. -1.
</event>
<event>
 5    1  0.1766634E-003  0.9118800E+02  0.7818608E-02  0.1130116E+00
         25   -1    0    0    0    0  0.00000000000E+00  0.00000000000E+00  0.99999998245E-14  0.12500000000E+03  0.12500000000E+03 0.  0.
        -13    1    3    3    0    0 -0.28744479451E+02 -0.74502926078E+01  0.34124319832E+02  0.45235299567E+02  0.10566000000E+00 0.  1.
         23    2    1    0    0    0  0.79074068475E+01 -0.28351362769E+02  0.95848734920E+01  0.94045248285E+02  0.88804910175E+02 0.  0.
         13    1    3    3    0    0  0.36651886298E+02 -0.20901070161E+02 -0.24539446340E+02  0.48809948718E+02  0.10566000000E+00 0. -1.
         22    1    1    0    0    0 -0.79074068475E+01  0.28351362769E+02 -0.95848734920E+01  0.30954751715E+02  0.00000000000E+00 0. -1.
</event>
<event>
 5    1  0.1766634E-003  0.9118800E+02  0.7818608E-02  0.1130116E+00
         25   -1    0    0    0    0  0.00000000000E+00  0.00000000000E+00  0.99999998245E-14  0.12500000000E+03  0.12500000000E+03 0.  0.
        -13    1    3    3    0    0  0.37615769648E+02  0.13864567291E+01 -0.39993409469E+02  0.54921328766E+02  0.10566000000E+00 0.  1.
         23    2    1    0    0    0  0.30559951129E+02  0.58864399202E+01 -0.20126480431E+01  0.93813279427E+02  0.88477793015E+02 0.  0.
         13    1    3    3    0    0 -0.70558185186E+01  0.44999831912E+01  0.37980761426E+02  0.38891950661E+02  0.10566000000E+00 0. -1.
         22    1    1    0    0    0 -0.30559951129E+02 -0.58864399202E+01  0.20126480431E+01  0.31186720573E+02  0.00000000000E+00 0.  1.
</event>
<event>
 5    1  0.1766634E-003  0.9118800E+02  0.7818608E-02  0.1130116E+00
         25   -1    0    0    0    0  0.00000000000E+00  0.00000000000E+00  0.99999998245E-14  0.12500000000E+03  0.12500000000E+03 0.  0.
        -13    1    3    3    0    0  0.86147431373E+01 -0.31468816131E+02 -0.80230028137E+01  0.33598808404E+02  0.10566000000E+00 0.  1.
         23    2    1    0    0    0 -0.11331509300E+02  0.26952226135E+02 -0.43550498317E+01  0.95440026122E+02  0.90746936756E+02 0.  0.
         13    1    3    3    0    0 -0.19946252437E+02  0.58421042266E+02  0.36679529820E+01  0.61841217718E+02  0.10566000000E+00 0. -1.
         22    1    1    0    0    0  0.11331509300E+02 -0.26952226135E+02  0.43550498317E+01  0.29559973878E+02  0.00000000000E+00 0. -1.
</event>
<event>
 5    1  0.1766634E-003  0.9118800E+02  0.7818608E-02  0.1130116E+00
         25   -1    0    0    0    0  0.00000000000E+00  0.00000000000E+00  0.99999998245E-14  0.12500000000E+03  0.12500000000E+03 0.  0.
        -13    1    3    3    0    0 -0.69467865001E+01  0.68667793171E+01  0.36758017906E+02  0.38033847363E+02  0.10566000000E+00 0. -1.
         23    2    1    0    0    0 -0.67291726007E+01 -0.25467447871E+02 -0.11608897734E+02  0.96213906629E+02  0.91806735359E+02 0.  0.
         13    1    3    3    0    0  0.21761389945E+00 -0.32334227188E+02 -0.48366915639E+02  0.58180059266E+02  0.10566000000E+00 0.  1.
         22    1    1    0    0    0  0.67291726007E+01  0.25467447871E+02  0.11608897734E+02  0.28786093371E+02  0.00000000000E+00 0.  1.
</event>
<event>
 5    1  0.1766634E-003  0.9118800E+02  0.7818608E-02  0.1130116E+00
         25   -1    0    0    0    0  0.00000000000E+00  0.00000000000E+00  0.99999998245E-14  0.12500000000E+03  0.12500000000E+03 0.  0.
        -13    1    3    3    0    0  0.26186749413E+02 -0.15714960969E+02  0.22503457626E+02  0.37935769562E+02  0.10566000000E+00 0.  1.
         23    2    1    0    0    0  0.73541690805E+01  0.78834094642E+01 -0.27004087044E+02  0.95923331265E+02  0.91410244592E+02 0.  0.
         13    1    3    3    0    0 -0.18832580333E+02  0.23598370433E+02 -0.49507544670E+02  0.57987561704E+02  0.10566000000E+00 0. -1.
         22    1    1    0    0    0 -0.73541690805E+01 -0.78834094642E+01  0.27004087044E+02  0.29076668735E+02  0.00000000000E+00 0. -1.
</event>
<event>
 5    1  0.1766634E-003  0.9118800E+02  0.7818608E-02  0.1130116E+00
         25   -1    0    0    0    0  0.00000000000E+00  0.00000000000E+00  0.99999998245E-14  0.12500000000E+03  0.12500000000E+03 0.  0.
        -13    1    3    3    0    0  0.35430900659E+02 -0.34425829456E+02  0.30617910211E+02  0.58120169003E+02  0.10566000000E+00 0. -1.
         23    2    1    0    0    0  0.22456294481E+02 -0.90850203313E+00  0.17979184922E+02  0.96218727821E+02  0.91813299446E+02 0.  0.
         13    1    3    3    0    0 -0.12974606177E+02  0.33517327423E+02 -0.12638725289E+02  0.38098558818E+02  0.10566000000E+00 0.  1.
         22    1    1    0    0    0 -0.22456294481E+02  0.90850203313E+00 -0.17979184922E+02  0.28781272179E+02  0.00000000000E+00 0. -1.
</event>
<event>
 5    1  0.1766634E-003  0.9118800E+02  0.7818608E-02  0.1130116E+00
         25   -1    0    0    0    0  0.00000000000E+00  0.00000000000E+00  0.99999998245E-14  0.12500000000E+03  0.12500000000E+03 0.  0.
        -13    1    3    3    0    0  0.29402198393E+02  0.47943260717E+02  0.11678440951E+02  0.57440775287E+02  0.10566000000E+00 0. -1.
         23    2    1    0    0    0  0.57408244116E+01  0.19507555824E+02  0.21184452256E+02  0.95635347499E+02  0.91015585889E+02 0.  0.
         13    1    3    3    0    0 -0.23661373981E+02 -0.28435704893E+02  0.95060113047E+01  0.38194572211E+02  0.10566000000E+00 0.  1.
         22    1    1    0    0    0 -0.57408244116E+01 -0.19507555824E+02 -0.21184452256E+02  0.29364652501E+02  0.00000000000E+00 0. -1.
</event>
<event>
 5    1  0.1766634E-003  0.9118800E+02  0.7818608E-02  0.1130116E+00
         25   -1    0    0    0    0  0.00000000000E+00  0.00000000000E+00  0.99999998245E-14  0.12500000000E+03  0.12500000000E+03 0.  0.
        -13    1    3    3    0    0  0.23293607317E+02 -0.35788211091E+02 -0.43382443473E+02  0.60872290582E+02  0.10566000000E+00 0.  1.
         23    2    1    0    0    0  0.14131028812E+02 -0.21988200196E+02 -0.12256960887E+02  0.96131331632E+02  0.91694235958E+02 0.  0.
         13    1    3    3    0    0 -0.91625785048E+01  0.13800010895E+02  0.31125482586E+02  0.35259041050E+02  0.10566000000E+00 0. -1.
         22    1    1    0    0    0 -0.14131028812E+02  0.21988200196E+02  0.12256960887E+02  0.28868668368E+02  0.00000000000E+00 0.  1.
</event>
<event>
 5    1  0.1766634E-003  0.9118800E+02  0.7818608E-02  0.1130116E+00
         25   -1    0    0    0    0  0.00000000000E+00  0.00000000000E+00  0.99999998245E-14  0.12500000000E+03  0.12500000000E+03 0.  0.
        -13    1    3    3    0    0 -0.17912837243E+02  0.51934423025E+01  0.58713327551E+02  0.61604444460E+02  0.10566000000E+00 0. -1.
         23    2    1    0    0    0 -0.82158327303E+01  0.98466584024E+01  0.26625110670E+02  0.95447451763E+02  0.90757164680E+02 0.  0.
         13    1    3    3    0    0  0.96970045126E+01  0.46532160999E+01 -0.32088216882E+02  0.33843007303E+02  0.10566000000E+00 0.  1.
         22    1    1    0    0    0  0.82158327303E+01 -0.98466584024E+01 -0.26625110670E+02  0.29552548237E+02  0.00000000000E+00 0. -1.
</event>
<event>
 5    1  0.1766634E-003  0.9118800E+02  0.7818608E-02  0.1130116E+00
         25   -1    0    0    0    0  0.00000000000E+00  0.00000000000E+00  0.99999998245E-14  0.12500000000E+03  0.12500000000E+03 0.  0.
        -13    1    3    3    0    0  0.43085645648E+02 -0.14381955464E+02  0.45064290334E+01  0.45645728941E+02  0.10566000000E+00 0.  1.
         23    2    1    0    0    0  0.10397487811E+02  0.22702894391E+02 -0.11363269183E+02  0.97565476985E+02  0.93628891088E+02 0.  0.
         13    1    3    3    0    0 -0.32688157836E+02  0.37084849855E+02 -0.15869698217E+02  0.51919748045E+02  0.10566000000E+00 0. -1.
         22    1    1    0    0    0 -0.10397487811E+02 -0.22702894391E+02  0.11363269183E+02  0.27434523015E+02  0.00000000000E+00 0. -1.
</event>
<event>
 5    1  0.1766634E-003  0.9118800E+02  0.7818608E-02  0.1130116E+00
         25   -1    0    0    0    0  0.00000000000E+00  0.00000000000E+00  0.99999998245E-14  0.12500000000E+03  0.12500000000E+03 0.  0.
        -13    1    3    3    0    0  0.26622678352E+01 -0.37909310709E+02 -0.48030176785E+02  0.61246326865E+02  0.10566000000E+00 0.  1.
         23    2    1    0    0    0  0.99850567636E+01 -0.16522002023E+02 -0.22910272079E+02  0.95040719699E+02  0.90195232273E+02 0.  0.
         13    1    3    3    0    0  0.73227889283E+01  0.21387308686E+02  0.25119904706E+02  0.33794392834E+02  0.10566000000E+00 0. -1.
         22    1    1    0    0    0 -0.99850567636E+01  0.16522002023E+02  0.22910272079E+02  0.29959280301E+02  0.00000000000E+00 0.  1.
</event>
<event>
 5    1  0.1766634E-003  0.9118800E+02  0.7818608E-02  0.1130116E+00
         25   -1    0    0    0    0  0.00000000000E+00  0.00000000000E+00  0.99999998245E-14  0.12500000000E+03  0.12500000000E+03 0.  0.
        -13    1    3    3    0    0  0.16631296659E+02 -0.50060655779E+00 -0.33840263495E+02  0.37709749840E+02  0.10566000000E+00 0. -1.
         23    2    1    0    0    0 -0.22764257563E+02  0.15576288858E+02  0.68445383898E+01  0.96580290241E+02  0.92304239124E+02 0.  0.
         13    1    3    3    0    0 -0.39395554222E+02  0.16076895416E+02  0.40684801885E+02  0.58870540402E+02  0.10566000000E+00 0.  1.
         22    1    1    0    0    0  0.22764257563E+02 -0.15576288858E+02 -0.68445383898E+01  0.28419709759E+02  0.00000000000E+00 0.  1.
</event>
<event>
 5    1  0.1766634E-003  0.9118800E+02  0.7818608E-02  0.1130116E+00
         25   -1    0    0    0    0  0.00000000000E+00  0.00000000000E+00  0.99999998245E-14  0.12500000000E+03  0.12500000000E+03 0.  0.
        -13    1    3    3    0    0  0.24992197172E+02  0.15246763094E+02  0.18126787531E+02  0.34433490885E+02  0.10566000000E+00 0.  1.
         23    2    1    0    0    0 -0.22030619185E+02 -0.20148016774E+02  0.51037686987E+01  0.94712391700E+02  0.89739054626E+02 0.  0.
         13    1    3    3    0    0 -0.47022816356E+02 -0.35394779868E+02 -0.13023018832E+02  0.60278900815E+02  0.10566000000E+00 0. -1.
         22    1    1    0    0    0  0.22030619185E+02  0.20148016774E+02 -0.51037686987E+01  0.30287608300E+02  0.00000000000E+00 0. -1.
</event>
<event>
 5    1  0.1766634E-003  0.9118800E+02  0.7818608E-02  0.1130116E+00
         25   -1    0    0    0    0  0.00000000000E+00  0.00000000000E+00  0.99999998245E-14  0.12500000000E+03  0.12500000000E+03 0.  0.
        -13    1    3    3    0    0  0.42126669531E+02  0.15090573293E+02  0.43264400221E+01  0.44956767403E+02  0.10566000000E+00 0. -1.
         23    2    1    0    0    0  0.26278947722E+01  0.11916514371E+02 -0.26934993705E+02  0.95429693415E+02  0.90732702780E+02 0.  0.
         13    1    3    3    0    0 -0.39498774758E+02 -0.31740589222E+01 -0.31261433727E+02  0.50472926011E+02  0.10566000000E+00 0.  1.
         22    1    1    0    0    0 -0.26278947722E+01 -0.11916514371E+02  0.26934993705E+02  0.29570306585E+02  0.00000000000E+00 0.  1.
</event>
<event>
 5    1  0.1766634E-003  0.9118800E+02  0.7818608E-02  0.1130116E+00
         25   -1    0    0    0    0  0.00000000000E+00  0.00000000000E+00  0.99999998245E-14  0.12500000000E+03  0.12500000000E+03 0.  0.
        -13    1    3    3    0    0  0.61092328571E+02 -0.71797811608E+01 -0.73363118995E+00  0.61517243489E+02  0.10566000000E+00 0.  1.
         23    2    1    0    0    0  0.26852382890E+02 -0.10199353695E+02  0.31259548410E+01  0.96106248489E+02  0.91660035579E+02 0.  0.
         13    1    3    3    0    0 -0.34239945681E+02 -0.30195725344E+01  0.38595860310E+01  0.34589005000E+02  0.10566000000E+00 0. -1.
         22    1    1    0    0    0 -0.26852382890E+02  0.10199353695E+02 -0.31259548410E+01  0.28893751511E+02  0.00000000000E+00 0.  1.
</event>
<event>
 5    1  0.1766634E-003  0.9118800E+02  0.7818608E-02  0.1130116E+00
         25   -1    0    0    0    0  0.00000000000E+00  0.00000000000E+00  0.99999998245E-14  0.12500000000E+03  0.12500000000E+03 0.  0.
        -13    1    3    3    0    0  0.16070379293E+02 -0.82755177324E+01 -0.32668406742E+02  0.37336004706E+02  0.10566000000E+00 0. -1.
         23    2    1    0    0    0  0.70889268434E+01 -0.17148569894E+02  0.23585837305E+02  0.94989700859E+02  0.90124498415E+02 0.  0.
         13    1    3    3    0    0 -0.89814524493E+01 -0.88730521616E+01  0.56254244046E+02  0.57653696152E+02  0.10566000000E+00 0.  1.
         22    1    1    0    0    0 -0.70889268434E+01  0.17148569894E+02 -0.23585837305E+02  0.30010299141E+02  0.00000000000E+00 0.  1.
</event>
<event>
 5    1  0.1766634E-003  0.9118800E+02  0.7818608E-02  0.1130116E+00
         25   -1    0    0    0    0  0.00000000000E+00  0.00000000000E+00  0.99999998245E-14  0.12500000000E+03  0.12500000000E+03 0.  0.
        -13    1    3    3    0    0  0.38362822032E+01  0.25241897830E+02 -0.23101788614E+02  0.34432169092E+02  0.10566000000E+00 0.  1.
         23    2    1    0    0    0 -0.12289430381E+01 -0.10061593915E+02  0.27130336333E+02  0.96037936492E+02  0.91566828726E+02 0.  0.
         13    1    3    3    0    0 -0.50652252413E+01 -0.35303491745E+02  0.50232124947E+02  0.61605767399E+02  0.10566000000E+00 0. -1.
         22    1    1    0    0    0  0.12289430381E+01  0.10061593915E+02 -0.27130336333E+02  0.28962063508E+02  0.00000000000E+00 0. -1.
</event>
<event>
 5    1  0.1766634E-003  0.9118800E+02  0.7818608E-02  0.1130116E+00
         25   -1    0    0    0    0  0.00000000000E+00  0.00000000000E+00  0.99999998245E-14  0.12500000000E+03  0.12500000000E+03 0.  0.
        -13    1    3    3    0    0  0.35205529763E+01  0.26654644333E+02  0.24300096036E+02  0.36240449627E+02  0.10566000000E+00 0.  1.
         23    2    1    0    0    0 -0.91049900508E+01 -0.25343186078E+02 -0.55395143020E+01  0.97507016475E+02  0.93550810358E+02 0.  0.
         13    1    3    3    0    0 -0.12625543027E+02 -0.51997830411E+02 -0.29839610338E+02  0.61266566848E+02  0.10566000000E+00 0. -1.
         22    1    1    0    0    0  0.91049900508E+01  0.25343186078E+02  0.55395143020E+01  0.27492983525E+02  0.00000000000E+00 0. -1.
</event>
<event>
 5    1  0.1766634E-003  0.9118800E+02  0.7818608E-02  0.1130116E+00
         25   -1    0    0    0    0  0.00000000000E+00  0.00000000000E+00  0.99999998245E-14  0.12500000000E+03  0.12500000000E+03 0.  0.
        -13    1    3    3    0    0 -0.58224759236E+01  0.54589516156E+01 -0.38129298137E+02  0.38955820092E+02  0.10566000000E+00 0.  1.
         23    2    1    0    0    0  0.17364568776E+02 -0.22633503708E+02  0.56618313413E+01  0.95916326349E+02  0.91400665136E+02 0.  0.
         13    1    3    3    0    0  0.23187044700E+02 -0.28092455324E+02  0.43791129478E+02  0.56960506257E+02  0.10566000000E+00 0. -1.
         22    1    1    0    0    0 -0.17364568776E+02  0.22633503708E+02 -0.56618313413E+01  0.29083673651E+02  0.00000000000E+00 0. -1.
</event>
<event>
 5    1  0.1766634E-003  0.9118800E+02  0.7818608E-02  0.1130116E+00
         25   -1    0    0    0    0  0.00000000000E+00  0.00000000000E+00  0.99999998245E-14  0.12500000000E+03  0.12500000000E+03 0.  0.
        -13    1    3    3    0    0 -0.17114320972E+02 -0.15240500677E+02  0.47978389215E+02  0.53170573054E+02  0.10566000000E+00 0. -1.
         23    2    1    0    0    0  0.92947356897E+01 -0.22488487675E+02  0.13598951038E+02  0.97124281915E+02  0.93038005561E+02 0.  0.
         13    1    3    3    0    0  0.26409056661E+02 -0.72479869980E+01 -0.34379438177E+02  0.43953708861E+02  0.10566000000E+00 0.  1.
         22    1    1    0    0    0 -0.92947356897E+01  0.22488487675E+02 -0.13598951038E+02  0.27875718085E+02  0.00000000000E+00 0. -1.
</event>
<event>
 5    1  0.1766634E-003  0.9118800E+02  0.7818608E-02  0.1130116E+00
         25   -1    0    0    0    0  0.00000000000E+00  0.00000000000E+00  0.99999998245E-14  0.12500000000E+03  0.12500000000E+03 0.  0.
        -13    1    3    3    0    0  0.47428107277E+02  0.74569666134E+01  0.17162585623E+02  0.50986245402E+02  0.10566000000E+00 0. -1.
         23    2    1    0    0    0  0.22268326169E+02 -0.10871825504E+01 -0.18894110795E+02  0.95775904822E+02  0.91208421790E+02 0.  0.
         13    1    3    3    0    0 -0.25159781108E+02 -0.85441491639E+01 -0.36056696418E+02  0.44789659420E+02  0.10566000000E+00 0.  1.
         22    1    1    0    0    0 -0.22268326169E+02  0.10871825504E+01  0.18894110795E+02  0.29224095178E+02  0.00000000000E+00 0.  1.
</event>
<event>
 5    1  0.1766634E-003  0.9118800E+02  0.7818608E-02  0.1130116E+00
         25   -1    0    0    0    0  0.00000000000E+00  0.00000000000E+00  0.99999998245E-14  0.12500000000E+03  0.12500000000E+03 0.  0.
        -13    1    3    3    0    0  0.38500335176E+02 -0.10423553752E+02 -0.40807055534E+02  0.57062713105E+02  0.10566000000E+00 0.  1.
         23    2    1    0    0    0  0.53563178563E+01  0.39825927162E+00 -0.31356288467E+02  0.93187021864E+02  0.87588557849E+02 0.  0.
         13    1    3    3    0    0 -0.33144017319E+02  0.10821813024E+02  0.94507670673E+01  0.36124308760E+02  0.10566000000E+00 0. -1.
         22    1    1    0    0    0 -0.53563178563E+01 -0.39825927162E+00  0.31356288467E+02  0.31812978136E+02  0.00000000000E+00 0.  1.
</event>
<event>
 5    1  0.1766634E-003  0.9118800E+02  0.7818608E-02  0.1130116E+00
         25   -1    0    0    0    0  0.00000000000E+00  0.00000000000E+00  0.99999998245E-14  0.12500000000E+03  0.12500000000E+03 0.  0.
        -13    1    3    3    0    0 -0.14309513957E+02  0.17506357195E+02  0.53688242514E+02  0.58255242513E+02  0.10566000000E+00 0.  1.
         23    2    1    0    0    0 -0.19750127024E+02 -0.10307722536E+01  0.21573100476E+02  0.95733488881E+02  0.91150272738E+02 0.  0.
         13    1    3    3    0    0 -0.54406130667E+01 -0.18537129449E+02 -0.32115142037E+02  0.37478246368E+02  0.10566000000E+00 0. -1.
         22    1    1    0    0    0  0.19750127024E+02  0.10307722536E+01 -0.21573100476E+02  0.29266511119E+02  0.00000000000E+00 0.  1.
</event>
<event>
 5    1  0.1766634E-003  0.9118800E+02  0.7818608E-02  0.1130116E+00
         25   -1    0    0    0    0  0.00000000000E+00  0.00000000000E+00  0.99999998245E-14  0.12500000000E+03  0.12500000000E+03 0.  0.
        -13    1    3    3    0    0  0.36419254889E+01 -0.36988309501E+02  0.41318966475E+02  0.55575775439E+02  0.10566000000E+00 0. -1.
         23    2    1    0    0    0  0.21322045581E+02 -0.10480595865E+02  0.15005992948E+02  0.96899246597E+02  0.92735169431E+02 0.  0.
         13    1    3    3    0    0  0.17680120092E+02  0.26507713636E+02 -0.26312973527E+02  0.41323471158E+02  0.10566000000E+00 0.  1.
         22    1    1    0    0    0 -0.21322045581E+02  0.10480595865E+02 -0.15005992948E+02  0.28100753403E+02  0.00000000000E+00 0. -1.
</event>
<event>
 5    1  0.1766634E-003  0.9118800E+02  0.7818608E-02  0.1130116E+00
         25   -1    0    0    0    0  0.00000000000E+00  0.00000000000E+00  0.99999998245E-14  0.12500000000E+03  0.12500000000E+03 0.  0.
        -13    1    3    3    0    0 -0.23851830927E+02 -0.45842417568E+02  0.12280578352E+02  0.53115542506E+02  0.10566000000E+00 0.  1.
         23    2    1    0    0    0  0.78447051266E+01 -0.18213124091E+02  0.21062387891E+02  0.96071096264E+02  0.91612084716E+02 0.  0.
         13    1    3    3    0    0  0.31696536054E+02  0.27629293476E+02  0.87818095397E+01  0.42955553758E+02  0.10566000000E+00 0. -1.
         22    1    1    0    0    0 -0.78447051266E+01  0.18213124091E+02 -0.21062387891E+02  0.28928903736E+02  0.00000000000E+00 0.  1.
</event>
<event>
 5    1  0.1766634E-003  0.9118800E+02  0.7818608E-02  0.1130116E+00
         25   -1    0    0    0    0  0.00000000000E+00  0.00000000000E+00  0.99999998245E-14  0.12500000000E+03  0.12500000000E+03 0.  0.
        -13    1    3    3    0    0 -0.55666462168E+02 -0.25810197322E+02 -0.38324197954E+00  0.61360242295E+02  0.10566000000E+00 0. -1.
         23    2    1    0    0    0 -0.25675893401E+02 -0.14325599217E+02  0.79576133181E+01  0.94540224811E+02  0.89498917327E+02 0.  0.
         13    1    3    3    0    0  0.29990568767E+02  0.11484598105E+02  0.83408552976E+01  0.33179982515E+02  0.10566000000E+00 0.  1.
         22    1    1    0    0    0  0.25675893401E+02  0.14325599217E+02 -0.79576133181E+01  0.30459775189E+02  0.00000000000E+00 0. -1.
</event>
<event>
 5    1  0.1766634E-003  0.9118800E+02  0.7818608E-02  0.1130116E+00
         25   -1    0    0    0    0  0.00000000000E+00  0.00000000000E+00  0.99999998245E-14  0.12500000000E+03  0.12500000000E+03 0.  0.
        -13    1    3    3    0    0  0.11985954704E+02  0.23126268391E+02  0.54571544078E+02  0.60469430185E+02  0.10566000000E+00 0. -1.
         23    2    1    0    0    0  0.49688251361E+00  0.21450783822E+01  0.30552290165E+02  0.94368469059E+02  0.89258709741E+02 0.  0.
         13    1    3    3    0    0 -0.11489072190E+02 -0.20981190008E+02 -0.24019253913E+02  0.33899038873E+02  0.10566000000E+00 0.  1.
         22    1    1    0    0    0 -0.49688251361E+00 -0.21450783822E+01 -0.30552290165E+02  0.30631530941E+02  0.00000000000E+00 0. -1.
</event>
<event>
 5    1  0.1766634E-003  0.9118800E+02  0.7818608E-02  0.1130116E+00
         25   -1    0    0    0    0  0.00000000000E+00  0.00000000000E+00  0.99999998245E-14  0.12500000000E+03  0.12500000000E+03 0.  0.
        -13    1    3    3    0    0  0.14119350799E+01  0.31154739348E+02  0.21629284947E+02  0.37953240650E+02  0.10566000000E+00 0.  1.
         23    2    1    0    0    0  0.18481951804E+02 -0.28690539272E+01 -0.22177868643E+02  0.95988418339E+02  0.91499205378E+02 0.  0.
         13    1    3    3    0    0  0.17070016724E+02 -0.34023793275E+02 -0.43807153590E+02  0.58035177689E+02  0.10566000000E+00 0. -1.
         22    1    1    0    0    0 -0.18481951804E+02  0.28690539272E+01  0.22177868643E+02  0.29011581661E+02  0.00000000000E+00 0. -1.
</event>
<event>
 5    1  0.1766634E-003  0.9118800E+02  0.7818608E-02  0.1130116E+00
         25   -1    0    0    0    0  0.00000000000E+00  0.00000000000E+00  0.99999998245E-14  0.12500000000E+03  0.12500000000E+03 0.  0.
        -13    1    3    3    0    0  0.26605788376E+02  0.61223859050E+01 -0.21257393205E+02  0.34601149030E+02  0.10566000000E+00 0. -1.
         23    2    1    0    0    0 -0.20908821461E+02 -0.14004591837E+02  0.13133875478E+02  0.96613276123E+02  0.92348898373E+02 0.  0.
         13    1    3    3    0    0 -0.47514609837E+02 -0.20126977742E+02  0.34391268683E+02  0.62012127093E+02  0.10566000000E+00 0.  1.
         22    1    1    0    0    0  0.20908821461E+02  0.14004591837E+02 -0.13133875478E+02  0.28386723877E+02  0.00000000000E+00 0.  1.
</event>
<event>
 5    1  0.1766634E-003  0.9118800E+02  0.7818608E-02  0.1130116E+00
         25   -1    0    0    0    0  0.00000000000E+00  0.00000000000E+00  0.99999998245E-14  0.12500000000E+03  0.12500000000E+03 0.  0.
        -13    1    3    3    0    0 -0.44412670941E+01  0.42781331795E+02  0.76602035444E+01  0.43688180162E+02  0.10566000000E+00 0. -1.
         23    2    1    0    0    0  0.19443707128E+02  0.68614668364E+01 -0.21072676037E+02  0.95517884245E+02  0.90854119671E+02 0.  0.
         13    1    3    3    0    0  0.23884974222E+02 -0.35919864958E+02 -0.28732879581E+02  0.51829704083E+02  0.10566000000E+00 0.  1.
         22    1    1    0    0    0 -0.19443707128E+02 -0.68614668364E+01  0.21072676037E+02  0.29482115755E+02  0.00000000000E+00 0.  1.
</event>
<event>
 5    1  0.1766634E-003  0.9118800E+02  0.7818608E-02  0.1130116E+00
         25   -1    0    0    0    0  0.00000000000E+00  0.00000000000E+00  0.99999998245E-14  0.12500000000E+03  0.12500000000E+03 0.  0.
        -13    1    3    3    0    0 -0.43913443106E+02 -0.14707207097E+02  0.23602776947E+02  0.51978790575E+02  0.10566000000E+00 0.  1.
         23    2    1    0    0    0 -0.23724943198E+01 -0.18833728169E+02  0.24833359595E+02  0.93742460192E+02  0.88377684107E+02 0.  0.
         13    1    3    3    0    0  0.41540948786E+02 -0.41265210719E+01  0.12305826484E+01  0.41763669617E+02  0.10566000000E+00 0. -1.
         22    1    1    0    0    0  0.23724943198E+01  0.18833728169E+02 -0.24833359595E+02  0.31257539808E+02  0.00000000000E+00 0.  1.
</event>
<event>
 5    1  0.1766634E-003  0.9118800E+02  0.7818608E-02  0.1130116E+00
         25   -1    0    0    0    0  0.00000000000E+00  0.00000000000E+00  0.99999998245E-14  0.12500000000E+03  0.12500000000E+03 0.  0.
        -13    1    3    3    0    0 -0.84566111702E+01  0.33061336505E+01  0.35005713138E+02  0.36164290516E+02  0.10566000000E+00 0.  1.
         23    2    1    0    0    0  0.45326966911E+01  0.17974763007E+02 -0.21876014996E+02  0.96326013941E+02  0.91959249046E+02 0.  0.
         13    1    3    3    0    0  0.12989307861E+02  0.14668629356E+02 -0.56881728134E+02  0.60161723425E+02  0.10566000000E+00 0. -1.
         22    1    1    0    0    0 -0.45326966911E+01 -0.17974763007E+02  0.21876014996E+02  0.28673986059E+02  0.00000000000E+00 0. -1.
</event>
<event>
 5    1  0.1766634E-003  0.9118800E+02  0.7818608E-02  0.1130116E+00
         25   -1    0    0    0    0  0.00000000000E+00  0.00000000000E+00  0.99999998245E-14  0.12500000000E+03  0.12500000000E+03 0.  0.
        -13    1    3    3    0    0  0.47394691338E+02 -0.31302084525E+01  0.25666998421E+02  0.53989452155E+02  0.10566000000E+00 0.  1.
         23    2    1    0    0    0  0.84401687385E+01  0.14940098537E+02  0.22016804473E+02  0.97086156269E+02  0.92986768237E+02 0.  0.
         13    1    3    3    0    0 -0.38954522599E+02  0.18070306989E+02 -0.36501939478E+01  0.43096704114E+02  0.10566000000E+00 0. -1.
         22    1    1    0    0    0 -0.84401687385E+01 -0.14940098537E+02 -0.22016804473E+02  0.27913843731E+02  0.00000000000E+00 0.  1.
</event>
<event>
 5    1  0.1766634E-003  0.9118800E+02  0.7818608E-02  0.1130116E+00
         25   -1    0    0    0    0  0.00000000000E+00  0.00000000000E+00  0.99999998245E-14  0.12500000000E+03  0.12500000000E+03 0.  0.
        -13    1    3    3    0    0  0.35987045867E+02 -0.96060946489E+01  0.28896041023E+02  0.47141668145E+02  0.10566000000E+00 0.  1.
         23    2    1    0    0    0 -0.15270708312E+02 -0.39376481842E+01  0.20091989046E+02  0.99458120089E+02  0.96122474074E+02 0.  0.
         13    1    3    3    0    0 -0.51257754178E+02  0.56684464647E+01 -0.88040519770E+01  0.52316451944E+02  0.10566000000E+00 0. -1.
         22    1    1    0    0    0  0.15270708312E+02  0.39376481842E+01 -0.20091989046E+02  0.25541879911E+02  0.00000000000E+00 0. -1.
</event>
<event>
 5    1  0.1766634E-003  0.9118800E+02  0.7818608E-02  0.1130116E+00
         25   -1    0    0    0    0  0.00000000000E+00  0.00000000000E+00  0.99999998245E-14  0.12500000000E+03  0.12500000000E+03 0.  0.
        -13    1    3    3    0    0 -0.21998960799E+02  0.81653131615E+01 -0.54017647175E+02  0.58894345956E+02  0.10566000000E+00 0. -1.
         23    2    1    0    0    0 -0.14051345877E+01 -0.78326087228E+01 -0.28613066500E+02  0.95300980873E+02  0.90555205362E+02 0.  0.
         13    1    3    3    0    0  0.20593826211E+02 -0.15997921884E+02  0.25404580675E+02  0.36406634917E+02  0.10566000000E+00 0.  1.
         22    1    1    0    0    0  0.14051345877E+01  0.78326087228E+01  0.28613066500E+02  0.29699019127E+02  0.00000000000E+00 0. -1.
</event>
<event>
 5    1  0.1766634E-003  0.9118800E+02  0.7818608E-02  0.1130116E+00
         25   -1    0    0    0    0  0.00000000000E+00  0.00000000000E+00  0.99999998245E-14  0.12500000000E+03  0.12500000000E+03 0.  0.
        -13    1    3    3    0    0  0.12666962897E+02 -0.41379215229E+02  0.32687353600E+02  0.54232514707E+02  0.10566000000E+00 0. -1.
         23    2    1    0    0    0  0.81109015947E+01 -0.16021844476E+01  0.29462546990E+02  0.94399421659E+02  0.89302045972E+02 0.  0.
         13    1    3    3    0    0 -0.45560613022E+01  0.39777030782E+02 -0.32248066098E+01  0.40166906952E+02  0.10566000000E+00 0.  1.
         22    1    1    0    0    0 -0.81109015947E+01  0.16021844476E+01 -0.29462546990E+02  0.30600578341E+02  0.00000000000E+00 0. -1.
</event>
<event>
 5    1  0.1766634E-003  0.9118800E+02  0.7818608E-02  0.1130116E+00
         25   -1    0    0    0    0  0.00000000000E+00  0.00000000000E+00  0.99999998245E-14  0.12500000000E+03  0.12500000000E+03 0.  0.
        -13    1    3    3    0    0 -0.44174749612E+02  0.52167843676E+01  0.22635326961E+02  0.49909844050E+02  0.10566000000E+00 0.  1.
         23    2    1    0    0    0 -0.11658029346E+02 -0.24651152475E+02  0.60987118294E+01  0.97057500960E+02  0.92948239575E+02 0.  0.
         13    1    3    3    0    0  0.32516720266E+02 -0.29867936843E+02 -0.16536615132E+02  0.47147656910E+02  0.10566000000E+00 0. -1.
         22    1    1    0    0    0  0.11658029346E+02  0.24651152475E+02 -0.60987118294E+01  0.27942499040E+02  0.00000000000E+00 0. -1.
</event>
<event>
 5    1  0.1766634E-003  0.9118800E+02  0.7818608E-02  0.1130116E+00
         25   -1    0    0    0    0  0.00000000000E+00  0.00000000000E+00  0.99999998245E-14  0.12500000000E+03  0.12500000000E+03 0.  0.
        -13    1    3    3    0    0  0.46141535271E+02 -0.64841400269E+01  0.15166924836E+02  0.49001348166E+02  0.10566000000E+00 0. -1.
         23    2    1    0    0    0  0.25386803181E+01 -0.26153975290E+02  0.18334590265E+01  0.98659216161E+02  0.95077884076E+02 0.  0.
         13    1    3    3    0    0 -0.43602854953E+02 -0.19669835263E+02 -0.13333465809E+02  0.49657867995E+02  0.10566000000E+00 0.  1.
         22    1    1    0    0    0 -0.25386803181E+01  0.26153975290E+02 -0.18334590265E+01  0.26340783839E+02  0.00000000000E+00 0. -1.
</event>
<event>
 5    1  0.1766634E-003  0.9118800E+02  0.7818608E-02  0.1130116E+00
         25   -1    0    0    0    0  0.00000000000E+00  0.00000000000E+00  0.99999998245E-14  0.12500000000E+03  0.12500000000E+03 0.  0.
        -13    1    3    3    0    0  0.57612592677E+02  0.16772407836E+02  0.17991971210E+01  0.60031431550E+02  0.10566000000E+00 0.  1.
         23    2    1    0    0    0  0.26797972860E+02  0.33285200520E+01  0.12403156977E+02  0.95283864683E+02  0.90531575546E+02 0.  0.
         13    1    3    3    0    0 -0.30814619816E+02 -0.13443887784E+02  0.10603959856E+02  0.35252433134E+02  0.10566000000E+00 0. -1.
         22    1    1    0    0    0 -0.26797972860E+02 -0.33285200520E+01 -0.12403156977E+02  0.29716135317E+02  0.00000000000E+00 0.  1.
</event>
<event>
 5    1  0.1766634E-003  0.9118800E+02  0.7818608E-02  0.1130116E+00
         25   -1    0    0    0    0  0.00000000000E+00  0.00000000000E+00  0.99999998245E-14  0.12500000000E+03  0.12500000000E+03 0.  0.
        -13    1    3    3    0    0 -0.15800181374E+02 -0.16988041175E+02 -0.28583290836E+02  0.36813787546E+02  0.10566000000E+00 0.  1.
         23    2    1    0    0    0 -0.82647069094E+00  0.26352593664E+02  0.10060473423E+02  0.96780230828E+02  0.92574606168E+02 0.  0.
         13    1    3    3    0    0  0.14973710684E+02  0.43340634838E+02  0.38643764259E+02  0.59966443283E+02  0.10566000000E+00 0. -1.
         22    1    1    0    0    0  0.82647069094E+00 -0.26352593664E+02 -0.10060473423E+02  0.28219769172E+02  0.00000000000E+00 0. -1.
</event>
<event>
 5    1  0.1766634E-003  0.9118800E+02  0.7818608E-02  0.1130116E+00
         25   -1    0    0    0    0  0.00000000000E+00  0.00000000000E+00  0.99999998245E-14  0.12500000000E+03  0.12500000000E+03 0.  0.
        -13    1    3    3    0    0  0.29943952825E+02 -0.22108619849E+02 -0.43986236380E+00  0.37224132298E+02  0.10566000000E+00 0. -1.
         23    2    1    0    0    0 -0.14809087688E+02  0.13497214329E+02 -0.19037152603E+02  0.97361312404E+02  0.93355921617E+02 0.  0.
         13    1    3    3    0    0 -0.44753040514E+02  0.35605834178E+02 -0.18597290239E+02  0.60137180105E+02  0.10566000000E+00 0.  1.
         22    1    1    0    0    0  0.14809087688E+02 -0.13497214329E+02  0.19037152603E+02  0.27638687596E+02  0.00000000000E+00 0.  1.
</event>
<event>
 5    1  0.1766634E-003  0.9118800E+02  0.7818608E-02  0.1130116E+00
         25   -1    0    0    0    0  0.00000000000E+00  0.00000000000E+00  0.99999998245E-14  0.12500000000E+03  0.12500000000E+03 0.  0.
        -13    1    3    3    0    0 -0.28286876908E+02  0.20391904539E+02 -0.22004370969E+02  0.41233247286E+02  0.10566000000E+00 0.  1.
         23    2    1    0    0    0  0.22608334527E+02  0.96521590964E-01 -0.17870415923E+02  0.96181640023E+02  0.91762792055E+02 0.  0.
         13    1    3    3    0    0  0.50895211435E+02 -0.20295382948E+02  0.41339550465E+01  0.54948392737E+02  0.10566000000E+00 0. -1.
         22    1    1    0    0    0 -0.22608334527E+02 -0.96521590964E-01  0.17870415923E+02  0.28818359977E+02  0.00000000000E+00 0. -1.
</event>
<event>
 5    1  0.1766634E-003  0.9118800E+02  0.7818608E-02  0.1130116E+00
         25   -1    0    0    0    0  0.00000000000E+00  0.00000000000E+00  0.99999998245E-14  0.12500000000E+03  0.12500000000E+03 0.  0.
        -13    1    3    3    0    0  0.33161151350E+02  0.22960154081E+02  0.43038771747E+02  0.58984554519E+02  0.10566000000E+00 0. -1.
         23    2    1    0    0    0  0.17780804846E+02  0.21069891139E+02  0.96571435054E+01  0.95787712273E+02  0.91224602319E+02 0.  0.
         13    1    3    3    0    0 -0.15380346504E+02 -0.18902629423E+01 -0.33381628241E+02  0.36803157754E+02  0.10566000000E+00 0.  1.
         22    1    1    0    0    0 -0.17780804846E+02 -0.21069891139E+02 -0.96571435054E+01  0.29212287727E+02  0.00000000000E+00 0. -1.
</event>
<event>
 5    1  0.1766634E-003  0.9118800E+02  0.7818608E-02  0.1130116E+00
         25   -1    0    0    0    0  0.00000000000E+00  0.00000000000E+00  0.99999998245E-14  0.12500000000E+03  0.12500000000E+03 0.  0.
        -13    1    3    3    0    0  0.40236867685E+02 -0.42095728894E+02 -0.20479057056E+02  0.61728914247E+02  0.10566000000E+00 0. -1.
         23    2    1    0    0    0  0.13752260791E+02 -0.22525487950E+02 -0.49068368734E+01  0.98156018694E+02  0.94414006766E+02 0.  0.
         13    1    3    3    0    0 -0.26484606894E+02  0.19570240944E+02  0.15572220183E+02  0.36427104447E+02  0.10566000000E+00 0.  1.
         22    1    1    0    0    0 -0.13752260791E+02  0.22525487950E+02  0.49068368734E+01  0.26843981306E+02  0.00000000000E+00 0. -1.
</event>
<event>
 5    1  0.1766634E-003  0.9118800E+02  0.7818608E-02  0.1130116E+00
         25   -1    0    0    0    0  0.00000000000E+00  0.00000000000E+00  0.99999998245E-14  0.12500000000E+03  0.12500000000E+03 0.  0.
        -13    1    3    3    0    0 -0.37774255822E+02  0.94485965246E+01 -0.24106477945E+02  0.45796329789E+02  0.10566000000E+00 0. -1.
         23    2    1    0    0    0 -0.32155701085E+02  0.31551843311E+02  0.12917847115E+01  0.79931422961E+02  0.66014057141E+02 0.  0.
         13    1    3    3    0    0  0.56185547372E+01  0.22103246786E+02  0.25398262657E+02  0.34135093172E+02  0.10566000000E+00 0.  1.
         22    1    1    0    0    0  0.32155701085E+02 -0.31551843311E+02 -0.12917847115E+01  0.45068577039E+02  0.00000000000E+00 0. -1.
</event>
<event>
 5    1  0.1766634E-003  0.9118800E+02  0.7818608E-02  0.1130116E+00
         25   -1    0    0    0    0  0.00000000000E+00  0.00000000000E+00  0.99999998245E-14  0.12500000000E+03  0.12500000000E+03 0.  0.
        -13    1    3    3    0    0  0.43091711597E+02  0.10840903190E+02  0.29310118963E+02  0.53230771439E+02  0.10566000000E+00 0.  1.
         23    2    1    0    0    0  0.41386261036E+01 -0.55787438411E+01  0.28662121502E+02  0.95508173711E+02  0.90840758626E+02 0.  0.
         13    1    3    3    0    0 -0.38953085494E+02 -0.16419647031E+02 -0.64799746108E+00  0.42277402272E+02  0.10566000000E+00 0. -1.
         22    1    1    0    0    0 -0.41386261036E+01  0.55787438411E+01 -0.28662121502E+02  0.29491826289E+02  0.00000000000E+00 0.  1.
</event>
<event>
 5    1  0.1766634E-003  0.9118800E+02  0.7818608E-02  0.1130116E+00
         25   -1    0    0    0    0  0.00000000000E+00  0.00000000000E+00  0.99999998245E-14  0.12500000000E+03  0.12500000000E+03 0.  0.
        -13    1    3    3    0    0  0.41620268556E+01  0.79306639350E+01  0.59480557072E+02  0.60151190609E+02  0.10566000000E+00 0.  1.
         23    2    1    0    0    0  0.84374267028E+00 -0.80343175476E+01  0.30951014486E+02  0.93012073249E+02  0.87338527078E+02 0.  0.
         13    1    3    3    0    0 -0.33182841853E+01 -0.15964981483E+02 -0.28529542586E+02  0.32860882640E+02  0.10566000000E+00 0. -1.
         22    1    1    0    0    0 -0.84374267028E+00  0.80343175476E+01 -0.30951014486E+02  0.31987926751E+02  0.00000000000E+00 0.  1.
</event>
<event>
 5    1  0.1766634E-003  0.9118800E+02  0.7818608E-02  0.1130116E+00
         25   -1    0    0    0    0  0.00000000000E+00  0.00000000000E+00  0.99999998245E-14  0.12500000000E+03  0.12500000000E+03 0.  0.
        -13    1    3    3    0    0 -0.98442702420E+01  0.24645329308E+02 -0.25379913436E+02  0.36721289239E+02  0.10566000000E+00 0. -1.
         23    2    1    0    0    0  0.28510169404E+02 -0.11021136458E+02 -0.11960665330E+01  0.94410364772E+02  0.89317362214E+02 0.  0.
         13    1    3    3    0    0  0.38354439646E+02 -0.35666465766E+02  0.24183846903E+02  0.57689075533E+02  0.10566000000E+00 0.  1.
         22    1    1    0    0    0 -0.28510169404E+02  0.11021136458E+02  0.11960665330E+01  0.30589635228E+02  0.00000000000E+00 0.  1.
</event>
<event>
 5    1  0.1766634E-003  0.9118800E+02  0.7818608E-02  0.1130116E+00
         25   -1    0    0    0    0  0.00000000000E+00  0.00000000000E+00  0.99999998245E-14  0.12500000000E+03  0.12500000000E+03 0.  0.
        -13    1    3    3    0    0  0.68997434915E+01 -0.61316597195E+02 -0.20509801988E+01  0.61737745631E+02  0.10566000000E+00 0.  1.
         23    2    1    0    0    0  0.47366814035E+01 -0.29975058347E+02 -0.77788029358E+01  0.93671896822E+02  0.88277823974E+02 0.  0.
         13    1    3    3    0    0 -0.21630620880E+01  0.31341538848E+02 -0.57278227370E+01  0.31934151191E+02  0.10566000000E+00 0. -1.
         22    1    1    0    0    0 -0.47366814035E+01  0.29975058347E+02  0.77788029358E+01  0.31328103178E+02  0.00000000000E+00 0.  1.
</event>
<event>
 5    1  0.1766634E-003  0.9118800E+02  0.7818608E-02  0.1130116E+00
         25   -1    0    0    0    0  0.00000000000E+00  0.00000000000E+00  0.99999998245E-14  0.12500000000E+03  0.12500000000E+03 0.  0.
        -13    1    3    3    0    0 -0.33879820864E+02 -0.20620990845E+02  0.89013171982E+01  0.40648642500E+02  0.10566000000E+00 0. -1.
         23    2    1    0    0    0  0.20757180851E+02 -0.20138530277E+02 -0.41307618337E+00  0.96076106927E+02  0.91618921253E+02 0.  0.
         13    1    3    3    0    0  0.54637001715E+02  0.48246056752E+00 -0.93143933816E+01  0.55427464426E+02  0.10566000000E+00 0.  1.
         22    1    1    0    0    0 -0.20757180851E+02  0.20138530277E+02  0.41307618337E+00  0.28923893073E+02  0.00000000000E+00 0.  1.
</event>
<event>
 5    1  0.1766634E-003  0.9118800E+02  0.7818608E-02  0.1130116E+00
         25   -1    0    0    0    0  0.00000000000E+00  0.00000000000E+00  0.99999998245E-14  0.12500000000E+03  0.12500000000E+03 0.  0.
        -13    1    3    3    0    0 -0.12836147582E+02 -0.70565940017E+01 -0.45427333494E+02  0.47730660964E+02  0.10566000000E+00 0. -1.
         23    2    1    0    0    0 -0.13668519076E+02 -0.22153658139E+02  0.33098114205E+01  0.98759423895E+02  0.95209537200E+02 0.  0.
         13    1    3    3    0    0 -0.83237149392E+00 -0.15097064137E+02  0.48737144914E+02  0.51028762931E+02  0.10566000000E+00 0.  1.
         22    1    1    0    0    0  0.13668519076E+02  0.22153658139E+02 -0.33098114205E+01  0.26240576105E+02  0.00000000000E+00 0. -1.
</event>
<event>
 5    1  0.1766634E-003  0.9118800E+02  0.7818608E-02  0.1130116E+00
         25   -1    0    0    0    0  0.00000000000E+00  0.00000000000E+00  0.99999998245E-14  0.12500000000E+03  0.12500000000E+03 0.  0.
        -13    1    3    3    0    0 -0.20186547752E+01  0.16428854268E+02  0.36312275358E+02  0.39907076132E+02  0.10566000000E+00 0.  1.
         23    2    1    0    0    0  0.27164360759E+02 -0.11522793351E+02 -0.17779753305E+01  0.95439241242E+02  0.90745855611E+02 0.  0.
         13    1    3    3    0    0  0.29183015534E+02 -0.27951647619E+02 -0.38090250689E+02  0.55532165110E+02  0.10566000000E+00 0. -1.
         22    1    1    0    0    0 -0.27164360759E+02  0.11522793351E+02  0.17779753305E+01  0.29560758758E+02  0.00000000000E+00 0. -1.
</event>
<event>
 5    1  0.1766634E-003  0.9118800E+02  0.7818608E-02  0.1130116E+00
         25   -1    0    0    0    0  0.00000000000E+00  0.00000000000E+00  0.99999998245E-14  0.12500000000E+03  0.12500000000E+03 0.  0.
        -13    1    3    3    0    0  0.26961637112E+02  0.34285977008E+02 -0.23160102029E+02  0.49384811280E+02  0.10566000000E+00 0. -1.
         23    2    1    0    0    0 -0.13253149718E+01 -0.34897276068E+01 -0.27933232436E+02  0.96818443392E+02  0.92626188780E+02 0.  0.
         13    1    3    3    0    0 -0.28286952084E+02 -0.37775704615E+02 -0.47731304068E+01  0.47433632111E+02  0.10566000000E+00 0.  1.
         22    1    1    0    0    0  0.13253149718E+01  0.34897276068E+01  0.27933232436E+02  0.28181556608E+02  0.00000000000E+00 0. -1.
</event>
<event>
 5    1  0.1766634E-003  0.9118800E+02  0.7818608E-02  0.1130116E+00
         25   -1    0    0    0    0  0.00000000000E+00  0.00000000000E+00  0.99999998245E-14  0.12500000000E+03  0.12500000000E+03 0.  0.
        -13    1    3    3    0    0 -0.26197668309E+02 -0.26173066173E+02 -0.76751572262E+01  0.37818863286E+02  0.10566000000E+00 0.  1.
         23    2    1    0    0    0 -0.28343788502E+02  0.20207665080E+02 -0.18621745904E+02  0.85522291162E+02  0.75865491433E+02 0.  0.
         13    1    3    3    0    0 -0.21461201928E+01  0.46380731253E+02 -0.10946588678E+02  0.47703427876E+02  0.10566000000E+00 0. -1.
         22    1    1    0    0    0  0.28343788502E+02 -0.20207665080E+02  0.18621745904E+02  0.39477708838E+02  0.00000000000E+00 0. -1.
</event>
<event>
 5    1  0.1766634E-003  0.9118800E+02  0.7818608E-02  0.1130116E+00
         25   -1    0    0    0    0  0.00000000000E+00  0.00000000000E+00  0.99999998245E-14  0.12500000000E+03  0.12500000000E+03 0.  0.
        -13    1    3    3    0    0  0.31418492834E+02  0.86724654371E+01 -0.12119048987E+02  0.34773781231E+02  0.10566000000E+00 0.  1.
         23    2    1    0    0    0 -0.19669866395E+02 -0.41987494289E+01  0.20128984325E+02  0.96544611218E+02  0.92255909321E+02 0.  0.
         13    1    3    3    0    0 -0.51088359229E+02 -0.12871214866E+02  0.32248033312E+02  0.61770829987E+02  0.10566000000E+00 0. -1.
         22    1    1    0    0    0  0.19669866395E+02  0.41987494289E+01 -0.20128984325E+02  0.28455388782E+02  0.00000000000E+00 0. -1.
</event>
<event>
 5    1  0.1766634E-003  0.9118800E+02  0.7818608E-02  0.1130116E+00
         25   -1    0    0    0    0  0.00000000000E+00  0.00000000000E+00  0.99999998245E-14  0.12500000000E+03  0.12500000000E+03 0.  0.
        -13    1    3    3    0    0  0.28323234600E+01 -0.16598740356E+01 -0.37147246238E+02  0.37292174851E+02  0.10566000000E+00 0.  1.
         23    2    1    0    0    0  0.15226985639E+02  0.66196129790E+01  0.21517643607E+02  0.97821159811E+02  0.93969622500E+02 0.  0.
         13    1    3    3    0    0  0.12394662179E+02  0.82794870146E+01  0.58664889845E+02  0.60528984960E+02  0.10566000000E+00 0. -1.
         22    1    1    0    0    0 -0.15226985639E+02 -0.66196129790E+01 -0.21517643607E+02  0.27178840189E+02  0.00000000000E+00 0. -1.
</event>
<event>
 5    1  0.1766634E-003  0.9118800E+02  0.7818608E-02  0.1130116E+00
         25   -1    0    0    0    0  0.00000000000E+00  0.00000000000E+00  0.99999998245E-14  0.12500000000E+03  0.12500000000E+03 0.  0.
        -13    1    3    3    0    0 -0.34088709655E+02  0.44136355048E+02 -0.10199396844E+02  0.56693005061E+02  0.10566000000E+00 0. -1.
         23    2    1    0    0    0 -0.11045535565E+02  0.16407780401E+02 -0.22736341310E+02  0.94864301406E+02  0.89950404954E+02 0.  0.
         13    1    3    3    0    0  0.23043174090E+02 -0.27728574646E+02 -0.12536944466E+02  0.38171296345E+02  0.10566000000E+00 0.  1.
         22    1    1    0    0    0  0.11045535565E+02 -0.16407780401E+02  0.22736341310E+02  0.30135698594E+02  0.00000000000E+00 0. -1.
</event>
<event>
 5    1  0.1766634E-003  0.9118800E+02  0.7818608E-02  0.1130116E+00
         25   -1    0    0    0    0  0.00000000000E+00  0.00000000000E+00  0.99999998245E-14  0.12500000000E+03  0.12500000000E+03 0.  0.
        -13    1    3    3    0    0 -0.29667996610E+01  0.44392276573E+02 -0.43206813087E+02  0.62018674452E+02  0.10566000000E+00 0.  1.
         23    2    1    0    0    0  0.32916896383E+01  0.22159927930E+02 -0.17540924997E+02  0.96546851206E+02  0.92258944290E+02 0.  0.
         13    1    3    3    0    0  0.62584892993E+01 -0.22232348643E+02  0.25665888090E+02  0.34528176754E+02  0.10566000000E+00 0. -1.
         22    1    1    0    0    0 -0.32916896383E+01 -0.22159927930E+02  0.17540924997E+02  0.28453148794E+02  0.00000000000E+00 0.  1.
</event>
<event>
 5    1  0.1766634E-003  0.9118800E+02  0.7818608E-02  0.1130116E+00
         25   -1    0    0    0    0  0.00000000000E+00  0.00000000000E+00  0.99999998245E-14  0.12500000000E+03  0.12500000000E+03 0.  0.
        -13    1    3    3    0    0 -0.13816648415E+02 -0.18323398926E+02  0.31243549513E+02  0.38766187223E+02  0.10566000000E+00 0.  1.
         23    2    1    0    0    0 -0.14817087309E+02 -0.38758592352E+01 -0.24360298609E+02  0.96225141018E+02  0.91822030332E+02 0.  0.
         13    1    3    3    0    0 -0.10004388935E+01  0.14447539690E+02 -0.55603848122E+02  0.57458953794E+02  0.10566000000E+00 0. -1.
         22    1    1    0    0    0  0.14817087309E+02  0.38758592352E+01  0.24360298609E+02  0.28774858982E+02  0.00000000000E+00 0. -1.
</event>
<event>
 5    1  0.1766634E-003  0.9118800E+02  0.7818608E-02  0.1130116E+00
         25   -1    0    0    0    0  0.00000000000E+00  0.00000000000E+00  0.99999998245E-14  0.12500000000E+03  0.12500000000E+03 0.  0.
        -13    1    3    3    0    0 -0.10669965597E+02 -0.32711531591E+01  0.37645759165E+02  0.39265289455E+02  0.10566000000E+00 0. -1.
         23    2    1    0    0    0 -0.23071251861E+02  0.82707427168E+01 -0.16138590044E+02  0.95654780012E+02  0.91042270419E+02 0.  0.
         13    1    3    3    0    0 -0.12401286264E+02  0.11541895876E+02 -0.53784349209E+02  0.56389490557E+02  0.10566000000E+00 0.  1.
         22    1    1    0    0    0  0.23071251861E+02 -0.82707427168E+01  0.16138590044E+02  0.29345219988E+02  0.00000000000E+00 0.  1.
</event>
<event>
 5    1  0.1766634E-003  0.9118800E+02  0.7818608E-02  0.1130116E+00
         25   -1    0    0    0    0  0.00000000000E+00  0.00000000000E+00  0.99999998245E-14  0.12500000000E+03  0.12500000000E+03 0.  0.
        -13    1    3    3    0    0 -0.11204260569E+02  0.35456702971E+02 -0.80412034666E+01  0.38044518103E+02  0.10566000000E+00 0.  1.
         23    2    1    0    0    0  0.49334936356E+01 -0.24079299715E+01  0.30246441940E+02  0.94259395969E+02  0.89105830293E+02 0.  0.
         13    1    3    3    0    0  0.16137754204E+02 -0.37864632943E+02  0.38287645406E+02  0.56214877866E+02  0.10566000000E+00 0. -1.
         22    1    1    0    0    0 -0.49334936356E+01  0.24079299715E+01 -0.30246441940E+02  0.30740604031E+02  0.00000000000E+00 0. -1.
</event>
<event>
 5    1  0.1766634E-003  0.9118800E+02  0.7818608E-02  0.1130116E+00
         25   -1    0    0    0    0  0.00000000000E+00  0.00000000000E+00  0.99999998245E-14  0.12500000000E+03  0.12500000000E+03 0.  0.
        -13    1    3    3    0    0 -0.36202099241E+02 -0.69216502876E+01 -0.94876865512E+01  0.38059540095E+02  0.10566000000E+00 0.  1.
         23    2    1    0    0    0  0.74527742585E+01 -0.14080427869E+01  0.28077932839E+02  0.95915695966E+02  0.91399803016E+02 0.  0.
         13    1    3    3    0    0  0.43654873499E+02  0.55136075006E+01  0.37565619390E+02  0.57856155870E+02  0.10566000000E+00 0. -1.
         22    1    1    0    0    0 -0.74527742585E+01  0.14080427869E+01 -0.28077932839E+02  0.29084304034E+02  0.00000000000E+00 0. -1.
</event>
<event>
 5    1  0.1766634E-003  0.9118800E+02  0.7818608E-02  0.1130116E+00
         25   -1    0    0    0    0  0.00000000000E+00  0.00000000000E+00  0.99999998245E-14  0.12500000000E+03  0.12500000000E+03 0.  0.
        -13    1    3    3    0    0  0.58777646712E+01 -0.88475044723E+01  0.55818721224E+02  0.56820482716E+02  0.10566000000E+00 0.  1.
         23    2    1    0    0    0  0.90379200639E+01 -0.20476683150E+02  0.18741313020E+02  0.95807272042E+02  0.91251400047E+02 0.  0.
         13    1    3    3    0    0  0.31601553927E+01 -0.11629178678E+02 -0.37077408204E+02  0.38986789326E+02  0.10566000000E+00 0. -1.
         22    1    1    0    0    0 -0.90379200639E+01  0.20476683150E+02 -0.18741313020E+02  0.29192727958E+02  0.00000000000E+00 0.  1.
</event>
<event>
 5    1  0.1766634E-003  0.9118800E+02  0.7818608E-02  0.1130116E+00
         25   -1    0    0    0    0  0.00000000000E+00  0.00000000000E+00  0.99999998245E-14  0.12500000000E+03  0.12500000000E+03 0.  0.
        -13    1    3    3    0    0  0.30780014252E+02 -0.22938582689E+02  0.48324767472E+01  0.38690461986E+02  0.10566000000E+00 0.  1.
         23    2    1    0    0    0  0.53998619487E+01  0.28060460398E+02 -0.33049363230E+01  0.96234212145E+02  0.91834378291E+02 0.  0.
         13    1    3    3    0    0 -0.25380152303E+02  0.50999043088E+02 -0.81374130702E+01  0.57543750159E+02  0.10566000000E+00 0. -1.
         22    1    1    0    0    0 -0.53998619487E+01 -0.28060460398E+02  0.33049363230E+01  0.28765787855E+02  0.00000000000E+00 0. -1.
</event>
<event>
 5    1  0.1766634E-003  0.9118800E+02  0.7818608E-02  0.1130116E+00
         25   -1    0    0    0    0  0.00000000000E+00  0.00000000000E+00  0.99999998245E-14  0.12500000000E+03  0.12500000000E+03 0.  0.
        -13    1    3    3    0    0  0.37206552730E+02  0.25790339560E+02 -0.16996228878E+01  0.45303080057E+02  0.10566000000E+00 0.  1.
         23    2    1    0    0    0  0.29603391032E+01  0.17580818845E+02  0.28291436443E+02  0.91559692362E+02  0.85234518187E+02 0.  0.
         13    1    3    3    0    0 -0.34246213627E+02 -0.82095207151E+01  0.29991059331E+02  0.46256612305E+02  0.10566000000E+00 0. -1.
         22    1    1    0    0    0 -0.29603391032E+01 -0.17580818845E+02 -0.28291436443E+02  0.33440307638E+02  0.00000000000E+00 0. -1.
</event>
<event>
 5    1  0.1766634E-003  0.9118800E+02  0.7818608E-02  0.1130116E+00
         25   -1    0    0    0    0  0.00000000000E+00  0.00000000000E+00  0.99999998245E-14  0.12500000000E+03  0.12500000000E+03 0.  0.
        -13    1    3    3    0    0 -0.53671960893E+01 -0.13817460586E+02 -0.54361919610E+02  0.56346769904E+02  0.10566000000E+00 0.  1.
         23    2    1    0    0    0 -0.13961691265E+02 -0.22202114596E+02 -0.22332697295E+02  0.90552763769E+02  0.83744796509E+02 0.  0.
         13    1    3    3    0    0 -0.85944951754E+01 -0.83846540093E+01  0.32029222315E+02  0.34205993865E+02  0.10566000000E+00 0. -1.
         22    1    1    0    0    0  0.13961691265E+02  0.22202114596E+02  0.22332697295E+02  0.34447236231E+02  0.00000000000E+00 0.  1.
</event>
<event>
 5    1  0.1766634E-003  0.9118800E+02  0.7818608E-02  0.1130116E+00
         25   -1    0    0    0    0  0.00000000000E+00  0.00000000000E+00  0.99999998245E-14  0.12500000000E+03  0.12500000000E+03 0.  0.
        -13    1    3    3    0    0  0.31640156431E+02  0.13252906501E+02  0.71205013988E+00  0.34311181984E+02  0.10566000000E+00 0.  1.
         23    2    1    0    0    0 -0.27221894367E+02 -0.15427541574E+01  0.10488335360E+02  0.95786701625E+02  0.91223217474E+02 0.  0.
         13    1    3    3    0    0 -0.58862050798E+02 -0.14795660658E+02  0.97762852197E+01  0.61475519641E+02  0.10566000000E+00 0. -1.
         22    1    1    0    0    0  0.27221894367E+02  0.15427541574E+01 -0.10488335360E+02  0.29213298375E+02  0.00000000000E+00 0. -1.
</event>
<event>
 5    1  0.1766634E-003  0.9118800E+02  0.7818608E-02  0.1130116E+00
         25   -1    0    0    0    0  0.00000000000E+00  0.00000000000E+00  0.99999998245E-14  0.12500000000E+03  0.12500000000E+03 0.  0.
        -13    1    3    3    0    0  0.92030656333E+01 -0.42048242592E+02 -0.11987599813E+02  0.44681817727E+02  0.10566000000E+00 0. -1.
         23    2    1    0    0    0  0.28413691458E+02  0.29978277353E+01  0.38946571925E+01  0.96164376406E+02  0.91739272406E+02 0.  0.
         13    1    3    3    0    0  0.19210625825E+02  0.45046070327E+02  0.15882257006E+02  0.51482558679E+02  0.10566000000E+00 0.  1.
         22    1    1    0    0    0 -0.28413691458E+02 -0.29978277353E+01 -0.38946571925E+01  0.28835623594E+02  0.00000000000E+00 0.  1.
</event>
<event>
 5    1  0.1766634E-003  0.9118800E+02  0.7818608E-02  0.1130116E+00
         25   -1    0    0    0    0  0.00000000000E+00  0.00000000000E+00  0.99999998245E-14  0.12500000000E+03  0.12500000000E+03 0.  0.
        -13    1    3    3    0    0  0.29272514220E+02  0.42117249974E+01  0.21068154556E+02  0.36311114231E+02  0.10566000000E+00 0.  1.
         23    2    1    0    0    0 -0.27968116750E+02  0.53751251086E+01  0.11143800553E+02  0.94417458980E+02  0.89327290035E+02 0.  0.
         13    1    3    3    0    0 -0.57240630970E+02  0.11634001113E+01 -0.99243540025E+01  0.58106344749E+02  0.10566000000E+00 0. -1.
         22    1    1    0    0    0  0.27968116750E+02 -0.53751251086E+01 -0.11143800553E+02  0.30582541020E+02  0.00000000000E+00 0. -1.
</event>
<event>
 5    1  0.1766634E-003  0.9118800E+02  0.7818608E-02  0.1130116E+00
         25   -1    0    0    0    0  0.00000000000E+00  0.00000000000E+00  0.99999998245E-14  0.12500000000E+03  0.12500000000E+03 0.  0.
        -13    1    3    3    0    0 -0.30510319135E+02  0.19188867470E+02 -0.10883835930E+02  0.37650514699E+02  0.10566000000E+00 0.  1.
         23    2    1    0    0    0 -0.72468196758E+00 -0.18707510227E+02 -0.30109893559E+02  0.89544368670E+02  0.82225860698E+02 0.  0.
         13    1    3    3    0    0  0.29785637168E+02 -0.37896377696E+02 -0.19226057630E+02  0.51893853971E+02  0.10566000000E+00 0. -1.
         22    1    1    0    0    0  0.72468196758E+00  0.18707510227E+02  0.30109893559E+02  0.35455631330E+02  0.00000000000E+00 0. -1.
</event>
<event>
 5    1  0.1766634E-003  0.9118800E+02  0.7818608E-02  0.1130116E+00
         25   -1    0    0    0    0  0.00000000000E+00  0.00000000000E+00  0.99999998245E-14  0.12500000000E+03  0.12500000000E+03 0.  0.
        -13    1    3    3    0    0  0.15818652828E+02  0.10775820316E+02  0.40169141851E+02  0.44496283012E+02  0.10566000000E+00 0. -1.
         23    2    1    0    0    0  0.21434040644E+01 -0.27614235487E+02  0.87545092948E+01  0.95952080702E+02  0.91449549893E+02 0.  0.
         13    1    3    3    0    0 -0.13675248763E+02 -0.38390055803E+02 -0.31414632557E+02  0.51455797691E+02  0.10566000000E+00 0.  1.
         22    1    1    0    0    0 -0.21434040644E+01  0.27614235487E+02 -0.87545092948E+01  0.29047919298E+02  0.00000000000E+00 0.  1.
</event>
<event>
 5    1  0.1766634E-003  0.9118800E+02  0.7818608E-02  0.1130116E+00
         25   -1    0    0    0    0  0.00000000000E+00  0.00000000000E+00  0.99999998245E-14  0.12500000000E+03  0.12500000000E+03 0.  0.
        -13    1    3    3    0    0 -0.29347973593E+02 -0.75222859858E+01 -0.19629080594E+02  0.36099865782E+02  0.10566000000E+00 0.  1.
         23    2    1    0    0    0  0.12971122070E+02  0.24986609258E+02  0.73602739909E+01  0.95900957350E+02  0.91379643999E+02 0.  0.
         13    1    3    3    0    0  0.42319095663E+02  0.32508895244E+02  0.26989354585E+02  0.59801091567E+02  0.10566000000E+00 0. -1.
         22    1    1    0    0    0 -0.12971122070E+02 -0.24986609258E+02 -0.73602739909E+01  0.29099042650E+02  0.00000000000E+00 0. -1.
</event>
<event>
 5    1  0.1766634E-003  0.9118800E+02  0.7818608E-02  0.1130116E+00
         25   -1    0    0    0    0  0.00000000000E+00  0.00000000000E+00  0.99999998245E-14  0.12500000000E+03  0.12500000000E+03 0.  0.
        -13    1    3    3    0    0 -0.11693998715E+02 -0.63809935191E+01  0.43827464386E+02  0.45807471910E+02  0.10566000000E+00 0.  1.
         23    2    1    0    0    0 -0.13866184622E+02  0.23216085664E+02  0.96502074217E+00  0.97941009358E+02  0.94128913409E+02 0.  0.
         13    1    3    3    0    0 -0.21721859070E+01  0.29597079183E+02 -0.42862443644E+02  0.52133537449E+02  0.10566000000E+00 0. -1.
         22    1    1    0    0    0  0.13866184622E+02 -0.23216085664E+02 -0.96502074217E+00  0.27058990642E+02  0.00000000000E+00 0.  1.
</event>
<event>
 5    1  0.1766634E-003  0.9118800E+02  0.7818608E-02  0.1130116E+00
         25   -1    0    0    0    0  0.00000000000E+00  0.00000000000E+00  0.99999998245E-14  0.12500000000E+03  0.12500000000E+03 0.  0.
        -13    1    3    3    0    0 -0.25501396271E+02  0.34991039314E+02  0.14152537726E+01  0.43320989731E+02  0.10566000000E+00 0. -1.
         23    2    1    0    0    0  0.15909523600E+02  0.14859771917E+02 -0.21193869441E+02  0.94617342702E+02  0.89606560448E+02 0.  0.
         13    1    3    3    0    0  0.41410919871E+02 -0.20131267396E+02 -0.22609123214E+02  0.51296352970E+02  0.10566000000E+00 0.  1.
         22    1    1    0    0    0 -0.15909523600E+02 -0.14859771917E+02  0.21193869441E+02  0.30382657298E+02  0.00000000000E+00 0.  1.
</event>
<event>
 5    1  0.1766634E-003  0.9118800E+02  0.7818608E-02  0.1130116E+00
         25   -1    0    0    0    0  0.00000000000E+00  0.00000000000E+00  0.99999998245E-14  0.12500000000E+03  0.12500000000E+03 0.  0.
        -13    1    3    3    0    0 -0.29976091339E+02  0.20787769354E+02 -0.63009476831E+01  0.37019056072E+02  0.10566000000E+00 0.  1.
         23    2    1    0    0    0 -0.18211250946E+01 -0.14667039586E+02  0.27676161459E+02  0.93624715779E+02  0.88210991066E+02 0.  0.
         13    1    3    3    0    0  0.28154966245E+02 -0.35454808940E+02  0.33977109142E+02  0.56605659707E+02  0.10566000000E+00 0. -1.
         22    1    1    0    0    0  0.18211250946E+01  0.14667039586E+02 -0.27676161459E+02  0.31375284221E+02  0.00000000000E+00 0. -1.
</event>
<event>
 5    1  0.1766634E-003  0.9118800E+02  0.7818608E-02  0.1130116E+00
         25   -1    0    0    0    0  0.00000000000E+00  0.00000000000E+00  0.99999998245E-14  0.12500000000E+03  0.12500000000E+03 0.  0.
        -13    1    3    3    0    0 -0.51662357701E+02 -0.17377923340E+02 -0.22804754994E+02  0.59085187968E+02  0.10566000000E+00 0.  1.
         23    2    1    0    0    0 -0.22755449546E+02 -0.18043082393E+02  0.78166747230E-01  0.95959176728E+02  0.91459248751E+02 0.  0.
         13    1    3    3    0    0  0.28906908155E+02 -0.66515905229E+00  0.22882921741E+02  0.36873988760E+02  0.10566000000E+00 0. -1.
         22    1    1    0    0    0  0.22755449546E+02  0.18043082393E+02 -0.78166747230E-01  0.29040823272E+02  0.00000000000E+00 0.  1.
</event>
<event>
 5    1  0.1766634E-003  0.9118800E+02  0.7818608E-02  0.1130116E+00
         25   -1    0    0    0    0  0.00000000000E+00  0.00000000000E+00  0.99999998245E-14  0.12500000000E+03  0.12500000000E+03 0.  0.
        -13    1    3    3    0    0  0.72838371305E+01  0.12788825802E+02 -0.38240748647E+02  0.40975289747E+02  0.10566000000E+00 0. -1.
         23    2    1    0    0    0 -0.14324238697E+02 -0.24651638678E+02 -0.38193560039E+01  0.96234142043E+02  0.91834282872E+02 0.  0.
         13    1    3    3    0    0 -0.21608075828E+02 -0.37440464480E+02  0.34421392643E+02  0.55258852295E+02  0.10566000000E+00 0.  1.
         22    1    1    0    0    0  0.14324238697E+02  0.24651638678E+02  0.38193560039E+01  0.28765857957E+02  0.00000000000E+00 0.  1.
</event>
<event>
 5    1  0.1766634E-003  0.9118800E+02  0.7818608E-02  0.1130116E+00
         25   -1    0    0    0    0  0.00000000000E+00  0.00000000000E+00  0.99999998245E-14  0.12500000000E+03  0.12500000000E+03 0.  0.
        -13    1    3    3    0    0 -0.35532741175E+02 -0.20707811588E+02 -0.12638384685E+02  0.43024749710E+02  0.10566000000E+00 0. -1.
         23    2    1    0    0    0 -0.51212406127E+01  0.21842807785E+02 -0.18854617861E+02  0.95694164881E+02  0.91096329345E+02 0.  0.
         13    1    3    3    0    0  0.30411500562E+02  0.42550619373E+02 -0.62162331762E+01  0.52669415170E+02  0.10566000000E+00 0.  1.
         22    1    1    0    0    0  0.51212406127E+01 -0.21842807785E+02  0.18854617861E+02  0.29305835119E+02  0.00000000000E+00 0.  1.
</event>
<event>
 5    1  0.1766634E-003  0.9118800E+02  0.7818608E-02  0.1130116E+00
         25   -1    0    0    0    0  0.00000000000E+00  0.00000000000E+00  0.99999998245E-14  0.12500000000E+03  0.12500000000E+03 0.  0.
        -13    1    3    3    0    0 -0.66394042591E+01 -0.10678896575E+02  0.58000625502E+02  0.59348161249E+02  0.10566000000E+00 0.  1.
         23    2    1    0    0    0  0.37527493713E+01 -0.16663747105E+02  0.22967787633E+02  0.96376882347E+02  0.92028368380E+02 0.  0.
         13    1    3    3    0    0  0.10392153630E+02 -0.59848505306E+01 -0.35032837869E+02  0.37028721098E+02  0.10566000000E+00 0. -1.
         22    1    1    0    0    0 -0.37527493713E+01  0.16663747105E+02 -0.22967787633E+02  0.28623117653E+02  0.00000000000E+00 0.  1.
</event>
<event>
 5    1  0.1766634E-003  0.9118800E+02  0.7818608E-02  0.1130116E+00
         25   -1    0    0    0    0  0.00000000000E+00  0.00000000000E+00  0.99999998245E-14  0.12500000000E+03  0.12500000000E+03 0.  0.
        -13    1    3    3    0    0  0.33898403332E+02 -0.44035800406E+02 -0.63732846101E+01  0.55936422719E+02  0.10566000000E+00 0.  1.
         23    2    1    0    0    0 -0.22464154209E+01 -0.28117748442E+02 -0.86480466082E+01  0.95496731201E+02  0.90825011975E+02 0.  0.
         13    1    3    3    0    0 -0.36144818752E+02  0.15918051964E+02 -0.22747619981E+01  0.39560308482E+02  0.10566000000E+00 0. -1.
         22    1    1    0    0    0  0.22464154209E+01  0.28117748442E+02  0.86480466082E+01  0.29503268799E+02  0.00000000000E+00 0.  1.
</event>
<event>
 5    1  0.1766634E-003  0.9118800E+02  0.7818608E-02  0.1130116E+00
         25   -1    0    0    0    0  0.00000000000E+00  0.00000000000E+00  0.99999998245E-14  0.12500000000E+03  0.12500000000E+03 0.  0.
        -13    1    3    3    0    0 -0.18517342614E+02 -0.23749065413E+02  0.17028836737E+02  0.34596279137E+02  0.10566000000E+00 0. -1.
         23    2    1    0    0    0  0.15129126980E+02  0.23758486974E+01 -0.25796519936E+02  0.95000073650E+02  0.90138884021E+02 0.  0.
         13    1    3    3    0    0  0.33646469594E+02  0.26124914110E+02 -0.42825356673E+02  0.60403794513E+02  0.10566000000E+00 0.  1.
         22    1    1    0    0    0 -0.15129126980E+02 -0.23758486974E+01  0.25796519936E+02  0.29999926350E+02  0.00000000000E+00 0.  1.
</event>
<event>
 5    1  0.1766634E-003  0.9118800E+02  0.7818608E-02  0.1130116E+00
         25   -1    0    0    0    0  0.00000000000E+00  0.00000000000E+00  0.99999998245E-14  0.12500000000E+03  0.12500000000E+03 0.  0.
        -13    1    3    3    0    0  0.11155770466E+02 -0.40571998399E+02  0.35721059743E+01  0.42229247849E+02  0.10566000000E+00 0.  1.
         23    2    1    0    0    0 -0.25891429559E+02 -0.50029016454E+01 -0.12185355742E+02  0.95950420932E+02  0.91447281168E+02 0.  0.
         13    1    3    3    0    0 -0.37047200025E+02  0.35569096754E+02 -0.15757461716E+02  0.53721173082E+02  0.10566000000E+00 0. -1.
         22    1    1    0    0    0  0.25891429559E+02  0.50029016454E+01  0.12185355742E+02  0.29049579068E+02  0.00000000000E+00 0. -1.
</event>
<event>
 5    1  0.1766634E-003  0.9118800E+02  0.7818608E-02  0.1130116E+00
         25   -1    0    0    0    0  0.00000000000E+00  0.00000000000E+00  0.99999998245E-14  0.12500000000E+03  0.12500000000E+03 0.  0.
        -13    1    3    3    0    0  0.46530417821E+02 -0.23619343709E+02 -0.27384283205E+02  0.58931004662E+02  0.10566000000E+00 0.  1.
         23    2    1    0    0    0  0.10908868708E+02 -0.20108598412E+02 -0.17877205928E+02  0.95966336118E+02  0.91469033173E+02 0.  0.
         13    1    3    3    0    0 -0.35621549112E+02  0.35107452964E+01  0.95070772769E+01  0.37035331456E+02  0.10566000000E+00 0. -1.
         22    1    1    0    0    0 -0.10908868708E+02  0.20108598412E+02  0.17877205928E+02  0.29033663882E+02  0.00000000000E+00 0.  1.
</event>
<event>
 5    1  0.1766634E-003  0.9118800E+02  0.7818608E-02  0.1130116E+00
         25   -1    0    0    0    0  0.00000000000E+00  0.00000000000E+00  0.99999998245E-14  0.12500000000E+03  0.12500000000E+03 0.  0.
        -13    1    3    3    0    0 -0.14942653644E+02 -0.10370352886E+02 -0.39456904905E+02  0.43447504251E+02  0.10566000000E+00 0.  1.
         23    2    1    0    0    0 -0.10681741239E+02 -0.25223692548E+02  0.10442483894E+02  0.95684820800E+02  0.91083506739E+02 0.  0.
         13    1    3    3    0    0  0.42609124042E+01 -0.14853339662E+02  0.49899388799E+02  0.52237316549E+02  0.10566000000E+00 0. -1.
         22    1    1    0    0    0  0.10681741239E+02  0.25223692548E+02 -0.10442483894E+02  0.29315179200E+02  0.00000000000E+00 0. -1.
</event>
<event>
 5    1  0.1766634E-003  0.9118800E+02  0.7818608E-02  0.1130116E+00
         25   -1    0    0    0    0  0.00000000000E+00  0.00000000000E+00  0.99999998245E-14  0.12500000000E+03  0.12500000000E+03 0.  0.
        -13    1    3    3    0    0  0.55355662130E+02  0.10437430126E+02  0.18858578148E+02  0.59404094230E+02  0.10566000000E+00 0.  1.
         23    2    1    0    0    0  0.22195964847E+02 -0.60650801306E+01  0.16817474482E+02  0.96499587715E+02  0.92194885589E+02 0.  0.
         13    1    3    3    0    0 -0.33159697283E+02 -0.16502510257E+02 -0.20411036666E+01  0.37095493485E+02  0.10566000000E+00 0. -1.
         22    1    1    0    0    0 -0.22195964847E+02  0.60650801306E+01 -0.16817474482E+02  0.28500412285E+02  0.00000000000E+00 0.  1.
</event>
<event>
 5    1  0.1766634E-003  0.9118800E+02  0.7818608E-02  0.1130116E+00
         25   -1    0    0    0    0  0.00000000000E+00  0.00000000000E+00  0.99999998245E-14  0.12500000000E+03  0.12500000000E+03 0.  0.
        -13    1    3    3    0    0 -0.74399180809E+01  0.36014141515E+02  0.39102863688E+02  0.53678821548E+02  0.10566000000E+00 0. -1.
         23    2    1    0    0    0 -0.32013728137E+01 -0.36985908578E+01  0.29950698939E+02  0.94652467495E+02  0.89655545694E+02 0.  0.
         13    1    3    3    0    0  0.42385452672E+01 -0.39712732373E+02 -0.91521647489E+01  0.40973645947E+02  0.10566000000E+00 0.  1.
         22    1    1    0    0    0  0.32013728137E+01  0.36985908578E+01 -0.29950698939E+02  0.30347532505E+02  0.00000000000E+00 0. -1.
</event>
<event>
 5    1  0.1766634E-003  0.9118800E+02  0.7818608E-02  0.1130116E+00
         25   -1    0    0    0    0  0.00000000000E+00  0.00000000000E+00  0.99999998245E-14  0.12500000000E+03  0.12500000000E+03 0.  0.
        -13    1    3    3    0    0 -0.42465899957E+02  0.27835076096E+02  0.24058607139E+02  0.56186936756E+02  0.10566000000E+00 0.  1.
         23    2    1    0    0    0 -0.10451100582E+02  0.51510408593E+01  0.27059787068E+02  0.95538316385E+02  0.90882226514E+02 0.  0.
         13    1    3    3    0    0  0.32014799376E+02 -0.22684035237E+02  0.30011799287E+01  0.39351379629E+02  0.10566000000E+00 0. -1.
         22    1    1    0    0    0  0.10451100582E+02 -0.51510408593E+01 -0.27059787068E+02  0.29461683615E+02  0.00000000000E+00 0.  1.
</event>
<event>
 5    1  0.1766634E-003  0.9118800E+02  0.7818608E-02  0.1130116E+00
         25   -1    0    0    0    0  0.00000000000E+00  0.00000000000E+00  0.99999998245E-14  0.12500000000E+03  0.12500000000E+03 0.  0.
        -13    1    3    3    0    0 -0.33926600397E+02  0.97841207708E+01 -0.74581678069E+01  0.36088483825E+02  0.10566000000E+00 0. -1.
         23    2    1    0    0    0  0.11810300562E+02 -0.27207450911E+02 -0.37402062183E+00  0.95337422973E+02  0.90605495105E+02 0.  0.
         13    1    3    3    0    0  0.45736900958E+02 -0.36991571682E+02  0.70841471851E+01  0.59248939148E+02  0.10566000000E+00 0.  1.
         22    1    1    0    0    0 -0.11810300562E+02  0.27207450911E+02  0.37402062183E+00  0.29662577027E+02  0.00000000000E+00 0.  1.
</event>
<event>
 5    1  0.1766634E-003  0.9118800E+02  0.7818608E-02  0.1130116E+00
         25   -1    0    0    0    0  0.00000000000E+00  0.00000000000E+00  0.99999998245E-14  0.12500000000E+03  0.12500000000E+03 0.  0.
        -13    1    3    3    0    0 -0.51004659252E+01  0.19904043622E+02 -0.34582313583E+02  0.40226027420E+02  0.10566000000E+00 0. -1.
         23    2    1    0    0    0 -0.17457179202E+02 -0.23629746662E+02 -0.28779477907E+01  0.95480504468E+02  0.90802676816E+02 0.  0.
         13    1    3    3    0    0 -0.12356713277E+02 -0.43533790284E+02  0.31704365792E+02  0.55254477048E+02  0.10566000000E+00 0.  1.
         22    1    1    0    0    0  0.17457179202E+02  0.23629746662E+02  0.28779477907E+01  0.29519495532E+02  0.00000000000E+00 0.  1.
</event>
<event>
 5    1  0.1766634E-003  0.9118800E+02  0.7818608E-02  0.1130116E+00
         25   -1    0    0    0    0  0.00000000000E+00  0.00000000000E+00  0.99999998245E-14  0.12500000000E+03  0.12500000000E+03 0.  0.
        -13    1    3    3    0    0  0.18971425065E+02 -0.14910855168E+02  0.47715707514E+02  0.53470070867E+02  0.10566000000E+00 0.  1.
         23    2    1    0    0    0  0.46195104495E+01  0.17114670452E+02  0.20620042653E+02  0.97807391069E+02  0.93951305298E+02 0.  0.
         13    1    3    3    0    0 -0.14351914616E+02  0.32025525620E+02 -0.27095664861E+02  0.44337320202E+02  0.10566000000E+00 0. -1.
         22    1    1    0    0    0 -0.46195104495E+01 -0.17114670452E+02 -0.20620042653E+02  0.27192608931E+02  0.00000000000E+00 0.  1.
</event>
<event>
 5    1  0.1766634E-003  0.9118800E+02  0.7818608E-02  0.1130116E+00
         25   -1    0    0    0    0  0.00000000000E+00  0.00000000000E+00  0.99999998245E-14  0.12500000000E+03  0.12500000000E+03 0.  0.
        -13    1    3    3    0    0  0.30894710587E+02  0.79311802100E+00  0.50698502136E+02  0.59375596513E+02  0.10566000000E+00 0. -1.
         23    2    1    0    0    0  0.20921746079E+02 -0.10657994705E+02  0.18046622120E+02  0.95385934422E+02  0.90672397154E+02 0.  0.
         13    1    3    3    0    0 -0.99729645079E+01 -0.11451112726E+02 -0.32651880016E+02  0.36010337909E+02  0.10566000000E+00 0.  1.
         22    1    1    0    0    0 -0.20921746079E+02  0.10657994705E+02 -0.18046622120E+02  0.29614065578E+02  0.00000000000E+00 0. -1.
</event>
<event>
 5    1  0.1766634E-003  0.9118800E+02  0.7818608E-02  0.1130116E+00
         25   -1    0    0    0    0  0.00000000000E+00  0.00000000000E+00  0.99999998245E-14  0.12500000000E+03  0.12500000000E+03 0.  0.
        -13    1    3    3    0    0  0.18936088558E+02  0.12961529721E+02  0.25035162502E+02  0.33960966242E+02  0.10566000000E+00 0.  1.
         23    2    1    0    0    0 -0.16042733553E+02 -0.23330898599E+01 -0.23958309409E+02  0.96072276310E+02  0.91613694814E+02 0.  0.
         13    1    3    3    0    0 -0.34978822110E+02 -0.15294619581E+02 -0.48993471911E+02  0.62111310068E+02  0.10566000000E+00 0. -1.
         22    1    1    0    0    0  0.16042733553E+02  0.23330898599E+01  0.23958309409E+02  0.28927723690E+02  0.00000000000E+00 0. -1.
</event>
<event>
 5    1  0.1766634E-003  0.9118800E+02  0.7818608E-02  0.1130116E+00
         25   -1    0    0    0    0  0.00000000000E+00  0.00000000000E+00  0.99999998245E-14  0.12500000000E+03  0.12500000000E+03 0.  0.
        -13    1    3    3    0    0 -0.28642468389E+02  0.19108579694E+00  0.16788165526E+02  0.33200620099E+02  0.10566000000E+00 0. -1.
         23    2    1    0    0    0  0.15690842349E+02  0.98563589122E+01 -0.24318374942E+02  0.94426585005E+02  0.89340059611E+02 0.  0.
         13    1    3    3    0    0  0.44333310738E+02  0.96652731153E+01 -0.41106540468E+02  0.61225964906E+02  0.10566000000E+00 0.  1.
         22    1    1    0    0    0 -0.15690842349E+02 -0.98563589122E+01  0.24318374942E+02  0.30573414995E+02  0.00000000000E+00 0.  1.
</event>
<event>
 5    1  0.1766634E-003  0.9118800E+02  0.7818608E-02  0.1130116E+00
         25   -1    0    0    0    0  0.00000000000E+00  0.00000000000E+00  0.99999998245E-14  0.12500000000E+03  0.12500000000E+03 0.  0.
        -13    1    3    3    0    0 -0.27765558080E+02  0.18859494255E+02 -0.44658628244E+02  0.55866009162E+02  0.10566000000E+00 0. -1.
         23    2    1    0    0    0  0.60956032548E+01  0.15668553127E+01 -0.26056702239E+02  0.98193971831E+02  0.94464241688E+02 0.  0.
         13    1    3    3    0    0  0.33861161335E+02 -0.17292638942E+02  0.18601926004E+02  0.42327962669E+02  0.10566000000E+00 0.  1.
         22    1    1    0    0    0 -0.60956032548E+01 -0.15668553127E+01  0.26056702239E+02  0.26806028169E+02  0.00000000000E+00 0. -1.
</event>
<event>
 5    1  0.1766634E-003  0.9118800E+02  0.7818608E-02  0.1130116E+00
         25   -1    0    0    0    0  0.00000000000E+00  0.00000000000E+00  0.99999998245E-14  0.12500000000E+03  0.12500000000E+03 0.  0.
        -13    1    3    3    0    0  0.14761987552E+02  0.11377573221E+02  0.30363687483E+02  0.35627659627E+02  0.10566000000E+00 0. -1.
         23    2    1    0    0    0  0.91939353162E+01 -0.21596892133E+02 -0.18689685783E+02  0.94995691125E+02  0.90132806354E+02 0.  0.
         13    1    3    3    0    0 -0.55680522360E+01 -0.32974465354E+02 -0.49053373267E+02  0.59368031498E+02  0.10566000000E+00 0.  1.
         22    1    1    0    0    0 -0.91939353162E+01  0.21596892133E+02  0.18689685783E+02  0.30004308875E+02  0.00000000000E+00 0.  1.
</event>
<event>
 5    1  0.1766634E-003  0.9118800E+02  0.7818608E-02  0.1130116E+00
         25   -1    0    0    0    0  0.00000000000E+00  0.00000000000E+00  0.99999998245E-14  0.12500000000E+03  0.12500000000E+03 0.  0.
        -13    1    3    3    0    0  0.37739838988E+02  0.11257449458E+02  0.11969596238E+02  0.41161972903E+02  0.10566000000E+00 0.  1.
         23    2    1    0    0    0 -0.16355706061E+01 -0.26856137360E+02  0.10892390493E+02  0.95972919958E+02  0.91478030092E+02 0.  0.
         13    1    3    3    0    0 -0.39375409594E+02 -0.38113586818E+02 -0.10772057451E+01  0.54810947055E+02  0.10566000000E+00 0. -1.
         22    1    1    0    0    0  0.16355706061E+01  0.26856137360E+02 -0.10892390493E+02  0.29027080042E+02  0.00000000000E+00 0. -1.
</event>
<event>
 5    1  0.1766634E-003  0.9118800E+02  0.7818608E-02  0.1130116E+00
         25   -1    0    0    0    0  0.00000000000E+00  0.00000000000E+00  0.99999998245E-14  0.12500000000E+03  0.12500000000E+03 0.  0.
        -13    1    3    3    0    0 -0.75102155771E+01 -0.11554064933E+02 -0.36861337736E+02  0.39353133779E+02  0.10566000000E+00 0. -1.
         23    2    1    0    0    0 -0.24298280410E+02 -0.79222587072E+01  0.15940861418E+02  0.94878916410E+02  0.89970712471E+02 0.  0.
         13    1    3    3    0    0 -0.16788064832E+02  0.36318062263E+01  0.52802199154E+02  0.55525782631E+02  0.10566000000E+00 0.  1.
         22    1    1    0    0    0  0.24298280410E+02  0.79222587072E+01 -0.15940861418E+02  0.30121083590E+02  0.00000000000E+00 0.  1.
</event>
<event>
 5    1  0.1766634E-003  0.9118800E+02  0.7818608E-02  0.1130116E+00
         25   -1    0    0    0    0  0.00000000000E+00  0.00000000000E+00  0.99999998245E-14  0.12500000000E+03  0.12500000000E+03 0.  0.
        -13    1    3    3    0    0 -0.38209139195E+02 -0.20019998279E+02 -0.17744972513E+02  0.46643690491E+02  0.10566000000E+00 0.  1.
         23    2    1    0    0    0 -0.56734928253E+01 -0.26423850607E+02  0.15703004605E+02  0.93743116672E+02  0.88378612617E+02 0.  0.
         13    1    3    3    0    0  0.32535646369E+02 -0.64038523279E+01  0.33447977118E+02  0.47099426182E+02  0.10566000000E+00 0. -1.
         22    1    1    0    0    0  0.56734928253E+01  0.26423850607E+02 -0.15703004605E+02  0.31256883328E+02  0.00000000000E+00 0. -1.
</event>
<event>
 5    1  0.1766634E-003  0.9118800E+02  0.7818608E-02  0.1130116E+00
         25   -1    0    0    0    0  0.00000000000E+00  0.00000000000E+00  0.99999998245E-14  0.12500000000E+03  0.12500000000E+03 0.  0.
        -13    1    3    3    0    0  0.15887229845E+02 -0.39038388213E+02 -0.15628987234E+02  0.44951932466E+02  0.10566000000E+00 0.  1.
         23    2    1    0    0    0 -0.17600045513E+02 -0.12706217658E+02  0.16019271354E+02  0.98021737937E+02  0.94236057240E+02 0.  0.
         13    1    3    3    0    0 -0.33487275358E+02  0.26332170555E+02  0.31648258588E+02  0.53069805471E+02  0.10566000000E+00 0. -1.
         22    1    1    0    0    0  0.17600045513E+02  0.12706217658E+02 -0.16019271354E+02  0.26978262063E+02  0.00000000000E+00 0. -1.
</event>
<event>
 5    1  0.1766634E-003  0.9118800E+02  0.7818608E-02  0.1130116E+00
         25   -1    0    0    0    0  0.00000000000E+00  0.00000000000E+00  0.99999998245E-14  0.12500000000E+03  0.12500000000E+03 0.  0.
        -13    1    3    3    0    0 -0.35771252902E+02  0.75842513911E+01  0.14993200597E+02  0.39521015062E+02  0.10566000000E+00 0. -1.
         23    2    1    0    0    0  0.64136396443E+01 -0.28141815262E+02  0.57669777401E+01  0.95566098254E+02  0.90920429846E+02 0.  0.
         13    1    3    3    0    0  0.42184892547E+02 -0.35726066653E+02 -0.92262228571E+01  0.56045083192E+02  0.10566000000E+00 0.  1.
         22    1    1    0    0    0 -0.64136396443E+01  0.28141815262E+02 -0.57669777401E+01  0.29433901746E+02  0.00000000000E+00 0.  1.
</event>
<event>
 5    1  0.1766634E-003  0.9118800E+02  0.7818608E-02  0.1130116E+00
         25   -1    0    0    0    0  0.00000000000E+00  0.00000000000E+00  0.99999998245E-14  0.12500000000E+03  0.12500000000E+03 0.  0.
        -13    1    3    3    0    0 -0.22470815863E+02  0.12647716414E+02 -0.24026244087E+02  0.35244487016E+02  0.10566000000E+00 0.  1.
         23    2    1    0    0    0  0.20671390181E+02 -0.13976557252E+02  0.11875052840E+02  0.97365467173E+02  0.93361484527E+02 0.  0.
         13    1    3    3    0    0  0.43142206044E+02 -0.26624273666E+02  0.35901296927E+02  0.62120980157E+02  0.10566000000E+00 0. -1.
         22    1    1    0    0    0 -0.20671390181E+02  0.13976557252E+02 -0.11875052840E+02  0.27634532827E+02  0.00000000000E+00 0. -1.
</event>
<event>
 5    1  0.1766634E-003  0.9118800E+02  0.7818608E-02  0.1130116E+00
         25   -1    0    0    0    0  0.00000000000E+00  0.00000000000E+00  0.99999998245E-14  0.12500000000E+03  0.12500000000E+03 0.  0.
        -13    1    3    3    0    0 -0.31203904536E+02  0.19297328725E+02  0.13177447585E+02  0.38983674059E+02  0.10566000000E+00 0.  1.
         23    2    1    0    0    0  0.15780852294E+02  0.19012899374E+02 -0.17164086097E+02  0.94914596674E+02  0.90020270876E+02 0.  0.
         13    1    3    3    0    0  0.46984756830E+02 -0.28442935100E+00 -0.30341533682E+02  0.55930922615E+02  0.10566000000E+00 0. -1.
         22    1    1    0    0    0 -0.15780852294E+02 -0.19012899374E+02  0.17164086097E+02  0.30085403326E+02  0.00000000000E+00 0. -1.
</event>
<event>
 5    1  0.1766634E-003  0.9118800E+02  0.7818608E-02  0.1130116E+00
         25   -1    0    0    0    0  0.00000000000E+00  0.00000000000E+00  0.99999998245E-14  0.12500000000E+03  0.12500000000E+03 0.  0.
        -13    1    3    3    0    0  0.10753981361E+02  0.43419907051E+02 -0.12459950851E+01  0.44749302914E+02  0.10566000000E+00 0. -1.
         23    2    1    0    0    0  0.20976463179E+02 -0.51821624393E+01  0.16840147166E+02  0.97605522972E+02  0.93682339547E+02 0.  0.
         13    1    3    3    0    0  0.10222481818E+02 -0.48602069491E+02  0.18086142251E+02  0.52856220058E+02  0.10566000000E+00 0.  1.
         22    1    1    0    0    0 -0.20976463179E+02  0.51821624393E+01 -0.16840147166E+02  0.27394477028E+02  0.00000000000E+00 0.  1.
</event>
<event>
 5    1  0.1766634E-003  0.9118800E+02  0.7818608E-02  0.1130116E+00
         25   -1    0    0    0    0  0.00000000000E+00  0.00000000000E+00  0.99999998245E-14  0.12500000000E+03  0.12500000000E+03 0.  0.
        -13    1    3    3    0    0  0.41174708954E+01 -0.32993435461E+02  0.42967324793E+02  0.54329757169E+02  0.10566000000E+00 0.  1.
         23    2    1    0    0    0  0.18052509011E+02 -0.22578955762E+02  0.55920467332E+01  0.95555589468E+02  0.90905980921E+02 0.  0.
         13    1    3    3    0    0  0.13935038115E+02  0.10414479699E+02 -0.37375278060E+02  0.41225832299E+02  0.10566000000E+00 0. -1.
         22    1    1    0    0    0 -0.18052509011E+02  0.22578955762E+02 -0.55920467332E+01  0.29444410532E+02  0.00000000000E+00 0. -1.
</event>
<event>
 5    1  0.1766634E-003  0.9118800E+02  0.7818608E-02  0.1130116E+00
         25   -1    0    0    0    0  0.00000000000E+00  0.00000000000E+00  0.99999998245E-14  0.12500000000E+03  0.12500000000E+03 0.  0.
        -13    1    3    3    0    0  0.35432586957E+02  0.14434684253E+02 -0.16456841154E+01  0.38295531961E+02  0.10566000000E+00 0.  1.
         23    2    1    0    0    0 -0.71852106927E+01 -0.17579180320E+02  0.21418947061E+02  0.96374379891E+02  0.92024969289E+02 0.  0.
         13    1    3    3    0    0 -0.42617797650E+02 -0.32013864573E+02  0.23064631177E+02  0.58078847929E+02  0.10566000000E+00 0. -1.
         22    1    1    0    0    0  0.71852106927E+01  0.17579180320E+02 -0.21418947061E+02  0.28625620109E+02  0.00000000000E+00 0. -1.
</event>
<event>
 5    1  0.1766634E-003  0.9118800E+02  0.7818608E-02  0.1130116E+00
         25   -1    0    0    0    0  0.00000000000E+00  0.00000000000E+00  0.99999998245E-14  0.12500000000E+03  0.12500000000E+03 0.  0.
        -13    1    3    3    0    0  0.48544953089E+02 -0.69608660582E+01  0.34769329745E+02  0.60116416906E+02  0.10566000000E+00 0.  1.
         23    2    1    0    0    0  0.21462711420E+02 -0.14813725614E+02  0.12328722673E+02  0.96153997663E+02  0.91725129686E+02 0.  0.
         13    1    3    3    0    0 -0.27082241669E+02 -0.78528595560E+01 -0.22440607072E+02  0.36037580757E+02  0.10566000000E+00 0. -1.
         22    1    1    0    0    0 -0.21462711420E+02  0.14813725614E+02 -0.12328722673E+02  0.28846002337E+02  0.00000000000E+00 0.  1.
</event>
<event>
 5    1  0.1766634E-003  0.9118800E+02  0.7818608E-02  0.1130116E+00
         25   -1    0    0    0    0  0.00000000000E+00  0.00000000000E+00  0.99999998245E-14  0.12500000000E+03  0.12500000000E+03 0.  0.
        -13    1    3    3    0    0  0.69448943585E+01  0.61247702536E+02  0.68495132575E+01  0.62019671230E+02  0.10566000000E+00 0. -1.
         23    2    1    0    0    0  0.70771150828E+01  0.28798345799E+02 -0.70178991268E+00  0.95336507492E+02  0.90604232093E+02 0.  0.
         13    1    3    3    0    0  0.13222072427E+00 -0.32449356737E+02 -0.75513031702E+01  0.33316836262E+02  0.10566000000E+00 0.  1.
         22    1    1    0    0    0 -0.70771150828E+01 -0.28798345799E+02  0.70178991268E+00  0.29663492508E+02  0.00000000000E+00 0. -1.
</event>
<event>
 5    1  0.1766634E-003  0.9118800E+02  0.7818608E-02  0.1130116E+00
         25   -1    0    0    0    0  0.00000000000E+00  0.00000000000E+00  0.99999998245E-14  0.12500000000E+03  0.12500000000E+03 0.  0.
        -13    1    3    3    0    0 -0.56537786667E+02 -0.18163755162E+02  0.13685325360E+02  0.60940484220E+02  0.10566000000E+00 0.  1.
         23    2    1    0    0    0 -0.22799366228E+02  0.25978391316E+01  0.57789631375E+01  0.10133660457E+03  0.98535024947E+02 0.  0.
         13    1    3    3    0    0  0.33738420439E+02  0.20761594294E+02 -0.79063622226E+01  0.40396120345E+02  0.10566000000E+00 0. -1.
         22    1    1    0    0    0  0.22799366228E+02 -0.25978391316E+01 -0.57789631375E+01  0.23663395435E+02  0.00000000000E+00 0.  1.
</event>
<event>
 5    1  0.1766634E-003  0.9118800E+02  0.7818608E-02  0.1130116E+00
         25   -1    0    0    0    0  0.00000000000E+00  0.00000000000E+00  0.99999998245E-14  0.12500000000E+03  0.12500000000E+03 0.  0.
        -13    1    3    3    0    0 -0.13546616069E+02 -0.35171759023E+02 -0.21264175567E+02  0.43275163388E+02  0.10566000000E+00 0.  1.
         23    2    1    0    0    0 -0.24535532007E+02 -0.12828350862E+00  0.16089354104E+02  0.95659309773E+02  0.91048489516E+02 0.  0.
         13    1    3    3    0    0 -0.10988915938E+02  0.35043475514E+02  0.37353529671E+02  0.52384146385E+02  0.10566000000E+00 0. -1.
         22    1    1    0    0    0  0.24535532007E+02  0.12828350862E+00 -0.16089354104E+02  0.29340690227E+02  0.00000000000E+00 0. -1.
</event>
<event>
 5    1  0.1766634E-003  0.9118800E+02  0.7818608E-02  0.1130116E+00
         25   -1    0    0    0    0  0.00000000000E+00  0.00000000000E+00  0.99999998245E-14  0.12500000000E+03  0.12500000000E+03 0.  0.
        -13    1    3    3    0    0  0.38092725984E+02  0.25236436568E+02 -0.90605850541E+00  0.45703015323E+02  0.10566000000E+00 0. -1.
         23    2    1    0    0    0  0.16755640999E+02 -0.18246384092E+02 -0.14864277016E+02  0.96110057651E+02  0.91665230119E+02 0.  0.
         13    1    3    3    0    0 -0.21337084985E+02 -0.43482820660E+02 -0.13958218511E+02  0.50407042328E+02  0.10566000000E+00 0.  1.
         22    1    1    0    0    0 -0.16755640999E+02  0.18246384092E+02  0.14864277016E+02  0.28889942349E+02  0.00000000000E+00 0.  1.
</event>
<event>
 5    1  0.1766634E-003  0.9118800E+02  0.7818608E-02  0.1130116E+00
         25   -1    0    0    0    0  0.00000000000E+00  0.00000000000E+00  0.99999998245E-14  0.12500000000E+03  0.12500000000E+03 0.  0.
        -13    1    3    3    0    0  0.28032390082E+02 -0.17806319888E+02 -0.23557035167E+02  0.40716397085E+02  0.10566000000E+00 0. -1.
         23    2    1    0    0    0  0.20868410522E+02  0.20226657613E+02  0.12268391350E+02  0.93454450992E+02  0.87969385288E+02 0.  0.
         13    1    3    3    0    0 -0.71639795601E+01  0.38032977502E+02  0.35825426516E+02  0.52738053907E+02  0.10566000000E+00 0.  1.
         22    1    1    0    0    0 -0.20868410522E+02 -0.20226657613E+02 -0.12268391350E+02  0.31545549008E+02  0.00000000000E+00 0.  1.
</event>
<event>
 5    1  0.1766634E-003  0.9118800E+02  0.7818608E-02  0.1130116E+00
         25   -1    0    0    0    0  0.00000000000E+00  0.00000000000E+00  0.99999998245E-14  0.12500000000E+03  0.12500000000E+03 0.  0.
        -13    1    3    3    0    0 -0.32141385989E+02 -0.84240837762E+01  0.56908212292E+01  0.33710984724E+02  0.10566000000E+00 0. -1.
         23    2    1    0    0    0  0.29227654226E+02 -0.42364658121E+01  0.21434299367E+00  0.95466132033E+02  0.90782889403E+02 0.  0.
         13    1    3    3    0    0  0.61369040216E+02  0.41876179641E+01 -0.54764782355E+01  0.61755147309E+02  0.10566000000E+00 0.  1.
         22    1    1    0    0    0 -0.29227654226E+02  0.42364658121E+01 -0.21434299367E+00  0.29533867967E+02  0.00000000000E+00 0.  1.
</event>
<event>
 5    1  0.1766634E-003  0.9118800E+02  0.7818608E-02  0.1130116E+00
         25   -1    0    0    0    0  0.00000000000E+00  0.00000000000E+00  0.99999998245E-14  0.12500000000E+03  0.12500000000E+03 0.  0.
        -13    1    3    3    0    0  0.41085620974E+02  0.35979920546E+02 -0.24918958507E+02  0.60029564303E+02  0.10566000000E+00 0.  1.
         23    2    1    0    0    0  0.93393048604E+01  0.23650388686E+02 -0.14895757288E+02  0.95530573717E+02  0.90871576575E+02 0.  0.
         13    1    3    3    0    0 -0.31746316114E+02 -0.12329531861E+02  0.10023201218E+02  0.35501009414E+02  0.10566000000E+00 0. -1.
         22    1    1    0    0    0 -0.93393048604E+01 -0.23650388686E+02  0.14895757288E+02  0.29469426283E+02  0.00000000000E+00 0.  1.
</event>
<event>
 5    1  0.1766634E-003  0.9118800E+02  0.7818608E-02  0.1130116E+00
         25   -1    0    0    0    0  0.00000000000E+00  0.00000000000E+00  0.99999998245E-14  0.12500000000E+03  0.12500000000E+03 0.  0.
        -13    1    3    3    0    0  0.14118560170E+02 -0.60281619029E+02  0.11514688591E+01  0.61923698037E+02  0.10566000000E+00 0. -1.
         23    2    1    0    0    0  0.10271626179E+02 -0.28622693911E+02  0.54548212154E+01  0.94104693146E+02  0.88888544181E+02 0.  0.
         13    1    3    3    0    0 -0.38469339909E+01  0.31658925117E+02  0.43033523563E+01  0.32180995110E+02  0.10566000000E+00 0.  1.
         22    1    1    0    0    0 -0.10271626179E+02  0.28622693911E+02 -0.54548212154E+01  0.30895306854E+02  0.00000000000E+00 0. -1.
</event>
<event>
 5    1  0.1766634E-003  0.9118800E+02  0.7818608E-02  0.1130116E+00
         25   -1    0    0    0    0  0.00000000000E+00  0.00000000000E+00  0.99999998245E-14  0.12500000000E+03  0.12500000000E+03 0.  0.
        -13    1    3    3    0    0 -0.14194909193E+02 -0.19942007811E+02  0.26256445476E+02  0.35896952735E+02  0.10566000000E+00 0. -1.
         23    2    1    0    0    0 -0.23909041643E+02 -0.78516849336E+01 -0.25047548321E+02  0.89494072248E+02  0.82149364344E+02 0.  0.
         13    1    3    3    0    0 -0.97141324498E+01  0.12090322878E+02 -0.51303993798E+02  0.53597119514E+02  0.10566000000E+00 0.  1.
         22    1    1    0    0    0  0.23909041643E+02  0.78516849336E+01  0.25047548321E+02  0.35505927752E+02  0.00000000000E+00 0.  1.
</event>
<event>
 5    1  0.1766634E-003  0.9118800E+02  0.7818608E-02  0.1130116E+00
         25   -1    0    0    0    0  0.00000000000E+00  0.00000000000E+00  0.99999998245E-14  0.12500000000E+03  0.12500000000E+03 0.  0.
        -13    1    3    3    0    0  0.34175327639E+02 -0.35422302565E+02 -0.18731835341E+02  0.52664839861E+02  0.10566000000E+00 0. -1.
         23    2    1    0    0    0 -0.72843061047E+01 -0.25499783674E+02 -0.12258270247E+02  0.95784160592E+02  0.91219735518E+02 0.  0.
         13    1    3    3    0    0 -0.41459633743E+02  0.99225188908E+01  0.64735650948E+01  0.43119320732E+02  0.10566000000E+00 0.  1.
         22    1    1    0    0    0  0.72843061047E+01  0.25499783674E+02  0.12258270247E+02  0.29215839408E+02  0.00000000000E+00 0. -1.
</event>
<event>
 5    1  0.1766634E-003  0.9118800E+02  0.7818608E-02  0.1130116E+00
         25   -1    0    0    0    0  0.00000000000E+00  0.00000000000E+00  0.99999998245E-14  0.12500000000E+03  0.12500000000E+03 0.  0.
        -13    1    3    3    0    0 -0.17292161433E+01  0.35540609134E+02 -0.15688512801E+02  0.38887860369E+02  0.10566000000E+00 0.  1.
         23    2    1    0    0    0 -0.10247124730E+02 -0.19767401983E+02 -0.20076317730E+02  0.95019801869E+02  0.90166237956E+02 0.  0.
         13    1    3    3    0    0 -0.85179085870E+01 -0.55308011117E+02 -0.43878049289E+01  0.56131941500E+02  0.10566000000E+00 0. -1.
         22    1    1    0    0    0  0.10247124730E+02  0.19767401983E+02  0.20076317730E+02  0.29980198131E+02  0.00000000000E+00 0. -1.
</event>
<event>
 5    1  0.1766634E-003  0.9118800E+02  0.7818608E-02  0.1130116E+00
         25   -1    0    0    0    0  0.00000000000E+00  0.00000000000E+00  0.99999998245E-14  0.12500000000E+03  0.12500000000E+03 0.  0.
        -13    1    3    3    0    0 -0.66484616090E+01  0.41020258973E+02  0.19490494202E+02  0.45899392330E+02  0.10566000000E+00 0.  1.
         23    2    1    0    0    0  0.12123044394E+02  0.16443847632E+02 -0.20236537278E+02  0.96244378439E+02  0.91848215061E+02 0.  0.
         13    1    3    3    0    0  0.18771506003E+02 -0.24576411342E+02 -0.39727031480E+02  0.50344986109E+02  0.10566000000E+00 0. -1.
         22    1    1    0    0    0 -0.12123044394E+02 -0.16443847632E+02  0.20236537278E+02  0.28755621561E+02  0.00000000000E+00 0. -1.
</event>
<event>
 5    1  0.1766634E-003  0.9118800E+02  0.7818608E-02  0.1130116E+00
         25   -1    0    0    0    0  0.00000000000E+00  0.00000000000E+00  0.99999998245E-14  0.12500000000E+03  0.12500000000E+03 0.  0.
        -13    1    3    3    0    0 -0.18025434497E+01  0.33355473667E+02  0.12130368494E+02  0.35538623922E+02  0.10566000000E+00 0.  1.
         23    2    1    0    0    0 -0.19641060904E+02 -0.21401401929E+02 -0.47840589965E+01  0.95560596161E+02  0.90912865097E+02 0.  0.
         13    1    3    3    0    0 -0.17838517454E+02 -0.54756875596E+02 -0.16914427490E+02  0.60021972238E+02  0.10566000000E+00 0. -1.
         22    1    1    0    0    0  0.19641060904E+02  0.21401401929E+02  0.47840589965E+01  0.29439403839E+02  0.00000000000E+00 0. -1.
</event>
<event>
 5    1  0.1766634E-003  0.9118800E+02  0.7818608E-02  0.1130116E+00
         25   -1    0    0    0    0  0.00000000000E+00  0.00000000000E+00  0.99999998245E-14  0.12500000000E+03  0.12500000000E+03 0.  0.
        -13    1    3    3    0    0  0.66843997734E+01  0.13766447862E+02  0.29329085926E+02  0.33081758302E+02  0.10566000000E+00 0.  1.
         23    2    1    0    0    0 -0.58305109312E+01 -0.16918189317E+02 -0.23510982560E+02  0.95453658628E+02  0.90765713004E+02 0.  0.
         13    1    3    3    0    0 -0.12514910705E+02 -0.30684637179E+02 -0.52840068486E+02  0.62371900327E+02  0.10566000000E+00 0. -1.
         22    1    1    0    0    0  0.58305109312E+01  0.16918189317E+02  0.23510982560E+02  0.29546341372E+02  0.00000000000E+00 0. -1.
</event>
<event>
 5    1  0.1766634E-003  0.9118800E+02  0.7818608E-02  0.1130116E+00
         25   -1    0    0    0    0  0.00000000000E+00  0.00000000000E+00  0.99999998245E-14  0.12500000000E+03  0.12500000000E+03 0.  0.
        -13    1    3    3    0    0  0.95046373894E+01 -0.41792829719E+02  0.10343837188E+02  0.44090643901E+02  0.10566000000E+00 0. -1.
         23    2    1    0    0    0 -0.28046406349E+02 -0.75197328536E+01  0.48202347596E-01  0.95962961329E+02  0.91464421128E+02 0.  0.
         13    1    3    3    0    0 -0.37551043739E+02  0.34273096865E+02 -0.10295634840E+02  0.51872317428E+02  0.10566000000E+00 0.  1.
         22    1    1    0    0    0  0.28046406349E+02  0.75197328536E+01 -0.48202347596E-01  0.29037038671E+02  0.00000000000E+00 0. -1.
</event>
<event>
 5    1  0.1766634E-003  0.9118800E+02  0.7818608E-02  0.1130116E+00
         25   -1    0    0    0    0  0.00000000000E+00  0.00000000000E+00  0.99999998245E-14  0.12500000000E+03  0.12500000000E+03 0.  0.
        -13    1    3    3    0    0 -0.34101890074E+02  0.47882815477E+02  0.20631012224E+02  0.62300503642E+02  0.10566000000E+00 0. -1.
         23    2    1    0    0    0 -0.18343397697E+02  0.19737422658E+02  0.89488445444E+01  0.96607608221E+02  0.92341226196E+02 0.  0.
         13    1    3    3    0    0  0.15758492377E+02 -0.28145392819E+02 -0.11682167679E+02  0.34307104580E+02  0.10566000000E+00 0.  1.
         22    1    1    0    0    0  0.18343397697E+02 -0.19737422658E+02 -0.89488445444E+01  0.28392391779E+02  0.00000000000E+00 0. -1.
</event>
<event>
 5    1  0.1766634E-003  0.9118800E+02  0.7818608E-02  0.1130116E+00
         25   -1    0    0    0    0  0.00000000000E+00  0.00000000000E+00  0.99999998245E-14  0.12500000000E+03  0.12500000000E+03 0.  0.
        -13    1    3    3    0    0 -0.21955302089E+02 -0.37232754190E+02  0.28934371295E+02  0.52014635255E+02  0.10566000000E+00 0. -1.
         23    2    1    0    0    0  0.12203832023E+02 -0.26782535775E+02  0.46659511967E+01  0.95200522838E+02  0.90416429422E+02 0.  0.
         13    1    3    3    0    0  0.34159134112E+02  0.10450218415E+02 -0.24268420098E+02  0.43185887583E+02  0.10566000000E+00 0.  1.
         22    1    1    0    0    0 -0.12203832023E+02  0.26782535775E+02 -0.46659511967E+01  0.29799477162E+02  0.00000000000E+00 0.  1.
</event>
<event>
 5    1  0.1766634E-003  0.9118800E+02  0.7818608E-02  0.1130116E+00
         25   -1    0    0    0    0  0.00000000000E+00  0.00000000000E+00  0.99999998245E-14  0.12500000000E+03  0.12500000000E+03 0.  0.
        -13    1    3    3    0    0  0.37618879391E+02 -0.16605340480E+02 -0.16314530327E+02  0.44239037997E+02  0.10566000000E+00 0.  1.
         23    2    1    0    0    0 -0.33011098984E+01  0.13530599689E+02 -0.25559049567E+02  0.95892621738E+02  0.91368240842E+02 0.  0.
         13    1    3    3    0    0 -0.40919989290E+02  0.30135940169E+02 -0.92445192395E+01  0.51653583741E+02  0.10566000000E+00 0. -1.
         22    1    1    0    0    0  0.33011098984E+01 -0.13530599689E+02  0.25559049567E+02  0.29107378262E+02  0.00000000000E+00 0. -1.
</event>
<event>
 5    1  0.1766634E-003  0.9118800E+02  0.7818608E-02  0.1130116E+00
         25   -1    0    0    0    0  0.00000000000E+00  0.00000000000E+00  0.99999998245E-14  0.12500000000E+03  0.12500000000E+03 0.  0.
        -13    1    3    3    0    0 -0.24658355995E+02 -0.19963714717E+02 -0.52838199613E+01  0.32163867042E+02  0.10566000000E+00 0.  1.
         23    2    1    0    0    0  0.21142704590E+02  0.11278246825E+02 -0.24392407136E+02  0.90806399214E+02  0.84122528513E+02 0.  0.
         13    1    3    3    0    0  0.45801060585E+02  0.31241961542E+02 -0.19108587175E+02  0.58642532172E+02  0.10566000000E+00 0. -1.
         22    1    1    0    0    0 -0.21142704590E+02 -0.11278246825E+02  0.24392407136E+02  0.34193600786E+02  0.00000000000E+00 0. -1.
</event>
<event>
 5    1  0.1766634E-003  0.9118800E+02  0.7818608E-02  0.1130116E+00
         25   -1    0    0    0    0  0.00000000000E+00  0.00000000000E+00  0.99999998245E-14  0.12500000000E+03  0.12500000000E+03 0.  0.
        -13    1    3    3    0    0 -0.29167228566E+02  0.35899532479E+02  0.23637226691E+02  0.51944521406E+02  0.10566000000E+00 0. -1.
         23    2    1    0    0    0 -0.29028902707E+02  0.24577161300E+01 -0.43393615325E+01  0.95545838674E+02  0.90892572130E+02 0.  0.
         13    1    3    3    0    0  0.13832585896E+00 -0.33441816349E+02 -0.27976588224E+02  0.43601317268E+02  0.10566000000E+00 0.  1.
         22    1    1    0    0    0  0.29028902707E+02 -0.24577161300E+01  0.43393615325E+01  0.29454161326E+02  0.00000000000E+00 0. -1.
</event>
<event>
 5    1  0.1766634E-003  0.9118800E+02  0.7818608E-02  0.1130116E+00
         25   -1    0    0    0    0  0.00000000000E+00  0.00000000000E+00  0.99999998245E-14  0.12500000000E+03  0.12500000000E+03 0.  0.
        -13    1    3    3    0    0  0.27137737333E+02 -0.24295802735E+02  0.32950012598E+01  0.36573364836E+02  0.10566000000E+00 0.  1.
         23    2    1    0    0    0 -0.26380126731E+02 -0.12047590396E+01  0.12839315140E+02  0.95636578129E+02  0.91017276010E+02 0.  0.
         13    1    3    3    0    0 -0.53517864065E+02  0.23091043695E+02  0.95443138804E+01  0.59063213293E+02  0.10566000000E+00 0. -1.
         22    1    1    0    0    0  0.26380126731E+02  0.12047590396E+01 -0.12839315140E+02  0.29363421871E+02  0.00000000000E+00 0. -1.
</event>
<event>
 5    1  0.1766634E-003  0.9118800E+02  0.7818608E-02  0.1130116E+00
         25   -1    0    0    0    0  0.00000000000E+00  0.00000000000E+00  0.99999998245E-14  0.12500000000E+03  0.12500000000E+03 0.  0.
        -13    1    3    3    0    0  0.48618028467E+01  0.32883052711E+02 -0.48195210474E+02  0.58546748493E+02  0.10566000000E+00 0. -1.
         23    2    1    0    0    0 -0.13381845212E+02  0.14013440331E+02 -0.22950336554E+02  0.94963884420E+02  0.90088684667E+02 0.  0.
         13    1    3    3    0    0 -0.18243648058E+02 -0.18869612380E+02  0.25244873920E+02  0.36417135927E+02  0.10566000000E+00 0.  1.
         22    1    1    0    0    0  0.13381845212E+02 -0.14013440331E+02  0.22950336554E+02  0.30036115580E+02  0.00000000000E+00 0. -1.
</event>
<event>
 5    1  0.1766634E-003  0.9118800E+02  0.7818608E-02  0.1130116E+00
         25   -1    0    0    0    0  0.00000000000E+00  0.00000000000E+00  0.99999998245E-14  0.12500000000E+03  0.12500000000E+03 0.  0.
        -13    1    3    3    0    0  0.26147295637E+02  0.24631265473E+02  0.13257616657E+02  0.38290414876E+02  0.10566000000E+00 0. -1.
         23    2    1    0    0    0 -0.23873704471E+02  0.90165721538E+01 -0.12389675648E+02  0.96631771271E+02  0.92373929318E+02 0.  0.
         13    1    3    3    0    0 -0.50021000108E+02 -0.15614693319E+02 -0.25647292306E+02  0.58341356394E+02  0.10566000000E+00 0.  1.
         22    1    1    0    0    0  0.23873704471E+02 -0.90165721538E+01  0.12389675648E+02  0.28368228729E+02  0.00000000000E+00 0.  1.
</event>
<event>
 5    1  0.1766634E-003  0.9118800E+02  0.7818608E-02  0.1130116E+00
         25   -1    0    0    0    0  0.00000000000E+00  0.00000000000E+00  0.99999998245E-14  0.12500000000E+03  0.12500000000E+03 0.  0.
        -13    1    3    3    0    0  0.49500024169E+02 -0.28788416061E+02 -0.81914593012E+01  0.57845798996E+02  0.10566000000E+00 0. -1.
         23    2    1    0    0    0  0.15178938439E+02 -0.26057052518E+02  0.44391826123E+01  0.94519243771E+02  0.89469609045E+02 0.  0.
         13    1    3    3    0    0 -0.34321085730E+02  0.27313635430E+01  0.12630641914E+02  0.36673444775E+02  0.10566000000E+00 0.  1.
         22    1    1    0    0    0 -0.15178938439E+02  0.26057052518E+02 -0.44391826123E+01  0.30480756229E+02  0.00000000000E+00 0. -1.
</event>
<event>
 5    1  0.1766634E-003  0.9118800E+02  0.7818608E-02  0.1130116E+00
         25   -1    0    0    0    0  0.00000000000E+00  0.00000000000E+00  0.99999998245E-14  0.12500000000E+03  0.12500000000E+03 0.  0.
        -13    1    3    3    0    0  0.37051021767E+02 -0.39251191980E+02  0.14880406139E+02  0.55989927100E+02  0.10566000000E+00 0. -1.
         23    2    1    0    0    0  0.19252593573E+02 -0.19036502978E+02 -0.13182275727E+02  0.94886494753E+02  0.89981240757E+02 0.  0.
         13    1    3    3    0    0 -0.17798428193E+02  0.20214689002E+02 -0.28062681866E+02  0.38896567653E+02  0.10566000000E+00 0.  1.
         22    1    1    0    0    0 -0.19252593573E+02  0.19036502978E+02  0.13182275727E+02  0.30113505247E+02  0.00000000000E+00 0. -1.
</event>
<event>
 5    1  0.1766634E-003  0.9118800E+02  0.7818608E-02  0.1130116E+00
         25   -1    0    0    0    0  0.00000000000E+00  0.00000000000E+00  0.99999998245E-14  0.12500000000E+03  0.12500000000E+03 0.  0.
        -13    1    3    3    0    0 -0.26095935480E+02 -0.19753207503E+01  0.31356407573E+02  0.40842810880E+02  0.10566000000E+00 0.  1.
         23    2    1    0    0    0  0.77887863510E+01  0.28805512725E+02  0.22832427614E+01  0.95072822491E+02  0.90239712005E+02 0.  0.
         13    1    3    3    0    0  0.33884721832E+02  0.30780833475E+02 -0.29073164812E+02  0.54230011610E+02  0.10566000000E+00 0. -1.
         22    1    1    0    0    0 -0.77887863510E+01 -0.28805512725E+02 -0.22832427614E+01  0.29927177509E+02  0.00000000000E+00 0.  1.
</event>
<event>
 5    1  0.1766634E-003  0.9118800E+02  0.7818608E-02  0.1130116E+00
         25   -1    0    0    0    0  0.00000000000E+00  0.00000000000E+00  0.99999998245E-14  0.12500000000E+03  0.12500000000E+03 0.  0.
        -13    1    3    3    0    0 -0.17024297027E+02  0.40047974647E+02 -0.34181135016E+02  0.55335595394E+02  0.10566000000E+00 0.  1.
         23    2    1    0    0    0  0.11607145760E+02  0.25625969444E+02 -0.11491526303E+02  0.94611329094E+02  0.89598171151E+02 0.  0.
         13    1    3    3    0    0  0.28631442787E+02 -0.14422005203E+02  0.22689608713E+02  0.39275733701E+02  0.10566000000E+00 0. -1.
         22    1    1    0    0    0 -0.11607145760E+02 -0.25625969444E+02  0.11491526303E+02  0.30388670906E+02  0.00000000000E+00 0.  1.
</event>
<event>
 5    1  0.1766634E-003  0.9118800E+02  0.7818608E-02  0.1130116E+00
         25   -1    0    0    0    0  0.00000000000E+00  0.00000000000E+00  0.99999998245E-14  0.12500000000E+03  0.12500000000E+03 0.  0.
        -13    1    3    3    0    0 -0.12077901695E+02  0.29638780205E+02 -0.19910861506E+02  0.37693322636E+02  0.10566000000E+00 0. -1.
         23    2    1    0    0    0 -0.13734278548E+02 -0.25608674973E+02 -0.16893243919E+01  0.95891780233E+02  0.91367089580E+02 0.  0.
         13    1    3    3    0    0 -0.16563768530E+01 -0.55247455178E+02  0.18221537115E+02  0.58198457597E+02  0.10566000000E+00 0.  1.
         22    1    1    0    0    0  0.13734278548E+02  0.25608674973E+02  0.16893243919E+01  0.29108219767E+02  0.00000000000E+00 0.  1.
</event>
<event>
 5    1  0.1766634E-003  0.9118800E+02  0.7818608E-02  0.1130116E+00
         25   -1    0    0    0    0  0.00000000000E+00  0.00000000000E+00  0.99999998245E-14  0.12500000000E+03  0.12500000000E+03 0.  0.
        -13    1    3    3    0    0 -0.24714396576E+01  0.17676287464E+02 -0.35732217846E+02  0.39941979279E+02  0.10566000000E+00 0.  1.
         23    2    1    0    0    0  0.69687832004E+00  0.19808301911E+02  0.20605496689E+02  0.96409075604E+02  0.92072085352E+02 0.  0.
         13    1    3    3    0    0  0.31683179776E+01  0.21320144476E+01  0.56337714535E+02  0.56467096326E+02  0.10566000000E+00 0. -1.
         22    1    1    0    0    0 -0.69687832004E+00 -0.19808301911E+02 -0.20605496689E+02  0.28590924396E+02  0.00000000000E+00 0.  1.
</event>
<event>
 5    1  0.1766634E-003  0.9118800E+02  0.7818608E-02  0.1130116E+00
         25   -1    0    0    0    0  0.00000000000E+00  0.00000000000E+00  0.99999998245E-14  0.12500000000E+03  0.12500000000E+03 0.  0.
        -13    1    3    3    0    0  0.12504881110E+02 -0.26014834675E+02 -0.17040211202E+02  0.33519004111E+02  0.10566000000E+00 0.  1.
         23    2    1    0    0    0 -0.89919405216E+01  0.27280945774E+02  0.63789204452E+01  0.95575594777E+02  0.90933485001E+02 0.  0.
         13    1    3    3    0    0 -0.21496821632E+02  0.53295780449E+02  0.23419131647E+02  0.62056590666E+02  0.10566000000E+00 0. -1.
         22    1    1    0    0    0  0.89919405216E+01 -0.27280945774E+02 -0.63789204452E+01  0.29424405223E+02  0.00000000000E+00 0. -1.
</event>
<event>
 5    1  0.1766634E-003  0.9118800E+02  0.7818608E-02  0.1130116E+00
         25   -1    0    0    0    0  0.00000000000E+00  0.00000000000E+00  0.99999998245E-14  0.12500000000E+03  0.12500000000E+03 0.  0.
        -13    1    3    3    0    0 -0.31403790913E+02 -0.12802167332E+02  0.20857002096E+02  0.39813556392E+02  0.10566000000E+00 0.  1.
         23    2    1    0    0    0  0.19740384102E+02 -0.20892165112E+02 -0.15082327148E+01  0.96217364723E+02  0.91811443626E+02 0.  0.
         13    1    3    3    0    0  0.51144175015E+02 -0.80899977802E+01 -0.22365234811E+02  0.56403808331E+02  0.10566000000E+00 0. -1.
         22    1    1    0    0    0 -0.19740384102E+02  0.20892165112E+02  0.15082327148E+01  0.28782635277E+02  0.00000000000E+00 0. -1.
</event>
<event>
 5    1  0.1766634E-003  0.9118800E+02  0.7818608E-02  0.1130116E+00
         25   -1    0    0    0    0  0.00000000000E+00  0.00000000000E+00  0.99999998245E-14  0.12500000000E+03  0.12500000000E+03 0.  0.
        -13    1    3    3    0    0 -0.11829436078E+02 -0.16505321794E+01  0.55232071484E+02  0.56508872744E+02  0.10566000000E+00 0.  1.
         23    2    1    0    0    0 -0.17868119128E+02 -0.13741313233E+02  0.17886969235E+02  0.96224367271E+02  0.91820977003E+02 0.  0.
         13    1    3    3    0    0 -0.60386830500E+01 -0.12090781054E+02 -0.37345102249E+02  0.39715494526E+02  0.10566000000E+00 0. -1.
         22    1    1    0    0    0  0.17868119128E+02  0.13741313233E+02 -0.17886969235E+02  0.28775632729E+02  0.00000000000E+00 0.  1.
</event>
<event>
 5    1  0.1766634E-003  0.9118800E+02  0.7818608E-02  0.1130116E+00
         25   -1    0    0    0    0  0.00000000000E+00  0.00000000000E+00  0.99999998245E-14  0.12500000000E+03  0.12500000000E+03 0.  0.
        -13    1    3    3    0    0 -0.29410121026E+02  0.44017909140E+02 -0.24964387363E+02  0.58530020881E+02  0.10566000000E+00 0.  1.
         23    2    1    0    0    0 -0.15313460568E+02  0.10403135721E+02 -0.23598134568E+02  0.95006679703E+02  0.90148044492E+02 0.  0.
         13    1    3    3    0    0  0.14096660459E+02 -0.33614773419E+02  0.13662527956E+01  0.36476658822E+02  0.10566000000E+00 0. -1.
         22    1    1    0    0    0  0.15313460568E+02 -0.10403135721E+02  0.23598134568E+02  0.29993320297E+02  0.00000000000E+00 0.  1.
</event>
<event>
 5    1  0.1766634E-003  0.9118800E+02  0.7818608E-02  0.1130116E+00
         25   -1    0    0    0    0  0.00000000000E+00  0.00000000000E+00  0.99999998245E-14  0.12500000000E+03  0.12500000000E+03 0.  0.
        -13    1    3    3    0    0 -0.17003686249E+02  0.45162307502E+01 -0.33498340854E+02  0.37837437681E+02  0.10566000000E+00 0. -1.
         23    2    1    0    0    0  0.17447318904E+02 -0.20486675696E+02  0.76315023332E+01  0.97029432507E+02  0.92910484483E+02 0.  0.
         13    1    3    3    0    0  0.34451005154E+02 -0.25002906446E+02  0.41129843187E+02  0.59191994826E+02  0.10566000000E+00 0.  1.
         22    1    1    0    0    0 -0.17447318904E+02  0.20486675696E+02 -0.76315023332E+01  0.27970567493E+02  0.00000000000E+00 0.  1.
</event>
<event>
 5    1  0.1766634E-003  0.9118800E+02  0.7818608E-02  0.1130116E+00
         25   -1    0    0    0    0  0.00000000000E+00  0.00000000000E+00  0.99999998245E-14  0.12500000000E+03  0.12500000000E+03 0.  0.
        -13    1    3    3    0    0  0.31717427706E+02  0.20206204270E+02 -0.26444210564E+02  0.45973833294E+02  0.10566000000E+00 0.  1.
         23    2    1    0    0    0 -0.80424608642E+00 -0.16908822067E+02 -0.24321810142E+02  0.95367154642E+02  0.90646503852E+02 0.  0.
         13    1    3    3    0    0 -0.32521673793E+02 -0.37115026336E+02  0.21224004226E+01  0.49393321348E+02  0.10566000000E+00 0. -1.
         22    1    1    0    0    0  0.80424608642E+00  0.16908822067E+02  0.24321810142E+02  0.29632845358E+02  0.00000000000E+00 0. -1.
</event>
<event>
 5    1  0.1766634E-003  0.9118800E+02  0.7818608E-02  0.1130116E+00
         25   -1    0    0    0    0  0.00000000000E+00  0.00000000000E+00  0.99999998245E-14  0.12500000000E+03  0.12500000000E+03 0.  0.
        -13    1    3    3    0    0  0.34876840140E+02  0.47387012217E+01  0.12401354584E+02  0.37318280065E+02  0.10566000000E+00 0.  1.
         23    2    1    0    0    0 -0.30261991189E+01 -0.13507508065E+02 -0.26811057487E+02  0.94826444379E+02  0.89897781368E+02 0.  0.
         13    1    3    3    0    0 -0.37903039259E+02 -0.18246209287E+02 -0.39212412071E+02  0.57508164315E+02  0.10566000000E+00 0. -1.
         22    1    1    0    0    0  0.30261991189E+01  0.13507508065E+02  0.26811057487E+02  0.30173555621E+02  0.00000000000E+00 0. -1.
</event>
<event>
 5    1  0.1766634E-003  0.9118800E+02  0.7818608E-02  0.1130116E+00
         25   -1    0    0    0    0  0.00000000000E+00  0.00000000000E+00  0.99999998245E-14  0.12500000000E+03  0.12500000000E+03 0.  0.
        -13    1    3    3    0    0  0.14574685030E+02  0.46141693136E+02 -0.31294380370E+02  0.57626614476E+02  0.10566000000E+00 0.  1.
         23    2    1    0    0    0  0.10771209720E+02  0.24143876005E+02  0.28370486062E+01  0.98410630843E+02  0.94750502430E+02 0.  0.
         13    1    3    3    0    0 -0.38034753101E+01 -0.21997817131E+02  0.34131428976E+02  0.40784016366E+02  0.10566000000E+00 0. -1.
         22    1    1    0    0    0 -0.10771209720E+02 -0.24143876005E+02 -0.28370486062E+01  0.26589369157E+02  0.00000000000E+00 0.  1.
</event>
<event>
 5    1  0.1766634E-003  0.9118800E+02  0.7818608E-02  0.1130116E+00
         25   -1    0    0    0    0  0.00000000000E+00  0.00000000000E+00  0.99999998245E-14  0.12500000000E+03  0.12500000000E+03 0.  0.
        -13    1    3    3    0    0 -0.21193714721E+02  0.13467073680E+02  0.56636404051E+02  0.61953442560E+02  0.10566000000E+00 0. -1.
         23    2    1    0    0    0 -0.44486786972E+01  0.55619275847E+01  0.28402742708E+02  0.95717896695E+02  0.91128887702E+02 0.  0.
         13    1    3    3    0    0  0.16745036024E+02 -0.79051460956E+01 -0.28233661342E+02  0.33764454135E+02  0.10566000000E+00 0.  1.
         22    1    1    0    0    0  0.44486786972E+01 -0.55619275847E+01 -0.28402742708E+02  0.29282103305E+02  0.00000000000E+00 0. -1.
</event>
<event>
 5    1  0.1766634E-003  0.9118800E+02  0.7818608E-02  0.1130116E+00
         25   -1    0    0    0    0  0.00000000000E+00  0.00000000000E+00  0.99999998245E-14  0.12500000000E+03  0.12500000000E+03 0.  0.
        -13    1    3    3    0    0 -0.82940848262E+01  0.16807121468E+02 -0.28068006474E+02  0.33750486316E+02  0.10566000000E+00 0.  1.
         23    2    1    0    0    0  0.13899831013E+02 -0.14870549943E+02  0.20682310566E+02  0.95981100501E+02  0.91489207698E+02 0.  0.
         13    1    3    3    0    0  0.22193915840E+02 -0.31677671411E+02  0.48750317040E+02  0.62230614185E+02  0.10566000000E+00 0. -1.
         22    1    1    0    0    0 -0.13899831013E+02  0.14870549943E+02 -0.20682310566E+02  0.29018899499E+02  0.00000000000E+00 0. -1.
</event>
<event>
 5    1  0.1766634E-003  0.9118800E+02  0.7818608E-02  0.1130116E+00
         25   -1    0    0    0    0  0.00000000000E+00  0.00000000000E+00  0.99999998245E-14  0.12500000000E+03  0.12500000000E+03 0.  0.
        -13    1    3    3    0    0 -0.30129097157E+02  0.18769439691E+02  0.50947112170E+02  0.62094071893E+02  0.10566000000E+00 0. -1.
         23    2    1    0    0    0 -0.16110936884E+02  0.99522834180E+01  0.18483909836E+02  0.98537476400E+02  0.94917696453E+02 0.  0.
         13    1    3    3    0    0  0.14018160274E+02 -0.88171562729E+01 -0.32463202334E+02  0.36443404506E+02  0.10566000000E+00 0.  1.
         22    1    1    0    0    0  0.16110936884E+02 -0.99522834180E+01 -0.18483909836E+02  0.26462523600E+02  0.00000000000E+00 0. -1.
</event>
<event>
 5    1  0.1766634E-003  0.9118800E+02  0.7818608E-02  0.1130116E+00
         25   -1    0    0    0    0  0.00000000000E+00  0.00000000000E+00  0.99999998245E-14  0.12500000000E+03  0.12500000000E+03 0.  0.
        -13    1    3    3    0    0 -0.34186063664E+02 -0.24505225573E+00  0.40493113229E+02  0.52994814675E+02  0.10566000000E+00 0.  1.
         23    2    1    0    0    0 -0.26875691810E+02  0.12989830152E+02  0.11675700621E+01  0.95126906463E+02  0.90314598021E+02 0.  0.
         13    1    3    3    0    0  0.73103718538E+01  0.13234882408E+02 -0.39325543167E+02  0.42132091787E+02  0.10566000000E+00 0. -1.
         22    1    1    0    0    0  0.26875691810E+02 -0.12989830152E+02 -0.11675700621E+01  0.29873093537E+02  0.00000000000E+00 0.  1.
</event>
<event>
 5    1  0.1766634E-003  0.9118800E+02  0.7818608E-02  0.1130116E+00
         25   -1    0    0    0    0  0.00000000000E+00  0.00000000000E+00  0.99999998245E-14  0.12500000000E+03  0.12500000000E+03 0.  0.
        -13    1    3    3    0    0 -0.78595985244E+01 -0.37874145171E+02  0.17467607414E+02  0.42442344825E+02  0.10566000000E+00 0.  1.
         23    2    1    0    0    0  0.26997559955E+02 -0.72937149829E+01 -0.87329784926E+01  0.95702706011E+02  0.91108048506E+02 0.  0.
         13    1    3    3    0    0  0.34857158479E+02  0.30580430188E+02 -0.26200585907E+02  0.53260361186E+02  0.10566000000E+00 0. -1.
         22    1    1    0    0    0 -0.26997559955E+02  0.72937149829E+01  0.87329784926E+01  0.29297293989E+02  0.00000000000E+00 0. -1.
</event>
<event>
 5    1  0.1766634E-003  0.9118800E+02  0.7818608E-02  0.1130116E+00
         25   -1    0    0    0    0  0.00000000000E+00  0.00000000000E+00  0.99999998245E-14  0.12500000000E+03  0.12500000000E+03 0.  0.
        -13    1    3    3    0    0  0.23634382217E+01 -0.81691247540E+01  0.48346347970E+02  0.49088705071E+02  0.10566000000E+00 0.  1.
         23    2    1    0    0    0 -0.57123989173E+01  0.24036865599E+02  0.15269530270E+02  0.95955879013E+02  0.91454741557E+02 0.  0.
         13    1    3    3    0    0 -0.80758371390E+01  0.32205990353E+02 -0.33076817700E+02  0.46867173942E+02  0.10566000000E+00 0. -1.
         22    1    1    0    0    0  0.57123989173E+01 -0.24036865599E+02 -0.15269530270E+02  0.29044120987E+02  0.00000000000E+00 0. -1.
</event>
<event>
 5    1  0.1766634E-003  0.9118800E+02  0.7818608E-02  0.1130116E+00
         25   -1    0    0    0    0  0.00000000000E+00  0.00000000000E+00  0.99999998245E-14  0.12500000000E+03  0.12500000000E+03 0.  0.
        -13    1    3    3    0    0  0.22843742783E+02 -0.13348585772E+02  0.26374771169E+02  0.37358547144E+02  0.10566000000E+00 0.  1.
         23    2    1    0    0    0 -0.10469037119E+02  0.15396239613E+02 -0.17465906870E+02  0.99471528929E+02  0.96139909675E+02 0.  0.
         13    1    3    3    0    0 -0.33312779903E+02  0.28744825385E+02 -0.43840678039E+02  0.62112981785E+02  0.10566000000E+00 0. -1.
         22    1    1    0    0    0  0.10469037119E+02 -0.15396239613E+02  0.17465906870E+02  0.25528471071E+02  0.00000000000E+00 0. -1.
</event>
<event>
 5    1  0.1766634E-003  0.9118800E+02  0.7818608E-02  0.1130116E+00
         25   -1    0    0    0    0  0.00000000000E+00  0.00000000000E+00  0.99999998245E-14  0.12500000000E+03  0.12500000000E+03 0.  0.
        -13    1    3    3    0    0 -0.17162231393E+02  0.73263778719E+01  0.58980818576E+02  0.61862477504E+02  0.10566000000E+00 0.  1.
         23    2    1    0    0    0 -0.43484836719E+01  0.85645158780E+01  0.27324550910E+02  0.96036379286E+02  0.91564702923E+02 0.  0.
         13    1    3    3    0    0  0.12813747721E+02  0.12381380061E+01 -0.31656267666E+02  0.34173901781E+02  0.10566000000E+00 0. -1.
         22    1    1    0    0    0  0.43484836719E+01 -0.85645158780E+01 -0.27324550910E+02  0.28963620714E+02  0.00000000000E+00 0.  1.
</event>
<event>
 5    1  0.1766634E-003  0.9118800E+02  0.7818608E-02  0.1130116E+00
         25   -1    0    0    0    0  0.00000000000E+00  0.00000000000E+00  0.99999998245E-14  0.12500000000E+03  0.12500000000E+03 0.  0.
        -13    1    3    3    0    0  0.16886425179E+02 -0.22299894466E+02  0.33981692937E+02  0.44013671370E+02  0.10566000000E+00 0. -1.
         23    2    1    0    0    0 -0.98456307389E+01 -0.16685574910E+02 -0.15269245821E+02  0.10033231420E+03  0.97252653179E+02 0.  0.
         13    1    3    3    0    0 -0.26732055918E+02  0.56143195564E+01 -0.49250938759E+02  0.56318642831E+02  0.10566000000E+00 0.  1.
         22    1    1    0    0    0  0.98456307389E+01  0.16685574910E+02  0.15269245821E+02  0.24667685799E+02  0.00000000000E+00 0. -1.
</event>
<event>
 5    1  0.1766634E-003  0.9118800E+02  0.7818608E-02  0.1130116E+00
         25   -1    0    0    0    0  0.00000000000E+00  0.00000000000E+00  0.99999998245E-14  0.12500000000E+03  0.12500000000E+03 0.  0.
        -13    1    3    3    0    0  0.54027613744E+01  0.20509652292E+02  0.26518874621E+02  0.33957289981E+02  0.10566000000E+00 0.  1.
         23    2    1    0    0    0 -0.17018038253E+02 -0.72854684621E+01 -0.23292507328E+02  0.95247141746E+02  0.90480856740E+02 0.  0.
         13    1    3    3    0    0 -0.22420799628E+02 -0.27795120755E+02 -0.49811381949E+02  0.61289851765E+02  0.10566000000E+00 0. -1.
         22    1    1    0    0    0  0.17018038253E+02  0.72854684621E+01  0.23292507328E+02  0.29752858254E+02  0.00000000000E+00 0. -1.
</event>
<event>
 5    1  0.1766634E-003  0.9118800E+02  0.7818608E-02  0.1130116E+00
         25   -1    0    0    0    0  0.00000000000E+00  0.00000000000E+00  0.99999998245E-14  0.12500000000E+03  0.12500000000E+03 0.  0.
        -13    1    3    3    0    0  0.25219275430E+02  0.32485186435E+02  0.15091497351E+02  0.43807118682E+02  0.10566000000E+00 0.  1.
         23    2    1    0    0    0  0.60102095472E+01 -0.18410967205E+02  0.18370190770E+02  0.98306363283E+02  0.94612847018E+02 0.  0.
         13    1    3    3    0    0 -0.19209065882E+02 -0.50896153641E+02  0.32786934192E+01  0.54499244601E+02  0.10566000000E+00 0. -1.
         22    1    1    0    0    0 -0.60102095472E+01  0.18410967205E+02 -0.18370190770E+02  0.26693636717E+02  0.00000000000E+00 0. -1.
</event>
<event>
 5    1  0.1766634E-003  0.9118800E+02  0.7818608E-02  0.1130116E+00
         25   -1    0    0    0    0  0.00000000000E+00  0.00000000000E+00  0.99999998245E-14  0.12500000000E+03  0.12500000000E+03 0.  0.
        -13    1    3    3    0    0  0.16335071654E+02 -0.24398698073E+02  0.11448101162E+02  0.31515095079E+02  0.10566000000E+00 0.  1.
         23    2    1    0    0    0 -0.15849801147E+02  0.26589996462E+02 -0.40730081834E+01  0.93777676193E+02  0.88427479033E+02 0.  0.
         13    1    3    3    0    0 -0.32184872801E+02  0.50988694535E+02 -0.15521109345E+02  0.62262581114E+02  0.10566000000E+00 0. -1.
         22    1    1    0    0    0  0.15849801147E+02 -0.26589996462E+02  0.40730081834E+01  0.31222323807E+02  0.00000000000E+00 0. -1.
</event>
<event>
 5    1  0.1766634E-003  0.9118800E+02  0.7818608E-02  0.1130116E+00
         25   -1    0    0    0    0  0.00000000000E+00  0.00000000000E+00  0.99999998245E-14  0.12500000000E+03  0.12500000000E+03 0.  0.
        -13    1    3    3    0    0 -0.40857160883E+02  0.10214916772E+02  0.33420312872E+02  0.53764119974E+02  0.10566000000E+00 0.  1.
         23    2    1    0    0    0 -0.11029115484E+01  0.18513193171E+02  0.22546336000E+02  0.95805959473E+02  0.91249602016E+02 0.  0.
         13    1    3    3    0    0  0.39754249335E+02  0.82982763993E+01 -0.10873976872E+02  0.42041839498E+02  0.10566000000E+00 0. -1.
         22    1    1    0    0    0  0.11029115484E+01 -0.18513193171E+02 -0.22546336000E+02  0.29194040527E+02  0.00000000000E+00 0.  1.
</event>
<event>
 5    1  0.1766634E-003  0.9118800E+02  0.7818608E-02  0.1130116E+00
         25   -1    0    0    0    0  0.00000000000E+00  0.00000000000E+00  0.99999998245E-14  0.12500000000E+03  0.12500000000E+03 0.  0.
        -13    1    3    3    0    0 -0.46642646845E+02  0.81922748172E+01  0.25492613281E+02  0.53782286743E+02  0.10566000000E+00 0. -1.
         23    2    1    0    0    0 -0.89692278008E+01 -0.89950675288E+01  0.26938795728E+02  0.95216497814E+02  0.90438512004E+02 0.  0.
         13    1    3    3    0    0  0.37673419044E+02 -0.17187342346E+02  0.14461824465E+01  0.41434211071E+02  0.10566000000E+00 0.  1.
         22    1    1    0    0    0  0.89692278008E+01  0.89950675288E+01 -0.26938795728E+02  0.29783502186E+02  0.00000000000E+00 0. -1.
</event>
<event>
 5    1  0.1766634E-003  0.9118800E+02  0.7818608E-02  0.1130116E+00
         25   -1    0    0    0    0  0.00000000000E+00  0.00000000000E+00  0.99999998245E-14  0.12500000000E+03  0.12500000000E+03 0.  0.
        -13    1    3    3    0    0  0.40448776323E+02 -0.28771783126E+02 -0.28646594474E+02  0.57311059572E+02  0.10566000000E+00 0.  1.
         23    2    1    0    0    0  0.88720629363E+01 -0.96735428525E+01 -0.27837524604E+02  0.94223081569E+02  0.89054872928E+02 0.  0.
         13    1    3    3    0    0 -0.31576713386E+02  0.19098240273E+02  0.80906986978E+00  0.36912021997E+02  0.10566000000E+00 0. -1.
         22    1    1    0    0    0 -0.88720629363E+01  0.96735428525E+01  0.27837524604E+02  0.30776918431E+02  0.00000000000E+00 0.  1.
</event>
<event>
 5    1  0.1766634E-003  0.9118800E+02  0.7818608E-02  0.1130116E+00
         25   -1    0    0    0    0  0.00000000000E+00  0.00000000000E+00  0.99999998245E-14  0.12500000000E+03  0.12500000000E+03 0.  0.
        -13    1    3    3    0    0 -0.31464613598E+02  0.31153649399E+02  0.16054550975E+02  0.47099167198E+02  0.10566000000E+00 0. -1.
         23    2    1    0    0    0 -0.16475964740E+02 -0.32668357255E+01 -0.19815665578E+02  0.99023275186E+02  0.95555317992E+02 0.  0.
         13    1    3    3    0    0  0.14988648858E+02 -0.34420485124E+02 -0.35870216552E+02  0.51924107988E+02  0.10566000000E+00 0.  1.
         22    1    1    0    0    0  0.16475964740E+02  0.32668357255E+01  0.19815665578E+02  0.25976724814E+02  0.00000000000E+00 0. -1.
</event>
<event>
 5    1  0.1766634E-003  0.9118800E+02  0.7818608E-02  0.1130116E+00
         25   -1    0    0    0    0  0.00000000000E+00  0.00000000000E+00  0.99999998245E-14  0.12500000000E+03  0.12500000000E+03 0.  0.
        -13    1    3    3    0    0  0.10356254718E+02  0.20054537731E+02 -0.43712610812E+01  0.22990336728E+02  0.10566000000E+00 0. -1.
         23    2    1    0    0    0 -0.19737262708E+02 -0.24615075409E+02 -0.28936688819E+02  0.82188863172E+02  0.70158504781E+02 0.  0.
         13    1    3    3    0    0 -0.30093517427E+02 -0.44669613140E+02 -0.24565427738E+02  0.59198526445E+02  0.10566000000E+00 0.  1.
         22    1    1    0    0    0  0.19737262708E+02  0.24615075409E+02  0.28936688819E+02  0.42811136828E+02  0.00000000000E+00 0.  1.
</event>
<event>
 5    1  0.1766634E-003  0.9118800E+02  0.7818608E-02  0.1130116E+00
         25   -1    0    0    0    0  0.00000000000E+00  0.00000000000E+00  0.99999998245E-14  0.12500000000E+03  0.12500000000E+03 0.  0.
        -13    1    3    3    0    0 -0.25296249788E+02 -0.18958003333E+02 -0.10809045002E+02  0.33408872498E+02  0.10566000000E+00 0.  1.
         23    2    1    0    0    0  0.20197432177E+02  0.78802097268E+01  0.20792424468E+02  0.94960710941E+02  0.90084281289E+02 0.  0.
         13    1    3    3    0    0  0.45493681966E+02  0.26838213060E+02  0.31601469470E+02  0.61551838443E+02  0.10566000000E+00 0. -1.
         22    1    1    0    0    0 -0.20197432177E+02 -0.78802097268E+01 -0.20792424468E+02  0.30039289059E+02  0.00000000000E+00 0. -1.
</event>
<event>
 5    1  0.1766634E-003  0.9118800E+02  0.7818608E-02  0.1130116E+00
         25   -1    0    0    0    0  0.00000000000E+00  0.00000000000E+00  0.99999998245E-14  0.12500000000E+03  0.12500000000E+03 0.  0.
        -13    1    3    3    0    0 -0.20563588522E+02 -0.50849569457E+01  0.39403872834E+02  0.44736945788E+02  0.10566000000E+00 0.  1.
         23    2    1    0    0    0  0.16775649302E+02  0.18971533056E+02  0.17122595519E+02  0.94430002399E+02  0.89344840924E+02 0.  0.
         13    1    3    3    0    0  0.37339237825E+02  0.24056490002E+02 -0.22281277315E+02  0.49693056611E+02  0.10566000000E+00 0. -1.
         22    1    1    0    0    0 -0.16775649302E+02 -0.18971533056E+02 -0.17122595519E+02  0.30569997601E+02  0.00000000000E+00 0. -1.
</event>
<event>
 5    1  0.1766634E-003  0.9118800E+02  0.7818608E-02  0.1130116E+00
         25   -1    0    0    0    0  0.00000000000E+00  0.00000000000E+00  0.99999998245E-14  0.12500000000E+03  0.12500000000E+03 0.  0.
        -13    1    3    3    0    0 -0.28519873586E+02 -0.13412673183E+02  0.22716196178E+02  0.38849964274E+02  0.10566000000E+00 0. -1.
         23    2    1    0    0    0  0.21391904085E+02 -0.15207861119E+02 -0.80947958685E+01  0.97533323457E+02  0.93585954417E+02 0.  0.
         13    1    3    3    0    0  0.49911777671E+02 -0.17951879360E+01 -0.30810992046E+02  0.58683359182E+02  0.10566000000E+00 0.  1.
         22    1    1    0    0    0 -0.21391904085E+02  0.15207861119E+02  0.80947958685E+01  0.27466676543E+02  0.00000000000E+00 0.  1.
</event>
<event>
 5    1  0.1766634E-003  0.9118800E+02  0.7818608E-02  0.1130116E+00
         25   -1    0    0    0    0  0.00000000000E+00  0.00000000000E+00  0.99999998245E-14  0.12500000000E+03  0.12500000000E+03 0.  0.
        -13    1    3    3    0    0  0.12323967236E+02 -0.20708700524E+02 -0.25298803953E+02  0.34939534790E+02  0.10566000000E+00 0. -1.
         23    2    1    0    0    0 -0.59298283640E+01  0.26416958354E+02  0.95091711290E+01  0.96304305399E+02  0.91929735938E+02 0.  0.
         13    1    3    3    0    0 -0.18253795600E+02  0.47125658878E+02  0.34807975082E+02  0.61364770609E+02  0.10566000000E+00 0.  1.
         22    1    1    0    0    0  0.59298283640E+01 -0.26416958354E+02 -0.95091711290E+01  0.28695694601E+02  0.00000000000E+00 0.  1.
</event>
<event>
 5    1  0.1766634E-003  0.9118800E+02  0.7818608E-02  0.1130116E+00
         25   -1    0    0    0    0  0.00000000000E+00  0.00000000000E+00  0.99999998245E-14  0.12500000000E+03  0.12500000000E+03 0.  0.
        -13    1    3    3    0    0  0.50236664354E+01 -0.27142679145E+02  0.15584496112E+02  0.31699368112E+02  0.10566000000E+00 0.  1.
         23    2    1    0    0    0 -0.22867147428E+02  0.11709454113E+02 -0.20922735935E+02  0.91867257492E+02  0.85684388152E+02 0.  0.
         13    1    3    3    0    0 -0.27890813863E+02  0.38852133258E+02 -0.36507232047E+02  0.60167889380E+02  0.10566000000E+00 0. -1.
         22    1    1    0    0    0  0.22867147428E+02 -0.11709454113E+02  0.20922735935E+02  0.33132742508E+02  0.00000000000E+00 0. -1.
</event>
<event>
 5    1  0.1766634E-003  0.9118800E+02  0.7818608E-02  0.1130116E+00
         25   -1    0    0    0    0  0.00000000000E+00  0.00000000000E+00  0.99999998245E-14  0.12500000000E+03  0.12500000000E+03 0.  0.
        -13    1    3    3    0    0  0.44121899446E+01 -0.39611348822E+02 -0.57552985430E+01  0.40269852259E+02  0.10566000000E+00 0.  1.
         23    2    1    0    0    0 -0.18706934438E+02 -0.37489512712E+01  0.25493745712E+02  0.93157652377E+02  0.87546633825E+02 0.  0.
         13    1    3    3    0    0 -0.23119124383E+02  0.35862397551E+02  0.31249044255E+02  0.52887800117E+02  0.10566000000E+00 0. -1.
         22    1    1    0    0    0  0.18706934438E+02  0.37489512712E+01 -0.25493745712E+02  0.31842347623E+02  0.00000000000E+00 0. -1.
</event>
<event>
 5    1  0.1766634E-003  0.9118800E+02  0.7818608E-02  0.1130116E+00
         25   -1    0    0    0    0  0.00000000000E+00  0.00000000000E+00  0.99999998245E-14  0.12500000000E+03  0.12500000000E+03 0.  0.
        -13    1    3    3    0    0 -0.21149650534E+02 -0.68872301093E+01  0.44709553436E+02  0.49936930110E+02  0.10566000000E+00 0.  1.
         23    2    1    0    0    0 -0.34851366851E+02 -0.12132672476E+01  0.84409959023E+01  0.89120476583E+02  0.81578913610E+02 0.  0.
         13    1    3    3    0    0 -0.13701716317E+02  0.56739628617E+01 -0.36268557534E+02  0.39183546473E+02  0.10566000000E+00 0. -1.
         22    1    1    0    0    0  0.34851366851E+02  0.12132672476E+01 -0.84409959023E+01  0.35879523417E+02  0.00000000000E+00 0.  1.
</event>
<event>
 5    1  0.1766634E-003  0.9118800E+02  0.7818608E-02  0.1130116E+00
         25   -1    0    0    0    0  0.00000000000E+00  0.00000000000E+00  0.99999998245E-14  0.12500000000E+03  0.12500000000E+03 0.  0.
        -13    1    3    3    0    0  0.41008787304E+02 -0.10525630945E+02  0.41768802484E+02  0.59473973871E+02  0.10566000000E+00 0. -1.
         23    2    1    0    0    0  0.28145271107E+02 -0.52335026442E+01  0.91325861351E+01  0.94950874137E+02  0.90070630809E+02 0.  0.
         13    1    3    3    0    0 -0.12863516198E+02  0.52921283006E+01 -0.32636216349E+02  0.35476900267E+02  0.10566000000E+00 0.  1.
         22    1    1    0    0    0 -0.28145271107E+02  0.52335026442E+01 -0.91325861351E+01  0.30049125863E+02  0.00000000000E+00 0. -1.
</event>
<event>
 5    1  0.1766634E-003  0.9118800E+02  0.7818608E-02  0.1130116E+00
         25   -1    0    0    0    0  0.00000000000E+00  0.00000000000E+00  0.99999998245E-14  0.12500000000E+03  0.12500000000E+03 0.  0.
        -13    1    3    3    0    0 -0.25191925006E+02  0.28117505357E+02  0.29050871090E+02  0.47636031197E+02  0.10566000000E+00 0.  1.
         23    2    1    0    0    0 -0.25043337551E+02 -0.14564095356E+02  0.10331620654E+02  0.94242496613E+02  0.89082120279E+02 0.  0.
         13    1    3    3    0    0  0.14858745536E+00 -0.42681600714E+02 -0.18719250436E+02  0.46606465417E+02  0.10566000000E+00 0. -1.
         22    1    1    0    0    0  0.25043337551E+02  0.14564095356E+02 -0.10331620654E+02  0.30757503387E+02  0.00000000000E+00 0.  1.
</event>
<event>
 5    1  0.1766634E-003  0.9118800E+02  0.7818608E-02  0.1130116E+00
         25   -1    0    0    0    0  0.00000000000E+00  0.00000000000E+00  0.99999998245E-14  0.12500000000E+03  0.12500000000E+03 0.  0.
        -13    1    3    3    0    0  0.11185750459E+01 -0.41657544343E+02 -0.10852500636E+02  0.43062630492E+02  0.10566000000E+00 0.  1.
         23    2    1    0    0    0 -0.27911824787E+02 -0.19088245452E+01  0.82052232084E+01  0.95844567196E+02  0.91302474222E+02 0.  0.
         13    1    3    3    0    0 -0.29030399833E+02  0.39748719798E+02  0.19057723844E+02  0.52781936704E+02  0.10566000000E+00 0. -1.
         22    1    1    0    0    0  0.27911824787E+02  0.19088245452E+01 -0.82052232084E+01  0.29155432804E+02  0.00000000000E+00 0.  1.
</event>
<event>
 5    1  0.1766634E-003  0.9118800E+02  0.7818608E-02  0.1130116E+00
         25   -1    0    0    0    0  0.00000000000E+00  0.00000000000E+00  0.99999998245E-14  0.12500000000E+03  0.12500000000E+03 0.  0.
        -13    1    3    3    0    0 -0.15812540047E+02  0.37358289643E+01 -0.28908634238E+02  0.33161923019E+02  0.10566000000E+00 0. -1.
         23    2    1    0    0    0  0.12689257059E+02 -0.13806024211E+02  0.23247525853E+02  0.95132442224E+02  0.90322259471E+02 0.  0.
         13    1    3    3    0    0  0.28501797106E+02 -0.17541853176E+02  0.52156160090E+02  0.61970519205E+02  0.10566000000E+00 0.  1.
         22    1    1    0    0    0 -0.12689257059E+02  0.13806024211E+02 -0.23247525853E+02  0.29867557776E+02  0.00000000000E+00 0.  1.
</event>
<event>
 5    1  0.1766634E-003  0.9118800E+02  0.7818608E-02  0.1130116E+00
         25   -1    0    0    0    0  0.00000000000E+00  0.00000000000E+00  0.99999998245E-14  0.12500000000E+03  0.12500000000E+03 0.  0.
        -13    1    3    3    0    0  0.45634052222E+02  0.55267340389E+01 -0.30407613689E+02  0.55114840521E+02  0.10566000000E+00 0.  1.
         23    2    1    0    0    0  0.29069469910E+02 -0.41900996131E+01  0.48200802862E+01  0.95237201247E+02  0.90467122822E+02 0.  0.
         13    1    3    3    0    0 -0.16564582311E+02 -0.97168336520E+01  0.35227693976E+02  0.40122360726E+02  0.10566000000E+00 0. -1.
         22    1    1    0    0    0 -0.29069469910E+02  0.41900996131E+01 -0.48200802862E+01  0.29762798753E+02  0.00000000000E+00 0.  1.
</event>
<event>
 5    1  0.1766634E-003  0.9118800E+02  0.7818608E-02  0.1130116E+00
         25   -1    0    0    0    0  0.00000000000E+00  0.00000000000E+00  0.99999998245E-14  0.12500000000E+03  0.12500000000E+03 0.  0.
        -13    1    3    3    0    0 -0.39897683614E+02 -0.62201880513E+01  0.20074469146E+01  0.40429653774E+02  0.10566000000E+00 0. -1.
         23    2    1    0    0    0  0.10961310079E+02 -0.24181553545E+02 -0.11552509386E+02  0.96045581967E+02  0.91577265147E+02 0.  0.
         13    1    3    3    0    0  0.50858993693E+02 -0.17961365494E+02 -0.13559956301E+02  0.55615928193E+02  0.10566000000E+00 0.  1.
         22    1    1    0    0    0 -0.10961310079E+02  0.24181553545E+02  0.11552509386E+02  0.28954418033E+02  0.00000000000E+00 0.  1.
</event>
<event>
 5    1  0.1766634E-003  0.9118800E+02  0.7818608E-02  0.1130116E+00
         25   -1    0    0    0    0  0.00000000000E+00  0.00000000000E+00  0.99999998245E-14  0.12500000000E+03  0.12500000000E+03 0.  0.
        -13    1    3    3    0    0  0.38734145191E+02 -0.33747833116E+02 -0.79447284969E+01  0.51984421884E+02  0.10566000000E+00 0. -1.
         23    2    1    0    0    0  0.49672185547E+01 -0.23101984642E+02  0.17509150903E+02  0.95590047264E+02  0.90953349669E+02 0.  0.
         13    1    3    3    0    0 -0.33766926637E+02  0.10645848474E+02  0.25453879400E+02  0.43605625380E+02  0.10566000000E+00 0.  1.
         22    1    1    0    0    0 -0.49672185547E+01  0.23101984642E+02 -0.17509150903E+02  0.29409952736E+02  0.00000000000E+00 0.  1.
</event>
<event>
 5    1  0.1766634E-003  0.9118800E+02  0.7818608E-02  0.1130116E+00
         25   -1    0    0    0    0  0.00000000000E+00  0.00000000000E+00  0.99999998245E-14  0.12500000000E+03  0.12500000000E+03 0.  0.
        -13    1    3    3    0    0 -0.41683490207E+02 -0.15212312424E+02  0.35560766876E+01  0.44514993548E+02  0.10566000000E+00 0.  1.
         23    2    1    0    0    0 -0.38277449417E+01 -0.84511716540E+01 -0.28781967797E+02  0.94759702317E+02  0.89804930707E+02 0.  0.
         13    1    3    3    0    0  0.37855745266E+02  0.67611407698E+01 -0.32338044485E+02  0.50244708769E+02  0.10566000000E+00 0. -1.
         22    1    1    0    0    0  0.38277449417E+01  0.84511716540E+01  0.28781967797E+02  0.30240297683E+02  0.00000000000E+00 0. -1.
</event>
<event>
 5    1  0.1766634E-003  0.9118800E+02  0.7818608E-02  0.1130116E+00
         25   -1    0    0    0    0  0.00000000000E+00  0.00000000000E+00  0.99999998245E-14  0.12500000000E+03  0.12500000000E+03 0.  0.
        -13    1    3    3    0    0 -0.22009536852E+02  0.53568273227E+02  0.19870019619E+02  0.61227513853E+02  0.10566000000E+00 0.  1.
         23    2    1    0    0    0 -0.18538134307E+02  0.23220454747E+02  0.13168100623E+02  0.92499987443E+02  0.86602522253E+02 0.  0.
         13    1    3    3    0    0  0.34714025452E+01 -0.30347818480E+02 -0.67019189966E+01  0.31272473589E+02  0.10566000000E+00 0. -1.
         22    1    1    0    0    0  0.18538134307E+02 -0.23220454747E+02 -0.13168100623E+02  0.32500012557E+02  0.00000000000E+00 0.  1.
</event>
<event>
 5    1  0.1766634E-003  0.9118800E+02  0.7818608E-02  0.1130116E+00
         25   -1    0    0    0    0  0.00000000000E+00  0.00000000000E+00  0.99999998245E-14  0.12500000000E+03  0.12500000000E+03 0.  0.
        -13    1    3    3    0    0 -0.85203176533E+01  0.48796135511E+02 -0.29571105749E+02  0.57689861440E+02  0.10566000000E+00 0.  1.
         23    2    1    0    0    0 -0.13320905520E+02  0.75771167347E+01 -0.19143891009E+02  0.10047760646E+03  0.97439220108E+02 0.  0.
         13    1    3    3    0    0 -0.48005878670E+01 -0.41219018776E+02  0.10427214740E+02  0.42787745021E+02  0.10566000000E+00 0. -1.
         22    1    1    0    0    0  0.13320905520E+02 -0.75771167347E+01  0.19143891009E+02  0.24522393539E+02  0.00000000000E+00 0.  1.
</event>
<event>
 5    1  0.1766634E-003  0.9118800E+02  0.7818608E-02  0.1130116E+00
         25   -1    0    0    0    0  0.00000000000E+00  0.00000000000E+00  0.99999998245E-14  0.12500000000E+03  0.12500000000E+03 0.  0.
        -13    1    3    3    0    0  0.43856525316E+01  0.29708232267E+02 -0.22148333186E+02  0.37314512452E+02  0.10566000000E+00 0.  1.
         23    2    1    0    0    0  0.12886694404E+02 -0.57679416816E+00  0.26661269843E+02  0.95382051154E+02  0.90667043564E+02 0.  0.
         13    1    3    3    0    0  0.85010418728E+01 -0.30285026435E+02  0.48809603029E+02  0.58067538703E+02  0.10566000000E+00 0. -1.
         22    1    1    0    0    0 -0.12886694404E+02  0.57679416816E+00 -0.26661269843E+02  0.29617948846E+02  0.00000000000E+00 0. -1.
</event>
<event>
 5    1  0.1766634E-003  0.9118800E+02  0.7818608E-02  0.1130116E+00
         25   -1    0    0    0    0  0.00000000000E+00  0.00000000000E+00  0.99999998245E-14  0.12500000000E+03  0.12500000000E+03 0.  0.
        -13    1    3    3    0    0 -0.39472804966E+01 -0.24800356522E+02 -0.37127835796E+02  0.44823275894E+02  0.10566000000E+00 0.  1.
         23    2    1    0    0    0  0.28219779111E+02  0.33186367853E+00 -0.60275327263E+01  0.96141773836E+02  0.91708469942E+02 0.  0.
         13    1    3    3    0    0  0.32167059607E+02  0.25132220201E+02  0.31100303069E+02  0.51318497942E+02  0.10566000000E+00 0. -1.
         22    1    1    0    0    0 -0.28219779111E+02 -0.33186367853E+00  0.60275327263E+01  0.28858226164E+02  0.00000000000E+00 0. -1.
</event>
<event>
 5    1  0.1766634E-003  0.9118800E+02  0.7818608E-02  0.1130116E+00
         25   -1    0    0    0    0  0.00000000000E+00  0.00000000000E+00  0.99999998245E-14  0.12500000000E+03  0.12500000000E+03 0.  0.
        -13    1    3    3    0    0 -0.35586471513E+02 -0.26504051682E+02 -0.25854603152E+02  0.51354974233E+02  0.10566000000E+00 0. -1.
         23    2    1    0    0    0  0.48456912467E+01 -0.96271678862E+01 -0.27771793783E+02  0.95210142413E+02  0.90429727430E+02 0.  0.
         13    1    3    3    0    0  0.40432162760E+02  0.16876883795E+02 -0.19171906311E+01  0.43855168180E+02  0.10566000000E+00 0.  1.
         22    1    1    0    0    0 -0.48456912467E+01  0.96271678862E+01  0.27771793783E+02  0.29789857587E+02  0.00000000000E+00 0. -1.
</event>
<event>
 5    1  0.1766634E-003  0.9118800E+02  0.7818608E-02  0.1130116E+00
         25   -1    0    0    0    0  0.00000000000E+00  0.00000000000E+00  0.99999998245E-14  0.12500000000E+03  0.12500000000E+03 0.  0.
        -13    1    3    3    0    0  0.36800238684E+02  0.24794460012E+02  0.14407354786E+02  0.46654108612E+02  0.10566000000E+00 0. -1.
         23    2    1    0    0    0  0.10356128489E+02 -0.20402575213E+02  0.12211131873E+02  0.99064961650E+02  0.95609834288E+02 0.  0.
         13    1    3    3    0    0 -0.26444110195E+02 -0.45197035224E+02 -0.21962229128E+01  0.52410853038E+02  0.10566000000E+00 0.  1.
         22    1    1    0    0    0 -0.10356128489E+02  0.20402575213E+02 -0.12211131873E+02  0.25935038350E+02  0.00000000000E+00 0.  1.
</event>
<event>
 5    1  0.1766634E-003  0.9118800E+02  0.7818608E-02  0.1130116E+00
         25   -1    0    0    0    0  0.00000000000E+00  0.00000000000E+00  0.99999998245E-14  0.12500000000E+03  0.12500000000E+03 0.  0.
        -13    1    3    3    0    0  0.42357865745E+02  0.13384078457E+02  0.16483353973E+02  0.47381794698E+02  0.10566000000E+00 0.  1.
         23    2    1    0    0    0  0.86700171697E+01  0.22781848137E+02 -0.16587384949E+02  0.95515713648E+02  0.90851133245E+02 0.  0.
         13    1    3    3    0    0 -0.33687848575E+02  0.93977696806E+01 -0.33070738922E+02  0.48133918949E+02  0.10566000000E+00 0. -1.
         22    1    1    0    0    0 -0.86700171697E+01 -0.22781848137E+02  0.16587384949E+02  0.29484286352E+02  0.00000000000E+00 0.  1.
</event>
<event>
 5    1  0.1766634E-003  0.9118800E+02  0.7818608E-02  0.1130116E+00
         25   -1    0    0    0    0  0.00000000000E+00  0.00000000000E+00  0.99999998245E-14  0.12500000000E+03  0.12500000000E+03 0.  0.
        -13    1    3    3    0    0 -0.10199331867E+02  0.22916022391E+01 -0.36524485622E+02  0.37991144038E+02  0.10566000000E+00 0.  1.
         23    2    1    0    0    0  0.78652670642E+00  0.23524569115E+02  0.16566699319E+02  0.96216680132E+02  0.91810511560E+02 0.  0.
         13    1    3    3    0    0  0.10985858574E+02  0.21232966876E+02  0.53091184941E+02  0.58225536094E+02  0.10566000000E+00 0. -1.
         22    1    1    0    0    0 -0.78652670642E+00 -0.23524569115E+02 -0.16566699319E+02  0.28783319868E+02  0.00000000000E+00 0. -1.
</event>
<event>
 5    1  0.1766634E-003  0.9118800E+02  0.7818608E-02  0.1130116E+00
         25   -1    0    0    0    0  0.00000000000E+00  0.00000000000E+00  0.99999998245E-14  0.12500000000E+03  0.12500000000E+03 0.  0.
        -13    1    3    3    0    0 -0.15670731511E+02  0.13511298933E+02 -0.57885621252E+02  0.61472622660E+02  0.10566000000E+00 0.  1.
         23    2    1    0    0    0 -0.41815395172E+01 -0.51003695130E+00 -0.29822556363E+02  0.94881396473E+02  0.89974158057E+02 0.  0.
         13    1    3    3    0    0  0.11489191994E+02 -0.14021335885E+02  0.28063064889E+02  0.33408773813E+02  0.10566000000E+00 0. -1.
         22    1    1    0    0    0  0.41815395172E+01  0.51003695130E+00  0.29822556363E+02  0.30118603527E+02  0.00000000000E+00 0.  1.
</event>
<event>
 5    1  0.1766634E-003  0.9118800E+02  0.7818608E-02  0.1130116E+00
         25   -1    0    0    0    0  0.00000000000E+00  0.00000000000E+00  0.99999998245E-14  0.12500000000E+03  0.12500000000E+03 0.  0.
        -13    1    3    3    0    0 -0.15940426887E+02  0.22574374874E+02 -0.73372896005E+01  0.28592771692E+02  0.10566000000E+00 0.  1.
         23    2    1    0    0    0  0.29625110487E+02 -0.18378466138E+02 -0.27273086070E+01  0.90030679143E+02  0.82961857415E+02 0.  0.
         13    1    3    3    0    0  0.45565537374E+02 -0.40952841012E+02  0.46099809935E+01  0.61437907451E+02  0.10566000000E+00 0. -1.
         22    1    1    0    0    0 -0.29625110487E+02  0.18378466138E+02  0.27273086070E+01  0.34969320857E+02  0.00000000000E+00 0. -1.
</event>
<event>
 5    1  0.1766634E-003  0.9118800E+02  0.7818608E-02  0.1130116E+00
         25   -1    0    0    0    0  0.00000000000E+00  0.00000000000E+00  0.99999998245E-14  0.12500000000E+03  0.12500000000E+03 0.  0.
        -13    1    3    3    0    0  0.24171802239E+02 -0.47831807554E+02  0.68381293357E+00  0.53596983138E+02  0.10566000000E+00 0. -1.
         23    2    1    0    0    0  0.26315031620E+00 -0.23714698774E+02 -0.20524993805E+02  0.93635504839E+02  0.88226278453E+02 0.  0.
         13    1    3    3    0    0 -0.23908651922E+02  0.24117108780E+02 -0.21208806739E+02  0.40038521701E+02  0.10566000000E+00 0.  1.
         22    1    1    0    0    0 -0.26315031620E+00  0.23714698774E+02  0.20524993805E+02  0.31364495161E+02  0.00000000000E+00 0.  1.
</event>
<event>
 5    1  0.1766634E-003  0.9118800E+02  0.7818608E-02  0.1130116E+00
         25   -1    0    0    0    0  0.00000000000E+00  0.00000000000E+00  0.99999998245E-14  0.12500000000E+03  0.12500000000E+03 0.  0.
        -13    1    3    3    0    0 -0.13629602273E+02 -0.40128858890E+02  0.32185179306E+02  0.53216428901E+02  0.10566000000E+00 0. -1.
         23    2    1    0    0    0  0.16264090690E+02 -0.11885186239E+02  0.21138993722E+02  0.95800079563E+02  0.91241546956E+02 0.  0.
         13    1    3    3    0    0  0.29893692963E+02  0.28243672650E+02 -0.11046185584E+02  0.42583650663E+02  0.10566000000E+00 0.  1.
         22    1    1    0    0    0 -0.16264090690E+02  0.11885186239E+02 -0.21138993722E+02  0.29199920437E+02  0.00000000000E+00 0. -1.
</event>
<event>
 5    1  0.1766634E-003  0.9118800E+02  0.7818608E-02  0.1130116E+00
         25   -1    0    0    0    0  0.00000000000E+00  0.00000000000E+00  0.99999998245E-14  0.12500000000E+03  0.12500000000E+03 0.  0.
        -13    1    3    3    0    0 -0.21748756011E+02 -0.87894712239E+01 -0.46018644125E+02  0.51652589127E+02  0.10566000000E+00 0. -1.
         23    2    1    0    0    0  0.76137749260E+01  0.15859443379E+02 -0.21751171873E+02  0.97024921970E+02  0.92904415894E+02 0.  0.
         13    1    3    3    0    0  0.29362530937E+02  0.24648914603E+02  0.24267472252E+02  0.45372332843E+02  0.10566000000E+00 0.  1.
         22    1    1    0    0    0 -0.76137749260E+01 -0.15859443379E+02  0.21751171873E+02  0.27975078030E+02  0.00000000000E+00 0.  1.
</event>
<event>
 5    1  0.1766634E-003  0.9118800E+02  0.7818608E-02  0.1130116E+00
         25   -1    0    0    0    0  0.00000000000E+00  0.00000000000E+00  0.99999998245E-14  0.12500000000E+03  0.12500000000E+03 0.  0.
        -13    1    3    3    0    0  0.41395717644E+02  0.35024191560E+02 -0.11408607322E+02  0.55411794041E+02  0.10566000000E+00 0. -1.
         23    2    1    0    0    0  0.10493641808E+02  0.23906988876E+02  0.12518925821E+02  0.96045136174E+02  0.91576656651E+02 0.  0.
         13    1    3    3    0    0 -0.30902075837E+02 -0.11117202685E+02  0.23927533143E+02  0.40633342133E+02  0.10566000000E+00 0.  1.
         22    1    1    0    0    0 -0.10493641808E+02 -0.23906988876E+02 -0.12518925821E+02  0.28954863826E+02  0.00000000000E+00 0. -1.
</event>
<event>
 5    1  0.1766634E-003  0.9118800E+02  0.7818608E-02  0.1130116E+00
         25   -1    0    0    0    0  0.00000000000E+00  0.00000000000E+00  0.99999998245E-14  0.12500000000E+03  0.12500000000E+03 0.  0.
        -13    1    3    3    0    0 -0.34998048654E+01  0.39574826758E+01 -0.34241683783E+02  0.34646996631E+02  0.10566000000E+00 0.  1.
         23    2    1    0    0    0  0.85953349449E+01 -0.14665205807E+02  0.23204363499E+02  0.96235603091E+02  0.91836271553E+02 0.  0.
         13    1    3    3    0    0  0.12095139810E+02 -0.18622688483E+02  0.57446047282E+02  0.61588606460E+02  0.10566000000E+00 0. -1.
         22    1    1    0    0    0 -0.85953349449E+01  0.14665205807E+02 -0.23204363499E+02  0.28764396909E+02  0.00000000000E+00 0. -1.
</event>
<event>
 5    1  0.1766634E-003  0.9118800E+02  0.7818608E-02  0.1130116E+00
         25   -1    0    0    0    0  0.00000000000E+00  0.00000000000E+00  0.99999998245E-14  0.12500000000E+03  0.12500000000E+03 0.  0.
        -13    1    3    3    0    0 -0.15478179623E+02 -0.73206140492E+01 -0.53027278856E+02  0.55723145114E+02  0.10566000000E+00 0.  1.
         23    2    1    0    0    0 -0.19777004663E+02  0.12093586899E+02 -0.19482220130E+02  0.94718955455E+02  0.89748196995E+02 0.  0.
         13    1    3    3    0    0 -0.42988250395E+01  0.19414200948E+02  0.33545058726E+02  0.38995810341E+02  0.10566000000E+00 0. -1.
         22    1    1    0    0    0  0.19777004663E+02 -0.12093586899E+02  0.19482220130E+02  0.30281044545E+02  0.00000000000E+00 0.  1.
</event>
<event>
 5    1  0.1766634E-003  0.9118800E+02  0.7818608E-02  0.1130116E+00
         25   -1    0    0    0    0  0.00000000000E+00  0.00000000000E+00  0.99999998245E-14  0.12500000000E+03  0.12500000000E+03 0.  0.
        -13    1    3    3    0    0 -0.30907104494E+02 -0.21583962917E+02  0.21187967279E+02  0.43244163593E+02  0.10566000000E+00 0. -1.
         23    2    1    0    0    0  0.16833762005E+02 -0.23153385529E+02 -0.19255091072E+01  0.96309193284E+02  0.91936381923E+02 0.  0.
         13    1    3    3    0    0  0.47740866499E+02 -0.15694226115E+01 -0.23113476386E+02  0.53065029691E+02  0.10566000000E+00 0.  1.
         22    1    1    0    0    0 -0.16833762005E+02  0.23153385529E+02  0.19255091072E+01  0.28690806716E+02  0.00000000000E+00 0.  1.
</event>
<event>
 5    1  0.1766634E-003  0.9118800E+02  0.7818608E-02  0.1130116E+00
         25   -1    0    0    0    0  0.00000000000E+00  0.00000000000E+00  0.99999998245E-14  0.12500000000E+03  0.12500000000E+03 0.  0.
        -13    1    3    3    0    0  0.24541303120E+02 -0.37173422937E+02  0.31715306166E+02  0.54680990673E+02  0.10566000000E+00 0.  1.
         23    2    1    0    0    0 -0.54252892278E+01 -0.97997044073E+01  0.27279986415E+02  0.95509906265E+02  0.90843142648E+02 0.  0.
         13    1    3    3    0    0 -0.29966592348E+02  0.27373718530E+02 -0.44353197502E+01  0.40828915592E+02  0.10566000000E+00 0. -1.
         22    1    1    0    0    0  0.54252892278E+01  0.97997044073E+01 -0.27279986415E+02  0.29490093735E+02  0.00000000000E+00 0.  1.
</event>
<event>
 5    1  0.1766634E-003  0.9118800E+02  0.7818608E-02  0.1130116E+00
         25   -1    0    0    0    0  0.00000000000E+00  0.00000000000E+00  0.99999998245E-14  0.12500000000E+03  0.12500000000E+03 0.  0.
        -13    1    3    3    0    0  0.84001747345E+01  0.28200080417E+02  0.16672791897E+02  0.33820121596E+02  0.10566000000E+00 0.  1.
         23    2    1    0    0    0 -0.39636211545E+01 -0.26171121167E+02 -0.11319809749E+02  0.96211530632E+02  0.91803500249E+02 0.  0.
         13    1    3    3    0    0 -0.12363795889E+02 -0.54371201584E+02 -0.27992601646E+02  0.62391409036E+02  0.10566000000E+00 0. -1.
         22    1    1    0    0    0  0.39636211545E+01  0.26171121167E+02  0.11319809749E+02  0.28788469368E+02  0.00000000000E+00 0. -1.
</event>
<event>
 5    1  0.1766634E-003  0.9118800E+02  0.7818608E-02  0.1130116E+00
         25   -1    0    0    0    0  0.00000000000E+00  0.00000000000E+00  0.99999998245E-14  0.12500000000E+03  0.12500000000E+03 0.  0.
        -13    1    3    3    0    0  0.18303603653E+02 -0.39527558814E+02 -0.11057826558E+02  0.44941478666E+02  0.10566000000E+00 0.  1.
         23    2    1    0    0    0  0.27160748296E+02  0.94808987561E+01  0.11165146684E+01  0.96210413442E+02  0.91801979066E+02 0.  0.
         13    1    3    3    0    0  0.88571446431E+01  0.49008457570E+02  0.12174341226E+02  0.51268934775E+02  0.10566000000E+00 0. -1.
         22    1    1    0    0    0 -0.27160748296E+02 -0.94808987561E+01 -0.11165146684E+01  0.28789586558E+02  0.00000000000E+00 0.  1.
</event>
<event>
 5    1  0.1766634E-003  0.9118800E+02  0.7818608E-02  0.1130116E+00
         25   -1    0    0    0    0  0.00000000000E+00  0.00000000000E+00  0.99999998245E-14  0.12500000000E+03  0.12500000000E+03 0.  0.
        -13    1    3    3    0    0  0.15650197008E+02  0.52807632699E+02  0.22322318119E+02  0.59429553153E+02  0.10566000000E+00 0.  1.
         23    2    1    0    0    0 -0.20428025510E+01  0.30097564280E+02  0.18093669236E+01  0.94778977077E+02  0.89831755350E+02 0.  0.
         13    1    3    3    0    0 -0.17692999559E+02 -0.22710068419E+02 -0.20512951195E+02  0.35349423924E+02  0.10566000000E+00 0. -1.
         22    1    1    0    0    0  0.20428025510E+01 -0.30097564280E+02 -0.18093669236E+01  0.30221022923E+02  0.00000000000E+00 0.  1.
</event>
<event>
 5    1  0.1766634E-003  0.9118800E+02  0.7818608E-02  0.1130116E+00
         25   -1    0    0    0    0  0.00000000000E+00  0.00000000000E+00  0.99999998245E-14  0.12500000000E+03  0.12500000000E+03 0.  0.
        -13    1    3    3    0    0 -0.64489535719E+01  0.38510489872E+02 -0.29222547444E+01  0.39156066825E+02  0.10566000000E+00 0. -1.
         23    2    1    0    0    0 -0.56025395715E+01 -0.66490174415E+01  0.29168642684E+02  0.94563055367E+02  0.89530798286E+02 0.  0.
         13    1    3    3    0    0  0.84641400041E+00 -0.45159507314E+02  0.32090897428E+02  0.55406988542E+02  0.10566000000E+00 0.  1.
         22    1    1    0    0    0  0.56025395715E+01  0.66490174415E+01 -0.29168642684E+02  0.30436944633E+02  0.00000000000E+00 0.  1.
</event>
<event>
 5    1  0.1766634E-003  0.9118800E+02  0.7818608E-02  0.1130116E+00
         25   -1    0    0    0    0  0.00000000000E+00  0.00000000000E+00  0.99999998245E-14  0.12500000000E+03  0.12500000000E+03 0.  0.
        -13    1    3    3    0    0 -0.43409411359E+02 -0.20335468523E+02 -0.31156144867E+02  0.57171888211E+02  0.10566000000E+00 0.  1.
         23    2    1    0    0    0 -0.16596998796E+02 -0.22623184349E+02 -0.19668486979E+01  0.96872836387E+02  0.92699563628E+02 0.  0.
         13    1    3    3    0    0  0.26812412564E+02 -0.22877158256E+01  0.29189296169E+02  0.39700948176E+02  0.10566000000E+00 0. -1.
         22    1    1    0    0    0  0.16596998796E+02  0.22623184349E+02  0.19668486979E+01  0.28127163613E+02  0.00000000000E+00 0.  1.
</event>
<event>
 5    1  0.1766634E-003  0.9118800E+02  0.7818608E-02  0.1130116E+00
         25   -1    0    0    0    0  0.00000000000E+00  0.00000000000E+00  0.99999998245E-14  0.12500000000E+03  0.12500000000E+03 0.  0.
        -13    1    3    3    0    0 -0.11719299391E+02  0.41190025769E+01  0.46029306032E+02  0.47676161110E+02  0.10566000000E+00 0. -1.
         23    2    1    0    0    0 -0.40433726419E+01 -0.28406063146E+02  0.22243329386E+02  0.88695468769E+02  0.80925071468E+02 0.  0.
         13    1    3    3    0    0  0.76759267488E+01 -0.32525065723E+02 -0.23785976646E+02  0.41019307658E+02  0.10566000000E+00 0.  1.
         22    1    1    0    0    0  0.40433726419E+01  0.28406063146E+02 -0.22243329386E+02  0.36304531231E+02  0.00000000000E+00 0. -1.
</event>
<event>
 5    1  0.1766634E-003  0.9118800E+02  0.7818608E-02  0.1130116E+00
         25   -1    0    0    0    0  0.00000000000E+00  0.00000000000E+00  0.99999998245E-14  0.12500000000E+03  0.12500000000E+03 0.  0.
        -13    1    3    3    0    0  0.15036643191E+02 -0.23643089965E+02  0.12388955427E+02  0.30636476987E+02  0.10566000000E+00 0. -1.
         23    2    1    0    0    0 -0.21619287197E+02  0.22321469397E+02 -0.80849047328E+01  0.92890698240E+02  0.87164640538E+02 0.  0.
         13    1    3    3    0    0 -0.36655930388E+02  0.45964559362E+02 -0.20473860160E+02  0.62254221253E+02  0.10566000000E+00 0.  1.
         22    1    1    0    0    0  0.21619287197E+02 -0.22321469397E+02  0.80849047328E+01  0.32109301760E+02  0.00000000000E+00 0.  1.
</event>
<event>
 5    1  0.1766634E-003  0.9118800E+02  0.7818608E-02  0.1130116E+00
         25   -1    0    0    0    0  0.00000000000E+00  0.00000000000E+00  0.99999998245E-14  0.12500000000E+03  0.12500000000E+03 0.  0.
        -13    1    3    3    0    0 -0.20214233119E+02  0.44034821420E+02  0.47578980174E+00  0.48455322288E+02  0.10566000000E+00 0.  1.
         23    2    1    0    0    0 -0.14396021554E+02  0.39131626145E+01  0.25036241071E+02  0.95856018714E+02  0.91318150870E+02 0.  0.
         13    1    3    3    0    0  0.58182115642E+01 -0.40121658805E+02  0.24560451270E+02  0.47400696426E+02  0.10566000000E+00 0. -1.
         22    1    1    0    0    0  0.14396021554E+02 -0.39131626145E+01 -0.25036241071E+02  0.29143981286E+02  0.00000000000E+00 0. -1.
</event>
<event>
 5    1  0.1766634E-003  0.9118800E+02  0.7818608E-02  0.1130116E+00
         25   -1    0    0    0    0  0.00000000000E+00  0.00000000000E+00  0.99999998245E-14  0.12500000000E+03  0.12500000000E+03 0.  0.
        -13    1    3    3    0    0 -0.10837108249E+02 -0.51909355927E+02  0.74400550459E+01  0.53548013326E+02  0.10566000000E+00 0.  1.
         23    2    1    0    0    0  0.14844270627E+02 -0.23299156147E+02 -0.98063763726E+01  0.95685019783E+02  0.91083779817E+02 0.  0.
         13    1    3    3    0    0  0.25681378876E+02  0.28610199781E+02 -0.17246431419E+02  0.42137006457E+02  0.10566000000E+00 0. -1.
         22    1    1    0    0    0 -0.14844270627E+02  0.23299156147E+02  0.98063763726E+01  0.29314980217E+02  0.00000000000E+00 0.  1.
</event>
<event>
 5    1  0.1766634E-003  0.9118800E+02  0.7818608E-02  0.1130116E+00
         25   -1    0    0    0    0  0.00000000000E+00  0.00000000000E+00  0.99999998245E-14  0.12500000000E+03  0.12500000000E+03 0.  0.
        -13    1    3    3    0    0  0.39776622804E+02 -0.30948881598E+01  0.47071543967E+02  0.61704938780E+02  0.10566000000E+00 0. -1.
         23    2    1    0    0    0  0.13162010561E+02 -0.71355555017E+01  0.21239229702E+02  0.99014243273E+02  0.95543502230E+02 0.  0.
         13    1    3    3    0    0 -0.26614612243E+02 -0.40406673419E+01 -0.25832314266E+02  0.37309304493E+02  0.10566000000E+00 0.  1.
         22    1    1    0    0    0 -0.13162010561E+02  0.71355555017E+01 -0.21239229702E+02  0.25985756727E+02  0.00000000000E+00 0. -1.
</event>
<event>
 5    1  0.1766634E-003  0.9118800E+02  0.7818608E-02  0.1130116E+00
         25   -1    0    0    0    0  0.00000000000E+00  0.00000000000E+00  0.99999998245E-14  0.12500000000E+03  0.12500000000E+03 0.  0.
        -13    1    3    3    0    0  0.29324929818E+02  0.15837325971E+02 -0.12654399383E+02  0.35649928338E+02  0.10566000000E+00 0.  1.
         23    2    1    0    0    0 -0.26639627890E+02 -0.38002114255E+01 -0.13343690481E+02  0.94963930739E+02  0.90088748935E+02 0.  0.
         13    1    3    3    0    0 -0.55964557708E+02 -0.19637537396E+02 -0.68929109760E+00  0.59314002400E+02  0.10566000000E+00 0. -1.
         22    1    1    0    0    0  0.26639627890E+02  0.38002114255E+01  0.13343690481E+02  0.30036069261E+02  0.00000000000E+00 0. -1.
</event>
<event>
 5    1  0.1766634E-003  0.9118800E+02  0.7818608E-02  0.1130116E+00
         25   -1    0    0    0    0  0.00000000000E+00  0.00000000000E+00  0.99999998245E-14  0.12500000000E+03  0.12500000000E+03 0.  0.
        -13    1    3    3    0    0 -0.18845369091E+02  0.55736225962E+02 -0.48461161246E+00  0.58838089985E+02  0.10566000000E+00 0.  1.
         23    2    1    0    0    0 -0.83592755212E+01  0.26561011806E+02 -0.15332057230E+02  0.93212631215E+02  0.87625098024E+02 0.  0.
         13    1    3    3    0    0  0.10486093569E+02 -0.29175214155E+02 -0.14847445617E+02  0.34374541230E+02  0.10566000000E+00 0. -1.
         22    1    1    0    0    0  0.83592755212E+01 -0.26561011806E+02  0.15332057230E+02  0.31787368785E+02  0.00000000000E+00 0.  1.
</event>
<event>
 5    1  0.1766634E-003  0.9118800E+02  0.7818608E-02  0.1130116E+00
         25   -1    0    0    0    0  0.00000000000E+00  0.00000000000E+00  0.99999998245E-14  0.12500000000E+03  0.12500000000E+03 0.  0.
        -13    1    3    3    0    0  0.31432907075E+02  0.10255589722E+02 -0.49244151735E+02  0.59314436792E+02  0.10566000000E+00 0.  1.
         23    2    1    0    0    0  0.64247389472E+01 -0.67037876875E+01 -0.25862958202E+02  0.97520723320E+02  0.93569123273E+02 0.  0.
         13    1    3    3    0    0 -0.25008168128E+02 -0.16959377409E+02  0.23381193534E+02  0.38206286529E+02  0.10566000000E+00 0. -1.
         22    1    1    0    0    0 -0.64247389472E+01  0.67037876875E+01  0.25862958202E+02  0.27479276680E+02  0.00000000000E+00 0.  1.
</event>
<event>
 5    1  0.1766634E-003  0.9118800E+02  0.7818608E-02  0.1130116E+00
         25   -1    0    0    0    0  0.00000000000E+00  0.00000000000E+00  0.99999998245E-14  0.12500000000E+03  0.12500000000E+03 0.  0.
        -13    1    3    3    0    0  0.16966477561E+02 -0.20149052001E+02  0.37147161187E+02  0.45538647385E+02  0.10566000000E+00 0.  1.
         23    2    1    0    0    0 -0.23917969695E+02 -0.28779128439E+01  0.48572305323E+01  0.10042472085E+03  0.97371352119E+02 0.  0.
         13    1    3    3    0    0 -0.40884447256E+02  0.17271139157E+02 -0.32289930655E+02  0.54886073469E+02  0.10566000000E+00 0. -1.
         22    1    1    0    0    0  0.23917969695E+02  0.28779128439E+01 -0.48572305323E+01  0.24575279146E+02  0.00000000000E+00 0. -1.
</event>
<event>
 5    1  0.1766634E-003  0.9118800E+02  0.7818608E-02  0.1130116E+00
         25   -1    0    0    0    0  0.00000000000E+00  0.00000000000E+00  0.99999998245E-14  0.12500000000E+03  0.12500000000E+03 0.  0.
        -13    1    3    3    0    0  0.32030888770E+02 -0.48682313284E+02  0.63304596903E+00  0.58278275311E+02  0.10566000000E+00 0. -1.
         23    2    1    0    0    0  0.20287441139E+02 -0.17665847112E+02 -0.14167613888E+02  0.94596320857E+02  0.89577230445E+02 0.  0.
         13    1    3    3    0    0 -0.11743447631E+02  0.31016466171E+02 -0.14800659857E+02  0.36318045545E+02  0.10566000000E+00 0.  1.
         22    1    1    0    0    0 -0.20287441139E+02  0.17665847112E+02  0.14167613888E+02  0.30403679143E+02  0.00000000000E+00 0. -1.
</event>
<event>
 5    1  0.1766634E-003  0.9118800E+02  0.7818608E-02  0.1130116E+00
         25   -1    0    0    0    0  0.00000000000E+00  0.00000000000E+00  0.99999998245E-14  0.12500000000E+03  0.12500000000E+03 0.  0.
        -13    1    3    3    0    0 -0.14104400108E+02  0.41607910070E+02  0.43549110025E+02  0.61860233032E+02  0.10566000000E+00 0.  1.
         23    2    1    0    0    0 -0.26445935352E+01  0.17143874467E+02  0.24764525728E+02  0.94764457318E+02  0.89811548977E+02 0.  0.
         13    1    3    3    0    0  0.11459806573E+02 -0.24464035602E+02 -0.18784584297E+02  0.32904224286E+02  0.10566000000E+00 0. -1.
         22    1    1    0    0    0  0.26445935352E+01 -0.17143874467E+02 -0.24764525728E+02  0.30235542682E+02  0.00000000000E+00 0.  1.
</event>
<event>
 5    1  0.1766634E-003  0.9118800E+02  0.7818608E-02  0.1130116E+00
         25   -1    0    0    0    0  0.00000000000E+00  0.00000000000E+00  0.99999998245E-14  0.12500000000E+03  0.12500000000E+03 0.  0.
        -13    1    3    3    0    0 -0.46697652919E+02 -0.30466418553E+02 -0.23443392503E+02  0.60485347512E+02  0.10566000000E+00 0. -1.
         23    2    1    0    0    0 -0.27588034189E+02 -0.24201870664E+02 -0.46552723818E+01  0.88006733924E+02  0.79854138784E+02 0.  0.
         13    1    3    3    0    0  0.19109618730E+02  0.62645478891E+01  0.18788120122E+02  0.27521386411E+02  0.10566000000E+00 0.  1.
         22    1    1    0    0    0  0.27588034189E+02  0.24201870664E+02  0.46552723818E+01  0.36993266076E+02  0.00000000000E+00 0. -1.
</event>
<event>
 5    1  0.1766634E-003  0.9118800E+02  0.7818608E-02  0.1130116E+00
         25   -1    0    0    0    0  0.00000000000E+00  0.00000000000E+00  0.99999998245E-14  0.12500000000E+03  0.12500000000E+03 0.  0.
        -13    1    3    3    0    0 -0.47190092540E+02  0.10564909722E+01 -0.39520722212E+01  0.47367193774E+02  0.10566000000E+00 0.  1.
         23    2    1    0    0    0 -0.42030435922E+01 -0.12149179208E+02 -0.24900371658E+02  0.96976855288E+02  0.92839721143E+02 0.  0.
         13    1    3    3    0    0  0.42987048948E+02 -0.13205670180E+02 -0.20948299437E+02  0.49609661514E+02  0.10566000000E+00 0. -1.
         22    1    1    0    0    0  0.42030435922E+01  0.12149179208E+02  0.24900371658E+02  0.28023144712E+02  0.00000000000E+00 0.  1.
</event>
<event>
 5    1  0.1766634E-003  0.9118800E+02  0.7818608E-02  0.1130116E+00
         25   -1    0    0    0    0  0.00000000000E+00  0.00000000000E+00  0.99999998245E-14  0.12500000000E+03  0.12500000000E+03 0.  0.
        -13    1    3    3    0    0  0.26461533825E+02 -0.39525485273E+02  0.23023054118E+01  0.47621303349E+02  0.10566000000E+00 0.  1.
         23    2    1    0    0    0  0.10136264326E+02 -0.10681939989E+02 -0.28533458012E+02  0.92890719060E+02  0.87164670394E+02 0.  0.
         13    1    3    3    0    0 -0.16325269499E+02  0.28843545284E+02 -0.30835763424E+02  0.45269415710E+02  0.10566000000E+00 0. -1.
         22    1    1    0    0    0 -0.10136264326E+02  0.10681939989E+02  0.28533458012E+02  0.32109280940E+02  0.00000000000E+00 0. -1.
</event>
<event>
 5    1  0.1766634E-003  0.9118800E+02  0.7818608E-02  0.1130116E+00
         25   -1    0    0    0    0  0.00000000000E+00  0.00000000000E+00  0.99999998245E-14  0.12500000000E+03  0.12500000000E+03 0.  0.
        -13    1    3    3    0    0 -0.53145230981E+01 -0.32017720426E+02 -0.95317043962E+01  0.33826663001E+02  0.10566000000E+00 0.  1.
         23    2    1    0    0    0  0.81531243558E+00  0.23734061037E+02  0.16921745134E+02  0.95839824314E+02  0.91295980626E+02 0.  0.
         13    1    3    3    0    0  0.61298355337E+01  0.55751781463E+02  0.26453449530E+02  0.62013161313E+02  0.10566000000E+00 0. -1.
         22    1    1    0    0    0 -0.81531243558E+00 -0.23734061037E+02 -0.16921745134E+02  0.29160175686E+02  0.00000000000E+00 0. -1.
</event>
<event>
 5    1  0.1766634E-003  0.9118800E+02  0.7818608E-02  0.1130116E+00
         25   -1    0    0    0    0  0.00000000000E+00  0.00000000000E+00  0.99999998245E-14  0.12500000000E+03  0.12500000000E+03 0.  0.
        -13    1    3    3    0    0  0.85006743945E+01  0.38213384983E+02 -0.39328483349E+02  0.55491125629E+02  0.10566000000E+00 0.  1.
         23    2    1    0    0    0 -0.70784615556E+01  0.37038216019E+02 -0.14972099130E+02  0.84427868971E+02  0.74040308230E+02 0.  0.
         13    1    3    3    0    0 -0.15579135950E+02 -0.11751689642E+01  0.24356384219E+02  0.28936743343E+02  0.10566000000E+00 0. -1.
         22    1    1    0    0    0  0.70784615556E+01 -0.37038216019E+02  0.14972099130E+02  0.40572131029E+02  0.00000000000E+00 0.  1.
</event>
<event>
 5    1  0.1766634E-003  0.9118800E+02  0.7818608E-02  0.1130116E+00
         25   -1    0    0    0    0  0.00000000000E+00  0.00000000000E+00  0.99999998245E-14  0.12500000000E+03  0.12500000000E+03 0.  0.
        -13    1    3    3    0    0  0.24535168697E+02  0.39997944406E+02  0.20504433432E+02  0.51207938976E+02  0.10566000000E+00 0.  1.
         23    2    1    0    0    0  0.11284493094E+02  0.20204146858E+02 -0.17449014258E+02  0.96016980261E+02  0.91538216419E+02 0.  0.
         13    1    3    3    0    0 -0.13250675603E+02 -0.19793797548E+02 -0.37953447689E+02  0.44809041285E+02  0.10566000000E+00 0. -1.
         22    1    1    0    0    0 -0.11284493094E+02 -0.20204146858E+02  0.17449014258E+02  0.28983019739E+02  0.00000000000E+00 0.  1.
</event>
<event>
 5    1  0.1766634E-003  0.9118800E+02  0.7818608E-02  0.1130116E+00
         25   -1    0    0    0    0  0.00000000000E+00  0.00000000000E+00  0.99999998245E-14  0.12500000000E+03  0.12500000000E+03 0.  0.
        -13    1    3    3    0    0 -0.23370805021E+02 -0.32781386717E+02 -0.36038192952E+02  0.54033104276E+02  0.10566000000E+00 0.  1.
         23    2    1    0    0    0  0.26252208269E+00 -0.34943377485E+02 -0.11397690416E+02  0.88243831882E+02  0.80224422531E+02 0.  0.
         13    1    3    3    0    0  0.23633327104E+02 -0.21619907684E+01  0.24640502536E+02  0.34210727606E+02  0.10566000000E+00 0. -1.
         22    1    1    0    0    0 -0.26252208269E+00  0.34943377485E+02  0.11397690416E+02  0.36756168118E+02  0.00000000000E+00 0.  1.
</event>
<event>
 5    1  0.1766634E-003  0.9118800E+02  0.7818608E-02  0.1130116E+00
         25   -1    0    0    0    0  0.00000000000E+00  0.00000000000E+00  0.99999998245E-14  0.12500000000E+03  0.12500000000E+03 0.  0.
        -13    1    3    3    0    0 -0.75921629627E+01  0.21542466596E+02  0.28000087955E+02  0.36134953923E+02  0.10566000000E+00 0. -1.
         23    2    1    0    0    0  0.16897067082E+02 -0.22139553376E+02 -0.57986379519E+01  0.96551891068E+02  0.92265772457E+02 0.  0.
         13    1    3    3    0    0  0.24489230045E+02 -0.43682019973E+02 -0.33798725907E+02  0.60416937145E+02  0.10566000000E+00 0.  1.
         22    1    1    0    0    0 -0.16897067082E+02  0.22139553376E+02  0.57986379519E+01  0.28448108932E+02  0.00000000000E+00 0.  1.
</event>
<event>
 5    1  0.1766634E-003  0.9118800E+02  0.7818608E-02  0.1130116E+00
         25   -1    0    0    0    0  0.00000000000E+00  0.00000000000E+00  0.99999998245E-14  0.12500000000E+03  0.12500000000E+03 0.  0.
        -13    1    3    3    0    0  0.34841682494E+02 -0.14663890021E+02  0.45243850541E+02  0.58957524417E+02  0.10566000000E+00 0.  1.
         23    2    1    0    0    0  0.69415195766E+01 -0.18448826141E+02  0.21933742884E+02  0.95510460212E+02  0.90843904875E+02 0.  0.
         13    1    3    3    0    0 -0.27900162918E+02 -0.37849361200E+01 -0.23310107657E+02  0.36552935795E+02  0.10566000000E+00 0. -1.
         22    1    1    0    0    0 -0.69415195766E+01  0.18448826141E+02 -0.21933742884E+02  0.29489539788E+02  0.00000000000E+00 0.  1.
</event>
<event>
 5    1  0.1766634E-003  0.9118800E+02  0.7818608E-02  0.1130116E+00
         25   -1    0    0    0    0  0.00000000000E+00  0.00000000000E+00  0.99999998245E-14  0.12500000000E+03  0.12500000000E+03 0.  0.
        -13    1    3    3    0    0 -0.16350131039E+02 -0.27075882440E+02 -0.17435713443E+02  0.36117107611E+02  0.10566000000E+00 0.  1.
         23    2    1    0    0    0  0.28815717135E+02  0.18765377316E+01  0.73315358198E+01  0.95207075247E+02  0.90425487622E+02 0.  0.
         13    1    3    3    0    0  0.45165848174E+02  0.28952420171E+02  0.24767249263E+02  0.59089967636E+02  0.10566000000E+00 0. -1.
         22    1    1    0    0    0 -0.28815717135E+02 -0.18765377316E+01 -0.73315358198E+01  0.29792924753E+02  0.00000000000E+00 0. -1.
</event>
<event>
 5    1  0.1766634E-003  0.9118800E+02  0.7818608E-02  0.1130116E+00
         25   -1    0    0    0    0  0.00000000000E+00  0.00000000000E+00  0.99999998245E-14  0.12500000000E+03  0.12500000000E+03 0.  0.
        -13    1    3    3    0    0 -0.15723635669E+01  0.19280845320E+02 -0.37445981254E+02  0.42147787599E+02  0.10566000000E+00 0. -1.
         23    2    1    0    0    0 -0.26939903108E+02  0.14049320676E+01  0.77134718448E+01  0.96942383183E+02  0.92793296071E+02 0.  0.
         13    1    3    3    0    0 -0.25367539541E+02 -0.17875913252E+02  0.45159453098E+02  0.54794595583E+02  0.10566000000E+00 0.  1.
         22    1    1    0    0    0  0.26939903108E+02 -0.14049320676E+01 -0.77134718448E+01  0.28057616817E+02  0.00000000000E+00 0.  1.
</event>
<event>
 5    1  0.1766634E-003  0.9118800E+02  0.7818608E-02  0.1130116E+00
         25   -1    0    0    0    0  0.00000000000E+00  0.00000000000E+00  0.99999998245E-14  0.12500000000E+03  0.12500000000E+03 0.  0.
        -13    1    3    3    0    0  0.55290708446E+01 -0.30214394665E+02  0.11566083682E+02  0.32821726420E+02  0.10566000000E+00 0.  1.
         23    2    1    0    0    0 -0.13068377165E+02  0.27052528044E+02 -0.31105073454E+01  0.94795745147E+02  0.89855084924E+02 0.  0.
         13    1    3    3    0    0 -0.18597448009E+02  0.57266922709E+02 -0.14676591028E+02  0.61974018727E+02  0.10566000000E+00 0. -1.
         22    1    1    0    0    0  0.13068377165E+02 -0.27052528044E+02  0.31105073454E+01  0.30204254853E+02  0.00000000000E+00 0. -1.
</event>
<event>
 5    1  0.1766634E-003  0.9118800E+02  0.7818608E-02  0.1130116E+00
         25   -1    0    0    0    0  0.00000000000E+00  0.00000000000E+00  0.99999998245E-14  0.12500000000E+03  0.12500000000E+03 0.  0.
        -13    1    3    3    0    0  0.35653489039E+01 -0.32033029250E+02  0.73142716545E+01  0.33050513001E+02  0.10566000000E+00 0. -1.
         23    2    1    0    0    0 -0.30501430124E+01  0.29551582642E+02  0.30237542675E+01  0.95137942152E+02  0.90329870685E+02 0.  0.
         13    1    3    3    0    0 -0.66154919163E+01  0.61584611892E+02 -0.42905173871E+01  0.62087429152E+02  0.10566000000E+00 0.  1.
         22    1    1    0    0    0  0.30501430124E+01 -0.29551582642E+02 -0.30237542675E+01  0.29862057848E+02  0.00000000000E+00 0.  1.
</event>
<event>
 5    1  0.1766634E-003  0.9118800E+02  0.7818608E-02  0.1130116E+00
         25   -1    0    0    0    0  0.00000000000E+00  0.00000000000E+00  0.99999998245E-14  0.12500000000E+03  0.12500000000E+03 0.  0.
        -13    1    3    3    0    0 -0.18709273411E+02 -0.31593431386E+02 -0.12839478346E+02  0.38897881518E+02  0.10566000000E+00 0.  1.
         23    2    1    0    0    0  0.27935080313E+02 -0.38553143798E+01  0.56686978775E+01  0.96236024324E+02  0.91836844899E+02 0.  0.
         13    1    3    3    0    0  0.46644353724E+02  0.27738117006E+02  0.18508176223E+02  0.57338142807E+02  0.10566000000E+00 0. -1.
         22    1    1    0    0    0 -0.27935080313E+02  0.38553143798E+01 -0.56686978775E+01  0.28763975676E+02  0.00000000000E+00 0. -1.
</event>
<event>
 5    1  0.1766634E-003  0.9118800E+02  0.7818608E-02  0.1130116E+00
         25   -1    0    0    0    0  0.00000000000E+00  0.00000000000E+00  0.99999998245E-14  0.12500000000E+03  0.12500000000E+03 0.  0.
        -13    1    3    3    0    0 -0.12309035529E+02  0.23191292259E+02 -0.30974958302E+02  0.40605511918E+02  0.10566000000E+00 0. -1.
         23    2    1    0    0    0  0.24507765059E+02  0.40722339983E+01  0.93453586271E+01  0.98456651195E+02  0.94811195535E+02 0.  0.
         13    1    3    3    0    0  0.36816800588E+02 -0.19119058260E+02  0.40320316930E+02  0.57851139277E+02  0.10566000000E+00 0.  1.
         22    1    1    0    0    0 -0.24507765059E+02 -0.40722339983E+01 -0.93453586271E+01  0.26543348805E+02  0.00000000000E+00 0.  1.
</event>
<event>
 5    1  0.1766634E-003  0.9118800E+02  0.7818608E-02  0.1130116E+00
         25   -1    0    0    0    0  0.00000000000E+00  0.00000000000E+00  0.99999998245E-14  0.12500000000E+03  0.12500000000E+03 0.  0.
        -13    1    3    3    0    0  0.15121632976E+02 -0.19220887279E+02  0.28073084727E+02  0.37231915635E+02  0.10566000000E+00 0.  1.
         23    2    1    0    0    0 -0.59604095908E+01  0.28527246815E+02  0.14604126905E+01  0.95820159381E+02  0.91269051957E+02 0.  0.
         13    1    3    3    0    0 -0.21082042567E+02  0.47748134094E+02 -0.26612672037E+02  0.58588243746E+02  0.10566000000E+00 0. -1.
         22    1    1    0    0    0  0.59604095908E+01 -0.28527246815E+02 -0.14604126905E+01  0.29179840619E+02  0.00000000000E+00 0. -1.
</event>
<event>
 5    1  0.1766634E-003  0.9118800E+02  0.7818608E-02  0.1130116E+00
         25   -1    0    0    0    0  0.00000000000E+00  0.00000000000E+00  0.99999998245E-14  0.12500000000E+03  0.12500000000E+03 0.  0.
        -13    1    3    3    0    0  0.16980558415E+02  0.91810359221E+01 -0.54128028908E+02  0.57467255565E+02  0.10566000000E+00 0.  1.
         23    2    1    0    0    0  0.40821419870E+01  0.21380531164E+02 -0.22788028409E+02  0.93486745093E+02  0.88015261593E+02 0.  0.
         13    1    3    3    0    0 -0.12898416428E+02  0.12199495242E+02  0.31340000500E+02  0.36019489528E+02  0.10566000000E+00 0. -1.
         22    1    1    0    0    0 -0.40821419870E+01 -0.21380531164E+02  0.22788028409E+02  0.31513254907E+02  0.00000000000E+00 0.  1.
</event>
<event>
 5    1  0.1766634E-003  0.9118800E+02  0.7818608E-02  0.1130116E+00
         25   -1    0    0    0    0  0.00000000000E+00  0.00000000000E+00  0.99999998245E-14  0.12500000000E+03  0.12500000000E+03 0.  0.
        -13    1    3    3    0    0  0.47400595343E+01 -0.34205167578E+02 -0.42073748854E+02  0.54430443321E+02  0.10566000000E+00 0. -1.
         23    2    1    0    0    0 -0.18261637221E+02 -0.19623062883E+02 -0.10288866340E+02  0.96287411097E+02  0.91906761309E+02 0.  0.
         13    1    3    3    0    0 -0.23001696755E+02  0.14582104695E+02  0.31784882514E+02  0.41856967776E+02  0.10566000000E+00 0.  1.
         22    1    1    0    0    0  0.18261637221E+02  0.19623062883E+02  0.10288866340E+02  0.28712588903E+02  0.00000000000E+00 0. -1.
</event>
<event>
 5    1  0.1766634E-003  0.9118800E+02  0.7818608E-02  0.1130116E+00
         25   -1    0    0    0    0  0.00000000000E+00  0.00000000000E+00  0.99999998245E-14  0.12500000000E+03  0.12500000000E+03 0.  0.
        -13    1    3    3    0    0 -0.46310762648E+01 -0.52921545999E+02 -0.18590254766E+02  0.56282729453E+02  0.10566000000E+00 0.  1.
         23    2    1    0    0    0 -0.42880114308E+01 -0.15507091968E+02 -0.25999064071E+02  0.94425365482E+02  0.89338353301E+02 0.  0.
         13    1    3    3    0    0  0.34306483393E+00  0.37414454031E+02 -0.74088093052E+01  0.38142636030E+02  0.10566000000E+00 0. -1.
         22    1    1    0    0    0  0.42880114308E+01  0.15507091968E+02  0.25999064071E+02  0.30574634518E+02  0.00000000000E+00 0.  1.
</event>
<event>
 5    1  0.1766634E-003  0.9118800E+02  0.7818608E-02  0.1130116E+00
         25   -1    0    0    0    0  0.00000000000E+00  0.00000000000E+00  0.99999998245E-14  0.12500000000E+03  0.12500000000E+03 0.  0.
        -13    1    3    3    0    0 -0.18910993393E+02 -0.74950676319E+01  0.58667084494E+02  0.62093797412E+02  0.10566000000E+00 0.  1.
         23    2    1    0    0    0 -0.76845812358E+01  0.13526092551E+01  0.28079056426E+02  0.95856977674E+02  0.91319463524E+02 0.  0.
         13    1    3    3    0    0  0.11226412157E+02  0.88476768870E+01 -0.30588028069E+02  0.33763180262E+02  0.10566000000E+00 0. -1.
         22    1    1    0    0    0  0.76845812358E+01 -0.13526092551E+01 -0.28079056426E+02  0.29143022326E+02  0.00000000000E+00 0.  1.
</event>
<event>
 5    1  0.1766634E-003  0.9118800E+02  0.7818608E-02  0.1130116E+00
         25   -1    0    0    0    0  0.00000000000E+00  0.00000000000E+00  0.99999998245E-14  0.12500000000E+03  0.12500000000E+03 0.  0.
        -13    1    3    3    0    0 -0.30831261535E+02 -0.35115254058E+02  0.20077916900E+01  0.46772750046E+02  0.10566000000E+00 0. -1.
         23    2    1    0    0    0 -0.16301947740E+02  0.36487308762E+01  0.25607995589E+02  0.94424909236E+02  0.89337714930E+02 0.  0.
         13    1    3    3    0    0  0.14529313795E+02  0.38763984934E+02  0.23600203899E+02  0.47652159190E+02  0.10566000000E+00 0.  1.
         22    1    1    0    0    0  0.16301947740E+02 -0.36487308762E+01 -0.25607995589E+02  0.30575090764E+02  0.00000000000E+00 0.  1.
</event>
<event>
 5    1  0.1766634E-003  0.9118800E+02  0.7818608E-02  0.1130116E+00
         25   -1    0    0    0    0  0.00000000000E+00  0.00000000000E+00  0.99999998245E-14  0.12500000000E+03  0.12500000000E+03 0.  0.
        -13    1    3    3    0    0  0.24634019312E+02 -0.43359683651E+01 -0.55968061573E+02  0.61303104403E+02  0.10566000000E+00 0.  1.
         23    2    1    0    0    0  0.18941970134E+02 -0.34405271292E+01 -0.21960302020E+02  0.95795713939E+02  0.91235565899E+02 0.  0.
         13    1    3    3    0    0 -0.56920491779E+01  0.89544123594E+00  0.34007759552E+02  0.34492609537E+02  0.10566000000E+00 0. -1.
         22    1    1    0    0    0 -0.18941970134E+02  0.34405271292E+01  0.21960302020E+02  0.29204286061E+02  0.00000000000E+00 0.  1.
</event>
<event>
 5    1  0.1766634E-003  0.9118800E+02  0.7818608E-02  0.1130116E+00
         25   -1    0    0    0    0  0.00000000000E+00  0.00000000000E+00  0.99999998245E-14  0.12500000000E+03  0.12500000000E+03 0.  0.
        -13    1    3    3    0    0  0.17063327114E+02 -0.54891077735E+02  0.11602824625E+02  0.58641489156E+02  0.10566000000E+00 0.  1.
         23    2    1    0    0    0 -0.64030515553E+01 -0.31024977165E+02  0.81499993350E+01  0.92289592383E+02  0.86298308765E+02 0.  0.
         13    1    3    3    0    0 -0.23466378669E+02  0.23866100570E+02 -0.34528252898E+01  0.33648103227E+02  0.10566000000E+00 0. -1.
         22    1    1    0    0    0  0.64030515553E+01  0.31024977165E+02 -0.81499993350E+01  0.32710407617E+02  0.00000000000E+00 0.  1.
</event>
<event>
 5    1  0.1766634E-003  0.9118800E+02  0.7818608E-02  0.1130116E+00
         25   -1    0    0    0    0  0.00000000000E+00  0.00000000000E+00  0.99999998245E-14  0.12500000000E+03  0.12500000000E+03 0.  0.
        -13    1    3    3    0    0  0.88176800885E+01  0.33532370242E+02 -0.26416784160E+02  0.43589321922E+02  0.10566000000E+00 0.  1.
         23    2    1    0    0    0  0.12464035419E+01  0.18134191702E+02  0.22874990500E+02  0.95782409051E+02  0.91217335319E+02 0.  0.
         13    1    3    3    0    0 -0.75712765466E+01 -0.15398178540E+02  0.49291774660E+02  0.52193087129E+02  0.10566000000E+00 0. -1.
         22    1    1    0    0    0 -0.12464035419E+01 -0.18134191702E+02 -0.22874990500E+02  0.29217590949E+02  0.00000000000E+00 0. -1.
</event>
<event>
 5    1  0.1766634E-003  0.9118800E+02  0.7818608E-02  0.1130116E+00
         25   -1    0    0    0    0  0.00000000000E+00  0.00000000000E+00  0.99999998245E-14  0.12500000000E+03  0.12500000000E+03 0.  0.
        -13    1    3    3    0    0  0.32386330595E-01 -0.20263960065E+01  0.46803992464E+02  0.46847969052E+02  0.10566000000E+00 0. -1.
         23    2    1    0    0    0  0.62037330085E+00 -0.27366441573E+02  0.29924426231E+01  0.97463447924E+02  0.93492577144E+02 0.  0.
         13    1    3    3    0    0  0.58798697025E+00 -0.25340045566E+02 -0.43811549841E+02  0.50615478872E+02  0.10566000000E+00 0.  1.
         22    1    1    0    0    0 -0.62037330085E+00  0.27366441573E+02 -0.29924426231E+01  0.27536552076E+02  0.00000000000E+00 0.  1.
</event>
<event>
 5    1  0.1766634E-003  0.9118800E+02  0.7818608E-02  0.1130116E+00
         25   -1    0    0    0    0  0.00000000000E+00  0.00000000000E+00  0.99999998245E-14  0.12500000000E+03  0.12500000000E+03 0.  0.
        -13    1    3    3    0    0  0.11605599265E+02 -0.38754363805E+02  0.44669644838E+02  0.60265902318E+02  0.10566000000E+00 0.  1.
         23    2    1    0    0    0 -0.65181079410E+01 -0.18365287971E+02  0.20543711087E+02  0.96683686705E+02  0.92444154365E+02 0.  0.
         13    1    3    3    0    0 -0.18123707206E+02  0.20389075834E+02 -0.24125933751E+02  0.36417784387E+02  0.10566000000E+00 0. -1.
         22    1    1    0    0    0  0.65181079410E+01  0.18365287971E+02 -0.20543711087E+02  0.28316313295E+02  0.00000000000E+00 0.  1.
</event>
<event>
 5    1  0.1766634E-003  0.9118800E+02  0.7818608E-02  0.1130116E+00
         25   -1    0    0    0    0  0.00000000000E+00  0.00000000000E+00  0.99999998245E-14  0.12500000000E+03  0.12500000000E+03 0.  0.
        -13    1    3    3    0    0  0.35811015728E+02 -0.25248593342E+01  0.45067033923E+02  0.57618160963E+02  0.10566000000E+00 0.  1.
         23    2    1    0    0    0  0.23131588857E+01  0.22075643893E+01  0.30300788691E+02  0.94530969168E+02  0.89485989361E+02 0.  0.
         13    1    3    3    0    0 -0.33497856842E+02  0.47324237235E+01 -0.14766245232E+02  0.36912808205E+02  0.10566000000E+00 0. -1.
         22    1    1    0    0    0 -0.23131588857E+01 -0.22075643893E+01 -0.30300788691E+02  0.30469030832E+02  0.00000000000E+00 0.  1.
</event>
<event>
 5    1  0.1766634E-003  0.9118800E+02  0.7818608E-02  0.1130116E+00
         25   -1    0    0    0    0  0.00000000000E+00  0.00000000000E+00  0.99999998245E-14  0.12500000000E+03  0.12500000000E+03 0.  0.
        -13    1    3    3    0    0  0.50707592200E+02 -0.65094481493E+01 -0.20082535431E+02  0.54926789596E+02  0.10566000000E+00 0. -1.
         23    2    1    0    0    0  0.13274333980E+02  0.82000328923E+01 -0.25087011072E+02  0.95456699464E+02  0.90769900661E+02 0.  0.
         13    1    3    3    0    0 -0.37433258220E+02  0.14709481042E+02 -0.50044756404E+01  0.40529909868E+02  0.10566000000E+00 0.  1.
         22    1    1    0    0    0 -0.13274333980E+02 -0.82000328923E+01  0.25087011072E+02  0.29543300536E+02  0.00000000000E+00 0. -1.
</event>
<event>
 5    1  0.1766634E-003  0.9118800E+02  0.7818608E-02  0.1130116E+00
         25   -1    0    0    0    0  0.00000000000E+00  0.00000000000E+00  0.99999998245E-14  0.12500000000E+03  0.12500000000E+03 0.  0.
        -13    1    3    3    0    0 -0.54321340171E+02 -0.14592570959E+01 -0.22669492194E+02  0.58880000592E+02  0.10566000000E+00 0. -1.
         23    2    1    0    0    0 -0.22414996248E+02  0.12681831259E+02 -0.26597557353E+01  0.99109167617E+02  0.95667611574E+02 0.  0.
         13    1    3    3    0    0  0.31906343923E+02  0.14141088355E+02  0.20009736459E+02  0.40229167026E+02  0.10566000000E+00 0.  1.
         22    1    1    0    0    0  0.22414996248E+02 -0.12681831259E+02  0.26597557353E+01  0.25890832383E+02  0.00000000000E+00 0. -1.
</event>
<event>
 5    1  0.1766634E-003  0.9118800E+02  0.7818608E-02  0.1130116E+00
         25   -1    0    0    0    0  0.00000000000E+00  0.00000000000E+00  0.99999998245E-14  0.12500000000E+03  0.12500000000E+03 0.  0.
        -13    1    3    3    0    0  0.10330164246E+01 -0.80872720384E+01 -0.61256448853E+02  0.61796721451E+02  0.10566000000E+00 0.  1.
         23    2    1    0    0    0  0.63383815351E+01 -0.93910083980E+00 -0.31433595062E+02  0.92919976787E+02  0.87206617849E+02 0.  0.
         13    1    3    3    0    0  0.53053651105E+01  0.71481711986E+01  0.29822853791E+02  0.31123255336E+02  0.10566000000E+00 0. -1.
         22    1    1    0    0    0 -0.63383815351E+01  0.93910083980E+00  0.31433595062E+02  0.32080023213E+02  0.00000000000E+00 0.  1.
</event>
<event>
 5    1  0.1766634E-003  0.9118800E+02  0.7818608E-02  0.1130116E+00
         25   -1    0    0    0    0  0.00000000000E+00  0.00000000000E+00  0.99999998245E-14  0.12500000000E+03  0.12500000000E+03 0.  0.
        -13    1    3    3    0    0 -0.10872911891E+01  0.24558098972E+01  0.60628882203E+02  0.60688431563E+02  0.10566000000E+00 0. -1.
         23    2    1    0    0    0 -0.10404139269E+02 -0.27471171120E+01  0.29126121182E+02  0.93949658594E+02  0.88670257970E+02 0.  0.
         13    1    3    3    0    0 -0.93168480795E+01 -0.52029270092E+01 -0.31502761021E+02  0.33261227031E+02  0.10566000000E+00 0.  1.
         22    1    1    0    0    0  0.10404139269E+02  0.27471171120E+01 -0.29126121182E+02  0.31050341406E+02  0.00000000000E+00 0. -1.
</event>
<event>
 5    1  0.1766634E-003  0.9118800E+02  0.7818608E-02  0.1130116E+00
         25   -1    0    0    0    0  0.00000000000E+00  0.00000000000E+00  0.99999998245E-14  0.12500000000E+03  0.12500000000E+03 0.  0.
        -13    1    3    3    0    0 -0.20838654647E+02 -0.37123300504E+02  0.34404079190E+01  0.42711082150E+02  0.10566000000E+00 0.  1.
         23    2    1    0    0    0  0.22006488878E+02 -0.14529158086E+02 -0.15142948140E+02  0.94591269908E+02  0.89570181852E+02 0.  0.
         13    1    3    3    0    0  0.42845143525E+02  0.22594142418E+02 -0.18583356059E+02  0.51880187757E+02  0.10566000000E+00 0. -1.
         22    1    1    0    0    0 -0.22006488878E+02  0.14529158086E+02  0.15142948140E+02  0.30408730092E+02  0.00000000000E+00 0. -1.
</event>
<event>
 5    1  0.1766634E-003  0.9118800E+02  0.7818608E-02  0.1130116E+00
         25   -1    0    0    0    0  0.00000000000E+00  0.00000000000E+00  0.99999998245E-14  0.12500000000E+03  0.12500000000E+03 0.  0.
        -13    1    3    3    0    0 -0.14895976587E+02  0.27927134620E+02 -0.47164809519E+02  0.56800927699E+02  0.10566000000E+00 0. -1.
         23    2    1    0    0    0 -0.14573602143E+02 -0.47469274109E+01 -0.22654083873E+02  0.97648021728E+02  0.93739028329E+02 0.  0.
         13    1    3    3    0    0  0.32237444396E+00 -0.32674062031E+02  0.24510725646E+02  0.40847094028E+02  0.10566000000E+00 0.  1.
         22    1    1    0    0    0  0.14573602143E+02  0.47469274109E+01  0.22654083873E+02  0.27351978272E+02  0.00000000000E+00 0. -1.
</event>
<event>
 5    1  0.1766634E-003  0.9118800E+02  0.7818608E-02  0.1130116E+00
         25   -1    0    0    0    0  0.00000000000E+00  0.00000000000E+00  0.99999998245E-14  0.12500000000E+03  0.12500000000E+03 0.  0.
        -13    1    3    3    0    0  0.29495968081E+02 -0.28443966893E+02 -0.33582234195E+02  0.52979703691E+02  0.10566000000E+00 0.  1.
         23    2    1    0    0    0  0.29747025055E+02  0.15091462966E+01 -0.42337577066E+01  0.94915324059E+02  0.90021280899E+02 0.  0.
         13    1    3    3    0    0  0.25105697422E+00  0.29953113190E+02  0.29348476489E+02  0.41935620367E+02  0.10566000000E+00 0. -1.
         22    1    1    0    0    0 -0.29747025055E+02 -0.15091462966E+01  0.42337577066E+01  0.30084675941E+02  0.00000000000E+00 0. -1.
</event>
<event>
 5    1  0.1766634E-003  0.9118800E+02  0.7818608E-02  0.1130116E+00
         25   -1    0    0    0    0  0.00000000000E+00  0.00000000000E+00  0.99999998245E-14  0.12500000000E+03  0.12500000000E+03 0.  0.
        -13    1    3    3    0    0 -0.32536703835E+01  0.49776300894E+01 -0.27379520201E+02  0.28018073859E+02  0.10566000000E+00 0.  1.
         23    2    1    0    0    0 -0.16160729978E+02 -0.65826454741E+01  0.31279226758E+02  0.89182539992E+02  0.81673955445E+02 0.  0.
         13    1    3    3    0    0 -0.12907059595E+02 -0.11560275564E+02  0.58658746959E+02  0.61164466133E+02  0.10566000000E+00 0. -1.
         22    1    1    0    0    0  0.16160729978E+02  0.65826454741E+01 -0.31279226758E+02  0.35817460008E+02  0.00000000000E+00 0. -1.
</event>
<event>
 5    1  0.1766634E-003  0.9118800E+02  0.7818608E-02  0.1130116E+00
         25   -1    0    0    0    0  0.00000000000E+00  0.00000000000E+00  0.99999998245E-14  0.12500000000E+03  0.12500000000E+03 0.  0.
        -13    1    3    3    0    0  0.39047496149E+02 -0.19709891565E+02 -0.95897056846E+01  0.44779017410E+02  0.10566000000E+00 0.  1.
         23    2    1    0    0    0  0.16865263773E+02  0.20558527971E+02  0.12304273865E+02  0.95700079355E+02  0.91104444671E+02 0.  0.
         13    1    3    3    0    0 -0.22182232376E+02  0.40268419536E+02  0.21893979550E+02  0.50921061945E+02  0.10566000000E+00 0. -1.
         22    1    1    0    0    0 -0.16865263773E+02 -0.20558527971E+02 -0.12304273865E+02  0.29299920645E+02  0.00000000000E+00 0.  1.
</event>
<event>
 5    1  0.1766634E-003  0.9118800E+02  0.7818608E-02  0.1130116E+00
         25   -1    0    0    0    0  0.00000000000E+00  0.00000000000E+00  0.99999998245E-14  0.12500000000E+03  0.12500000000E+03 0.  0.
        -13    1    3    3    0    0 -0.32589477437E+01 -0.11926854336E+01 -0.41765981979E+02  0.41910042396E+02  0.10566000000E+00 0.  1.
         23    2    1    0    0    0 -0.47764669502E+01  0.21767059227E+02  0.11492130574E+02  0.99926337143E+02  0.96729438569E+02 0.  0.
         13    1    3    3    0    0 -0.15175192064E+01  0.22959744661E+02  0.53258112553E+02  0.58016294747E+02  0.10566000000E+00 0. -1.
         22    1    1    0    0    0  0.47764669502E+01 -0.21767059227E+02 -0.11492130574E+02  0.25073662857E+02  0.00000000000E+00 0.  1.
</event>
<event>
 5    1  0.1766634E-003  0.9118800E+02  0.7818608E-02  0.1130116E+00
         25   -1    0    0    0    0  0.00000000000E+00  0.00000000000E+00  0.99999998245E-14  0.12500000000E+03  0.12500000000E+03 0.  0.
        -13    1    3    3    0    0 -0.23213084856E+02  0.39371493652E+02 -0.14923871543E+01  0.45729642513E+02  0.10566000000E+00 0. -1.
         23    2    1    0    0    0 -0.20739225564E+02 -0.38120427551E+01 -0.22796845768E+02  0.93946122240E+02  0.88665272570E+02 0.  0.
         13    1    3    3    0    0  0.24738592915E+01 -0.43183536407E+02 -0.21304458614E+02  0.48216479727E+02  0.10566000000E+00 0.  1.
         22    1    1    0    0    0  0.20739225564E+02  0.38120427551E+01  0.22796845768E+02  0.31053877760E+02  0.00000000000E+00 0.  1.
</event>
<event>
 5    1  0.1766634E-003  0.9118800E+02  0.7818608E-02  0.1130116E+00
         25   -1    0    0    0    0  0.00000000000E+00  0.00000000000E+00  0.99999998245E-14  0.12500000000E+03  0.12500000000E+03 0.  0.
        -13    1    3    3    0    0  0.30917417052E+02 -0.21080925513E+02  0.44563754454E+01  0.37685044033E+02  0.10566000000E+00 0.  1.
         23    2    1    0    0    0 -0.17247555231E+02 -0.73570648907E+01 -0.23416549684E+02  0.95001010611E+02  0.90140183341E+02 0.  0.
         13    1    3    3    0    0 -0.48164972283E+02  0.13723860622E+02 -0.27872925130E+02  0.57315966578E+02  0.10566000000E+00 0. -1.
         22    1    1    0    0    0  0.17247555231E+02  0.73570648907E+01  0.23416549684E+02  0.29998989389E+02  0.00000000000E+00 0. -1.
</event>
<event>
 5    1  0.1766634E-003  0.9118800E+02  0.7818608E-02  0.1130116E+00
         25   -1    0    0    0    0  0.00000000000E+00  0.00000000000E+00  0.99999998245E-14  0.12500000000E+03  0.12500000000E+03 0.  0.
        -13    1    3    3    0    0 -0.13181871714E+02 -0.17122269665E+02  0.54474374520E+02  0.58603775508E+02  0.10566000000E+00 0. -1.
         23    2    1    0    0    0  0.90073763797E+01 -0.50062354362E+01  0.27780638268E+02  0.95369625634E+02  0.90649911243E+02 0.  0.
         13    1    3    3    0    0  0.22189248094E+02  0.12116034228E+02 -0.26693736252E+02  0.36765850126E+02  0.10566000000E+00 0.  1.
         22    1    1    0    0    0 -0.90073763797E+01  0.50062354362E+01 -0.27780638268E+02  0.29630374366E+02  0.00000000000E+00 0. -1.
</event>
<event>
 5    1  0.1766634E-003  0.9118800E+02  0.7818608E-02  0.1130116E+00
         25   -1    0    0    0    0  0.00000000000E+00  0.00000000000E+00  0.99999998245E-14  0.12500000000E+03  0.12500000000E+03 0.  0.
        -13    1    3    3    0    0 -0.43651912113E+01  0.24656283270E+02 -0.25401895960E+02  0.35668679277E+02  0.10566000000E+00 0. -1.
         23    2    1    0    0    0  0.14202762644E+02 -0.25917908038E+02  0.48791483658E+00  0.95441676558E+02  0.90749210132E+02 0.  0.
         13    1    3    3    0    0  0.18567953855E+02 -0.50574191308E+02  0.25889810796E+02  0.59772997281E+02  0.10566000000E+00 0.  1.
         22    1    1    0    0    0 -0.14202762644E+02  0.25917908038E+02 -0.48791483658E+00  0.29558323442E+02  0.00000000000E+00 0.  1.
</event>
<event>
 5    1  0.1766634E-003  0.9118800E+02  0.7818608E-02  0.1130116E+00
         25   -1    0    0    0    0  0.00000000000E+00  0.00000000000E+00  0.99999998245E-14  0.12500000000E+03  0.12500000000E+03 0.  0.
        -13    1    3    3    0    0 -0.32522467068E+02 -0.19293291079E+02 -0.34697608122E+02  0.51321312515E+02  0.10566000000E+00 0.  1.
         23    2    1    0    0    0 -0.66757609954E+01  0.17715156734E+02 -0.16120065614E+02  0.10013538501E+03  0.96999207490E+02 0.  0.
         13    1    3    3    0    0  0.25846706072E+02  0.37008447813E+02  0.18577542508E+02  0.48814072500E+02  0.10566000000E+00 0. -1.
         22    1    1    0    0    0  0.66757609954E+01 -0.17715156734E+02  0.16120065614E+02  0.24864614985E+02  0.00000000000E+00 0.  1.
</event>
<event>
 5    1  0.1766634E-003  0.9118800E+02  0.7818608E-02  0.1130116E+00
         25   -1    0    0    0    0  0.00000000000E+00  0.00000000000E+00  0.99999998245E-14  0.12500000000E+03  0.12500000000E+03 0.  0.
        -13    1    3    3    0    0 -0.35569154390E+01 -0.90803789028E+01 -0.30597441061E+02  0.32114163417E+02  0.10566000000E+00 0. -1.
         23    2    1    0    0    0  0.19532890686E+02  0.18385162952E+01  0.24954555296E+02  0.93256594531E+02  0.87687790671E+02 0.  0.
         13    1    3    3    0    0  0.23089806125E+02  0.10918895198E+02  0.55551996357E+02  0.61142431114E+02  0.10566000000E+00 0.  1.
         22    1    1    0    0    0 -0.19532890686E+02 -0.18385162952E+01 -0.24954555296E+02  0.31743405469E+02  0.00000000000E+00 0.  1.
</event>
<event>
 5    1  0.1766634E-003  0.9118800E+02  0.7818608E-02  0.1130116E+00
         25   -1    0    0    0    0  0.00000000000E+00  0.00000000000E+00  0.99999998245E-14  0.12500000000E+03  0.12500000000E+03 0.  0.
        -13    1    3    3    0    0  0.16369438380E+02  0.37763739417E+02 -0.29394000581E+02  0.50577435303E+02  0.10566000000E+00 0.  1.
         23    2    1    0    0    0  0.23670929403E+02  0.14021733893E+02  0.87793716871E+01  0.96120954181E+02  0.91680088052E+02 0.  0.
         13    1    3    3    0    0  0.73014910228E+01 -0.23742005524E+02  0.38173372268E+02  0.45543518878E+02  0.10566000000E+00 0. -1.
         22    1    1    0    0    0 -0.23670929403E+02 -0.14021733893E+02 -0.87793716871E+01  0.28879045819E+02  0.00000000000E+00 0.  1.
</event>
<event>
 5    1  0.1766634E-003  0.9118800E+02  0.7818608E-02  0.1130116E+00
         25   -1    0    0    0    0  0.00000000000E+00  0.00000000000E+00  0.99999998245E-14  0.12500000000E+03  0.12500000000E+03 0.  0.
        -13    1    3    3    0    0  0.28622764546E+02 -0.33426548695E+02 -0.46250922724E+01  0.44249287570E+02  0.10566000000E+00 0. -1.
         23    2    1    0    0    0 -0.21354593599E+02 -0.18757060670E+02  0.37735844882E+00  0.96574863375E+02  0.92296889675E+02 0.  0.
         13    1    3    3    0    0 -0.49977358145E+02  0.14669488025E+02  0.50024507212E+01  0.52325575805E+02  0.10566000000E+00 0.  1.
         22    1    1    0    0    0  0.21354593599E+02  0.18757060670E+02 -0.37735844882E+00  0.28425136625E+02  0.00000000000E+00 0.  1.
</event>
<event>
 5    1  0.1766634E-003  0.9118800E+02  0.7818608E-02  0.1130116E+00
         25   -1    0    0    0    0  0.00000000000E+00  0.00000000000E+00  0.99999998245E-14  0.12500000000E+03  0.12500000000E+03 0.  0.
        -13    1    3    3    0    0  0.19000105166E+02  0.75616131276E+00  0.54354683577E+02  0.57584881410E+02  0.10566000000E+00 0.  1.
         23    2    1    0    0    0  0.73354310138E+01 -0.16975756277E+02  0.22298131090E+02  0.96031197825E+02  0.91557629154E+02 0.  0.
         13    1    3    3    0    0 -0.11664674153E+02 -0.17731917590E+02 -0.32056552487E+02  0.38446316415E+02  0.10566000000E+00 0. -1.
         22    1    1    0    0    0 -0.73354310138E+01  0.16975756277E+02 -0.22298131090E+02  0.28968802175E+02  0.00000000000E+00 0.  1.
</event>
<event>
 5    1  0.1766634E-003  0.9118800E+02  0.7818608E-02  0.1130116E+00
         25   -1    0    0    0    0  0.00000000000E+00  0.00000000000E+00  0.99999998245E-14  0.12500000000E+03  0.12500000000E+03 0.  0.
        -13    1    3    3    0    0  0.35376905448E+02 -0.14111343129E+01 -0.49416153385E+02  0.60790493652E+02  0.10566000000E+00 0.  1.
         23    2    1    0    0    0  0.99193218186E+01 -0.42127088361E+01 -0.30562403940E+02  0.92593204483E+02  0.86736965134E+02 0.  0.
         13    1    3    3    0    0 -0.25457583629E+02 -0.28015745232E+01  0.18853749444E+02  0.31802710831E+02  0.10566000000E+00 0. -1.
         22    1    1    0    0    0 -0.99193218186E+01  0.42127088361E+01  0.30562403940E+02  0.32406795517E+02  0.00000000000E+00 0.  1.
</event>
<event>
 5    1  0.1766634E-003  0.9118800E+02  0.7818608E-02  0.1130116E+00
         25   -1    0    0    0    0  0.00000000000E+00  0.00000000000E+00  0.99999998245E-14  0.12500000000E+03  0.12500000000E+03 0.  0.
        -13    1    3    3    0    0 -0.17960809368E+02 -0.54074509719E+02  0.73361382346E+00  0.56984143652E+02  0.10566000000E+00 0.  1.
         23    2    1    0    0    0  0.71012668671E+01 -0.26856786254E+02  0.10584631934E+02  0.95272077231E+02  0.90515298749E+02 0.  0.
         13    1    3    3    0    0  0.25062076235E+02  0.27217723465E+02  0.98510181108E+01  0.38287933578E+02  0.10566000000E+00 0. -1.
         22    1    1    0    0    0 -0.71012668671E+01  0.26856786254E+02 -0.10584631934E+02  0.29727922769E+02  0.00000000000E+00 0.  1.
</event>
<event>
 5    1  0.1766634E-003  0.9118800E+02  0.7818608E-02  0.1130116E+00
         25   -1    0    0    0    0  0.00000000000E+00  0.00000000000E+00  0.99999998245E-14  0.12500000000E+03  0.12500000000E+03 0.  0.
        -13    1    3    3    0    0  0.34973300175E+02 -0.31177582372E+02 -0.52242080486E+01  0.47143153071E+02  0.10566000000E+00 0.  1.
         23    2    1    0    0    0  0.20438316150E+02  0.65169933378E+01  0.20735378374E+02  0.95164586721E+02  0.90366734368E+02 0.  0.
         13    1    3    3    0    0 -0.14534984025E+02  0.37694575710E+02  0.25959586422E+02  0.48021433650E+02  0.10566000000E+00 0. -1.
         22    1    1    0    0    0 -0.20438316150E+02 -0.65169933378E+01 -0.20735378374E+02  0.29835413279E+02  0.00000000000E+00 0. -1.
</event>
<event>
 5    1  0.1766634E-003  0.9118800E+02  0.7818608E-02  0.1130116E+00
         25   -1    0    0    0    0  0.00000000000E+00  0.00000000000E+00  0.99999998245E-14  0.12500000000E+03  0.12500000000E+03 0.  0.
        -13    1    3    3    0    0 -0.27526526503E+02 -0.40934795519E+02  0.11799323819E+02  0.50720827597E+02  0.10566000000E+00 0. -1.
         23    2    1    0    0    0 -0.14850407376E+02  0.94646610034E+00  0.24544612905E+02  0.96296891806E+02  0.91919654871E+02 0.  0.
         13    1    3    3    0    0  0.12676119127E+02  0.41881261619E+02  0.12745289086E+02  0.45576064210E+02  0.10566000000E+00 0.  1.
         22    1    1    0    0    0  0.14850407376E+02 -0.94646610034E+00 -0.24544612905E+02  0.28703108194E+02  0.00000000000E+00 0.  1.
</event>
<event>
 5    1  0.1766634E-003  0.9118800E+02  0.7818608E-02  0.1130116E+00
         25   -1    0    0    0    0  0.00000000000E+00  0.00000000000E+00  0.99999998245E-14  0.12500000000E+03  0.12500000000E+03 0.  0.
        -13    1    3    3    0    0  0.26003100246E+02  0.84868228942E+01 -0.50714382509E+02  0.57620717998E+02  0.10566000000E+00 0. -1.
         23    2    1    0    0    0  0.24313797950E+02 -0.65854384117E+01 -0.16941156949E+02  0.94643261561E+02  0.89642709633E+02 0.  0.
         13    1    3    3    0    0 -0.16893022960E+01 -0.15072261306E+02  0.33773225560E+02  0.37022543563E+02  0.10566000000E+00 0.  1.
         22    1    1    0    0    0 -0.24313797950E+02  0.65854384117E+01  0.16941156949E+02  0.30356738439E+02  0.00000000000E+00 0. -1.
</event>
<event>
 5    1  0.1766634E-003  0.9118800E+02  0.7818608E-02  0.1130116E+00
         25   -1    0    0    0    0  0.00000000000E+00  0.00000000000E+00  0.99999998245E-14  0.12500000000E+03  0.12500000000E+03 0.  0.
        -13    1    3    3    0    0 -0.35681067804E+02  0.44113421047E+01  0.10644402012E+02  0.37495506358E+02  0.10566000000E+00 0.  1.
         23    2    1    0    0    0  0.71989590425E+01  0.21807516550E+02 -0.21261965390E+02  0.93703611045E+02  0.88322719395E+02 0.  0.
         13    1    3    3    0    0  0.42880026847E+02  0.17396174445E+02 -0.31906367402E+02  0.56208104687E+02  0.10566000000E+00 0. -1.
         22    1    1    0    0    0 -0.71989590425E+01 -0.21807516550E+02  0.21261965390E+02  0.31296388955E+02  0.00000000000E+00 0. -1.
</event>
<event>
 5    1  0.1766634E-003  0.9118800E+02  0.7818608E-02  0.1130116E+00
         25   -1    0    0    0    0  0.00000000000E+00  0.00000000000E+00  0.99999998245E-14  0.12500000000E+03  0.12500000000E+03 0.  0.
        -13    1    3    3    0    0 -0.14118391996E+02 -0.13308999662E+02 -0.58138904486E+02  0.61291123692E+02  0.10566000000E+00 0. -1.
         23    2    1    0    0    0 -0.10565071248E+02 -0.10563927896E+02 -0.18330626686E+02  0.10135197307E+03  0.98554519262E+02 0.  0.
         13    1    3    3    0    0  0.35533207475E+01  0.27450717665E+01  0.39808277800E+02  0.40060849376E+02  0.10566000000E+00 0.  1.
         22    1    1    0    0    0  0.10565071248E+02  0.10563927896E+02  0.18330626686E+02  0.23648026932E+02  0.00000000000E+00 0. -1.
</event>
<event>
 5    1  0.1766634E-003  0.9118800E+02  0.7818608E-02  0.1130116E+00
         25   -1    0    0    0    0  0.00000000000E+00  0.00000000000E+00  0.99999998245E-14  0.12500000000E+03  0.12500000000E+03 0.  0.
        -13    1    3    3    0    0 -0.15575216052E+02 -0.34402353079E+02  0.22168511032E+02  0.43789990841E+02  0.10566000000E+00 0.  1.
         23    2    1    0    0    0  0.20763015127E+01  0.11359946641E+02 -0.15526170308E+02  0.10565002894E+03  0.10386292522E+03 0.  0.
         13    1    3    3    0    0  0.17651517564E+02  0.45762299720E+02 -0.37694681340E+02  0.61860038097E+02  0.10566000000E+00 0. -1.
         22    1    1    0    0    0 -0.20763015127E+01 -0.11359946641E+02  0.15526170308E+02  0.19349971062E+02  0.00000000000E+00 0. -1.
</event>
<event>
 5    1  0.1766634E-003  0.9118800E+02  0.7818608E-02  0.1130116E+00
         25   -1    0    0    0    0  0.00000000000E+00  0.00000000000E+00  0.99999998245E-14  0.12500000000E+03  0.12500000000E+03 0.  0.
        -13    1    3    3    0    0 -0.14145514044E+01  0.11048365017E+02  0.45480447460E+02  0.46824668609E+02  0.10566000000E+00 0. -1.
         23    2    1    0    0    0 -0.23181210902E+02  0.53349211311E+01 -0.37163414010E+01  0.10092426292E+03  0.98010538877E+02 0.  0.
         13    1    3    3    0    0 -0.21766659498E+02 -0.57134438856E+01 -0.49196788861E+02  0.54099594314E+02  0.10566000000E+00 0.  1.
         22    1    1    0    0    0  0.23181210902E+02 -0.53349211311E+01  0.37163414010E+01  0.24075737076E+02  0.00000000000E+00 0.  1.
</event>
<event>
 5    1  0.1766634E-003  0.9118800E+02  0.7818608E-02  0.1130116E+00
         25   -1    0    0    0    0  0.00000000000E+00  0.00000000000E+00  0.99999998245E-14  0.12500000000E+03  0.12500000000E+03 0.  0.
        -13    1    3    3    0    0 -0.44347538863E+02  0.19835132544E+02 -0.17979501657E+02  0.51801644087E+02  0.10566000000E+00 0. -1.
         23    2    1    0    0    0 -0.77645230291E+01  0.29497046332E+02  0.16997054626E+01  0.94450817379E+02  0.89373957866E+02 0.  0.
         13    1    3    3    0    0  0.36583015834E+02  0.96619137874E+01  0.19679207120E+02  0.42649173291E+02  0.10566000000E+00 0.  1.
         22    1    1    0    0    0  0.77645230291E+01 -0.29497046332E+02 -0.16997054626E+01  0.30549182621E+02  0.00000000000E+00 0. -1.
</event>
<event>
 5    1  0.1766634E-003  0.9118800E+02  0.7818608E-02  0.1130116E+00
         25   -1    0    0    0    0  0.00000000000E+00  0.00000000000E+00  0.99999998245E-14  0.12500000000E+03  0.12500000000E+03 0.  0.
        -13    1    3    3    0    0  0.57246996174E+02 -0.48005674871E+01 -0.13006586475E+02  0.58902007393E+02  0.10566000000E+00 0.  1.
         23    2    1    0    0    0  0.21478798896E+02 -0.15455950601E+02 -0.11194616382E+02  0.96267707246E+02  0.91879958704E+02 0.  0.
         13    1    3    3    0    0 -0.35768197278E+02 -0.10655383114E+02  0.18119700931E+01  0.37365699853E+02  0.10566000000E+00 0. -1.
         22    1    1    0    0    0 -0.21478798896E+02  0.15455950601E+02  0.11194616382E+02  0.28732292754E+02  0.00000000000E+00 0.  1.
</event>
<event>
 5    1  0.1766634E-003  0.9118800E+02  0.7818608E-02  0.1130116E+00
         25   -1    0    0    0    0  0.00000000000E+00  0.00000000000E+00  0.99999998245E-14  0.12500000000E+03  0.12500000000E+03 0.  0.
        -13    1    3    3    0    0  0.19651877360E+02  0.33792624126E+02 -0.49150968133E+01  0.39399328292E+02  0.10566000000E+00 0.  1.
         23    2    1    0    0    0 -0.25069604876E+02  0.55077930583E+01 -0.17679893557E+02  0.93832717327E+02  0.88505250306E+02 0.  0.
         13    1    3    3    0    0 -0.44721482236E+02 -0.28284831068E+02 -0.12764796744E+02  0.54433389035E+02  0.10566000000E+00 0. -1.
         22    1    1    0    0    0  0.25069604876E+02 -0.55077930583E+01  0.17679893557E+02  0.31167282673E+02  0.00000000000E+00 0. -1.
</event>
<event>
 5    1  0.1766634E-003  0.9118800E+02  0.7818608E-02  0.1130116E+00
         25   -1    0    0    0    0  0.00000000000E+00  0.00000000000E+00  0.99999998245E-14  0.12500000000E+03  0.12500000000E+03 0.  0.
        -13    1    3    3    0    0  0.11939816888E+02  0.22856310566E+02 -0.30152297975E+02  0.39675463415E+02  0.10566000000E+00 0.  1.
         23    2    1    0    0    0 -0.30716422008E+02  0.22304029945E+01 -0.35906790209E+01  0.93994093235E+02  0.88732876143E+02 0.  0.
         13    1    3    3    0    0 -0.42656238897E+02 -0.20625907572E+02  0.26561618954E+02  0.54318629819E+02  0.10566000000E+00 0. -1.
         22    1    1    0    0    0  0.30716422008E+02 -0.22304029945E+01  0.35906790209E+01  0.31005906765E+02  0.00000000000E+00 0. -1.
</event>
<event>
 5    1  0.1766634E-003  0.9118800E+02  0.7818608E-02  0.1130116E+00
         25   -1    0    0    0    0  0.00000000000E+00  0.00000000000E+00  0.99999998245E-14  0.12500000000E+03  0.12500000000E+03 0.  0.
        -13    1    3    3    0    0  0.55028065103E+02 -0.76310125736E+01 -0.49303651177E+01  0.55773111497E+02  0.10566000000E+00 0. -1.
         23    2    1    0    0    0  0.24904890825E+02  0.44720765809E+01  0.16609006114E+02  0.94732655550E+02  0.89767276262E+02 0.  0.
         13    1    3    3    0    0 -0.30123174278E+02  0.12103089155E+02  0.21539371232E+02  0.38959544052E+02  0.10566000000E+00 0.  1.
         22    1    1    0    0    0 -0.24904890825E+02 -0.44720765809E+01 -0.16609006114E+02  0.30267344450E+02  0.00000000000E+00 0. -1.
</event>
<event>
 5    1  0.1766634E-003  0.9118800E+02  0.7818608E-02  0.1130116E+00
         25   -1    0    0    0    0  0.00000000000E+00  0.00000000000E+00  0.99999998245E-14  0.12500000000E+03  0.12500000000E+03 0.  0.
        -13    1    3    3    0    0 -0.25969382798E+02  0.44359892104E+02  0.34058543546E+02  0.61662017668E+02  0.10566000000E+00 0.  1.
         23    2    1    0    0    0 -0.16545602799E+02  0.16051238437E+02  0.19230979194E+02  0.94979510529E+02  0.90110363622E+02 0.  0.
         13    1    3    3    0    0  0.94237799989E+01 -0.28308653667E+02 -0.14827564352E+02  0.33317492861E+02  0.10566000000E+00 0. -1.
         22    1    1    0    0    0  0.16545602799E+02 -0.16051238437E+02 -0.19230979194E+02  0.30020489471E+02  0.00000000000E+00 0.  1.
</event>
<event>
 5    1  0.1766634E-003  0.9118800E+02  0.7818608E-02  0.1130116E+00
         25   -1    0    0    0    0  0.00000000000E+00  0.00000000000E+00  0.99999998245E-14  0.12500000000E+03  0.12500000000E+03 0.  0.
        -13    1    3    3    0    0 -0.26307230712E+02 -0.41750914575E+02 -0.76002922201E+01  0.49929799333E+02  0.10566000000E+00 0. -1.
         23    2    1    0    0    0 -0.23910844272E+02  0.47938201135E+00  0.13857530119E+02  0.97359641430E+02  0.93353684220E+02 0.  0.
         13    1    3    3    0    0  0.23963864400E+01  0.42230296587E+02  0.21457822339E+02  0.47429842097E+02  0.10566000000E+00 0.  1.
         22    1    1    0    0    0  0.23910844272E+02 -0.47938201135E+00 -0.13857530119E+02  0.27640358570E+02  0.00000000000E+00 0. -1.
</event>
<event>
 5    1  0.1766634E-003  0.9118800E+02  0.7818608E-02  0.1130116E+00
         25   -1    0    0    0    0  0.00000000000E+00  0.00000000000E+00  0.99999998245E-14  0.12500000000E+03  0.12500000000E+03 0.  0.
        -13    1    3    3    0    0 -0.89780046259E+01  0.17348830929E+02 -0.26838208576E+02  0.33194684895E+02  0.10566000000E+00 0. -1.
         23    2    1    0    0    0  0.29655738241E+02 -0.13791148263E+02  0.46527754528E+01  0.91965065454E+02  0.85826955926E+02 0.  0.
         13    1    3    3    0    0  0.38633742867E+02 -0.31139979192E+02  0.31490984029E+02  0.58770380560E+02  0.10566000000E+00 0.  1.
         22    1    1    0    0    0 -0.29655738241E+02  0.13791148263E+02 -0.46527754528E+01  0.33034934546E+02  0.00000000000E+00 0.  1.
</event>
<event>
 5    1  0.1766634E-003  0.9118800E+02  0.7818608E-02  0.1130116E+00
         25   -1    0    0    0    0  0.00000000000E+00  0.00000000000E+00  0.99999998245E-14  0.12500000000E+03  0.12500000000E+03 0.  0.
        -13    1    3    3    0    0 -0.39086499234E+02 -0.12198987786E+02  0.24004797853E+02  0.47463788401E+02  0.10566000000E+00 0.  1.
         23    2    1    0    0    0 -0.10853163059E+02  0.23834980800E+02  0.17006445171E+02  0.93773142401E+02  0.88421069889E+02 0.  0.
         13    1    3    3    0    0  0.28233336175E+02  0.36033968586E+02 -0.69983526814E+01  0.46309354000E+02  0.10566000000E+00 0. -1.
         22    1    1    0    0    0  0.10853163059E+02 -0.23834980800E+02 -0.17006445171E+02  0.31226857599E+02  0.00000000000E+00 0.  1.
</event>
<event>
 5    1  0.1766634E-003  0.9118800E+02  0.7818608E-02  0.1130116E+00
         25   -1    0    0    0    0  0.00000000000E+00  0.00000000000E+00  0.99999998245E-14  0.12500000000E+03  0.12500000000E+03 0.  0.
        -13    1    3    3    0    0  0.13035275727E+02 -0.23343367697E+02  0.22227748197E+02  0.34769457613E+02  0.10566000000E+00 0. -1.
         23    2    1    0    0    0 -0.24440827445E+02 -0.39519648582E+02  0.90682475663E+01  0.77656681737E+02  0.61556237980E+02 0.  0.
         13    1    3    3    0    0 -0.37476103172E+02 -0.16176280885E+02 -0.13159500631E+02  0.42887224124E+02  0.10566000000E+00 0.  1.
         22    1    1    0    0    0  0.24440827445E+02  0.39519648582E+02 -0.90682475663E+01  0.47343318263E+02  0.00000000000E+00 0.  1.
</event>
<event>
 5    1  0.1766634E-003  0.9118800E+02  0.7818608E-02  0.1130116E+00
         25   -1    0    0    0    0  0.00000000000E+00  0.00000000000E+00  0.99999998245E-14  0.12500000000E+03  0.12500000000E+03 0.  0.
        -13    1    3    3    0    0 -0.36935646760E+02  0.12067032513E+02  0.21262806525E+01  0.38915132130E+02  0.10566000000E+00 0.  1.
         23    2    1    0    0    0 -0.76241342968E+01 -0.14685488185E+02 -0.30507261032E+02  0.90294323769E+02  0.83358148625E+02 0.  0.
         13    1    3    3    0    0  0.29311512463E+02 -0.26752520698E+02 -0.32633541685E+02  0.51379191639E+02  0.10566000000E+00 0. -1.
         22    1    1    0    0    0  0.76241342968E+01  0.14685488185E+02  0.30507261032E+02  0.34705676231E+02  0.00000000000E+00 0.  1.
</event>
<event>
 5    1  0.1766634E-003  0.9118800E+02  0.7818608E-02  0.1130116E+00
         25   -1    0    0    0    0  0.00000000000E+00  0.00000000000E+00  0.99999998245E-14  0.12500000000E+03  0.12500000000E+03 0.  0.
        -13    1    3    3    0    0  0.44294798975E+02 -0.30010270617E+01 -0.13056032681E+01  0.44415663269E+02  0.10566000000E+00 0. -1.
         23    2    1    0    0    0  0.91217345098E+01 -0.21310696416E+02  0.24140780790E+02  0.91531669905E+02  0.85193412165E+02 0.  0.
         13    1    3    3    0    0 -0.35173064465E+02 -0.18309669354E+02  0.25446384058E+02  0.47116006637E+02  0.10566000000E+00 0.  1.
         22    1    1    0    0    0 -0.91217345098E+01  0.21310696416E+02 -0.24140780790E+02  0.33468330095E+02  0.00000000000E+00 0. -1.
</event>
<event>
 5    1  0.1766634E-003  0.9118800E+02  0.7818608E-02  0.1130116E+00
         25   -1    0    0    0    0  0.00000000000E+00  0.00000000000E+00  0.99999998245E-14  0.12500000000E+03  0.12500000000E+03 0.  0.
        -13    1    3    3    0    0  0.26028989510E+02 -0.15589186239E+02 -0.24008899091E+02  0.38690689088E+02  0.10566000000E+00 0. -1.
         23    2    1    0    0    0  0.30520228310E+01 -0.92741066041E+01  0.27701942595E+02  0.95627878520E+02  0.91005327482E+02 0.  0.
         13    1    3    3    0    0 -0.22976966679E+02  0.63150796345E+01  0.51710841686E+02  0.56937189433E+02  0.10566000000E+00 0.  1.
         22    1    1    0    0    0 -0.30520228310E+01  0.92741066041E+01 -0.27701942595E+02  0.29372121480E+02  0.00000000000E+00 0.  1.
</event>
<event>
 5    1  0.1766634E-003  0.9118800E+02  0.7818608E-02  0.1130116E+00
         25   -1    0    0    0    0  0.00000000000E+00  0.00000000000E+00  0.99999998245E-14  0.12500000000E+03  0.12500000000E+03 0.  0.
        -13    1    3    3    0    0 -0.41925768674E+02  0.36040998118E+02  0.17130050958E+02  0.57880682737E+02  0.10566000000E+00 0.  1.
         23    2    1    0    0    0 -0.81905922572E+01  0.20361775379E+02  0.20152001129E+02  0.95204180703E+02  0.90421486250E+02 0.  0.
         13    1    3    3    0    0  0.33735176417E+02 -0.15679222739E+02  0.30219501710E+01  0.37323497966E+02  0.10566000000E+00 0. -1.
         22    1    1    0    0    0  0.81905922572E+01 -0.20361775379E+02 -0.20152001129E+02  0.29795819297E+02  0.00000000000E+00 0.  1.
</event>
<event>
 5    1  0.1766634E-003  0.9118800E+02  0.7818608E-02  0.1130116E+00
         25   -1    0    0    0    0  0.00000000000E+00  0.00000000000E+00  0.99999998245E-14  0.12500000000E+03  0.12500000000E+03 0.  0.
        -13    1    3    3    0    0 -0.63211462349E+01  0.15503714127E+02 -0.28781145194E+02  0.33296959684E+02  0.10566000000E+00 0. -1.
         23    2    1    0    0    0  0.39752855737E+01 -0.26137026215E+02  0.15011645447E+02  0.94597754462E+02  0.89579230938E+02 0.  0.
         13    1    3    3    0    0  0.10296431809E+02 -0.41640740342E+02  0.43792790641E+02  0.61300794778E+02  0.10566000000E+00 0.  1.
         22    1    1    0    0    0 -0.39752855737E+01  0.26137026215E+02 -0.15011645447E+02  0.30402245538E+02  0.00000000000E+00 0.  1.
</event>
<event>
 5    1  0.1766634E-003  0.9118800E+02  0.7818608E-02  0.1130116E+00
         25   -1    0    0    0    0  0.00000000000E+00  0.00000000000E+00  0.99999998245E-14  0.12500000000E+03  0.12500000000E+03 0.  0.
        -13    1    3    3    0    0 -0.33094578476E+02  0.27149601085E+02  0.43498618477E+02  0.61028623915E+02  0.10566000000E+00 0.  1.
         23    2    1    0    0    0 -0.23179947166E+02  0.10479182043E+02  0.15105120623E+02  0.95414735493E+02  0.90712093313E+02 0.  0.
         13    1    3    3    0    0  0.99146313098E+01 -0.16670419042E+02 -0.28393497854E+02  0.34386111578E+02  0.10566000000E+00 0. -1.
         22    1    1    0    0    0  0.23179947166E+02 -0.10479182043E+02 -0.15105120623E+02  0.29585264507E+02  0.00000000000E+00 0.  1.
</event>
<event>
 5    1  0.1766634E-003  0.9118800E+02  0.7818608E-02  0.1130116E+00
         25   -1    0    0    0    0  0.00000000000E+00  0.00000000000E+00  0.99999998245E-14  0.12500000000E+03  0.12500000000E+03 0.  0.
        -13    1    3    3    0    0  0.23075245352E+01  0.28553090010E+02  0.51051997317E+02  0.58539911280E+02  0.10566000000E+00 0. -1.
         23    2    1    0    0    0  0.19132726020E+01 -0.11872301961E+01  0.29847316711E+02  0.95067869397E+02  0.90232850721E+02 0.  0.
         13    1    3    3    0    0 -0.39425193320E+00 -0.29740320207E+02 -0.21204680605E+02  0.36527958117E+02  0.10566000000E+00 0.  1.
         22    1    1    0    0    0 -0.19132726020E+01  0.11872301961E+01 -0.29847316711E+02  0.29932130603E+02  0.00000000000E+00 0. -1.
</event>
<event>
 5    1  0.1766634E-003  0.9118800E+02  0.7818608E-02  0.1130116E+00
         25   -1    0    0    0    0  0.00000000000E+00  0.00000000000E+00  0.99999998245E-14  0.12500000000E+03  0.12500000000E+03 0.  0.
        -13    1    3    3    0    0 -0.29788905660E+02 -0.31466148551E+02  0.26033907979E+02  0.50549707554E+02  0.10566000000E+00 0.  1.
         23    2    1    0    0    0  0.11131365140E+02 -0.12579352705E+02  0.24053587062E+02  0.95661928234E+02  0.91052084318E+02 0.  0.
         13    1    3    3    0    0  0.40920270801E+02  0.18886795847E+02 -0.19803209167E+01  0.45112220680E+02  0.10566000000E+00 0. -1.
         22    1    1    0    0    0 -0.11131365140E+02  0.12579352705E+02 -0.24053587062E+02  0.29338071766E+02  0.00000000000E+00 0. -1.
</event>
<event>
 5    1  0.1766634E-003  0.9118800E+02  0.7818608E-02  0.1130116E+00
         25   -1    0    0    0    0  0.00000000000E+00  0.00000000000E+00  0.99999998245E-14  0.12500000000E+03  0.12500000000E+03 0.  0.
        -13    1    3    3    0    0 -0.43719455073E+01  0.29405189716E+02 -0.18231472496E+02  0.34873727119E+02  0.10566000000E+00 0. -1.
         23    2    1    0    0    0 -0.81485655115E+01 -0.16081921610E+02  0.22582369745E+02  0.96103793573E+02  0.91656687662E+02 0.  0.
         13    1    3    3    0    0 -0.37766200042E+01 -0.45487111325E+02  0.40813842242E+02  0.61230066454E+02  0.10566000000E+00 0.  1.
         22    1    1    0    0    0  0.81485655115E+01  0.16081921610E+02 -0.22582369745E+02  0.28896206427E+02  0.00000000000E+00 0.  1.
</event>
<event>
 5    1  0.1766634E-003  0.9118800E+02  0.7818608E-02  0.1130116E+00
         25   -1    0    0    0    0  0.00000000000E+00  0.00000000000E+00  0.99999998245E-14  0.12500000000E+03  0.12500000000E+03 0.  0.
        -13    1    3    3    0    0  0.27651605344E+02  0.32179553048E+02  0.59651919207E+01  0.42845415054E+02  0.10566000000E+00 0. -1.
         23    2    1    0    0    0  0.10932959755E+02 -0.16505150501E+02  0.20668311201E+02  0.96379575650E+02  0.92032026558E+02 0.  0.
         13    1    3    3    0    0 -0.16718645589E+02 -0.48684703550E+02  0.14703119281E+02  0.53534160595E+02  0.10566000000E+00 0.  1.
         22    1    1    0    0    0 -0.10932959755E+02  0.16505150501E+02 -0.20668311201E+02  0.28620424350E+02  0.00000000000E+00 0.  1.
</event>
<event>
 5    1  0.1766634E-003  0.9118800E+02  0.7818608E-02  0.1130116E+00
         25   -1    0    0    0    0  0.00000000000E+00  0.00000000000E+00  0.99999998245E-14  0.12500000000E+03  0.12500000000E+03 0.  0.
        -13    1    3    3    0    0 -0.20457935237E+02 -0.78787929442E+01  0.37606286111E+02  0.43529833580E+02  0.10566000000E+00 0.  1.
         23    2    1    0    0    0 -0.15083269585E+02  0.26066360955E+02 -0.54595046095E+00  0.94879271976E+02  0.89971206472E+02 0.  0.
         13    1    3    3    0    0  0.53746656526E+01  0.33945153899E+02 -0.38152236572E+02  0.51349438396E+02  0.10566000000E+00 0. -1.
         22    1    1    0    0    0  0.15083269585E+02 -0.26066360955E+02  0.54595046095E+00  0.30120728024E+02  0.00000000000E+00 0. -1.
</event>
<event>
 5    1  0.1766634E-003  0.9118800E+02  0.7818608E-02  0.1130116E+00
         25   -1    0    0    0    0  0.00000000000E+00  0.00000000000E+00  0.99999998245E-14  0.12500000000E+03  0.12500000000E+03 0.  0.
        -13    1    3    3    0    0 -0.24096534981E+02 -0.26999306471E+02 -0.87134470409E+01  0.37222854154E+02  0.10566000000E+00 0.  1.
         23    2    1    0    0    0  0.27233472368E+02 -0.89743498682E+00  0.69082756678E+01  0.96889651737E+02  0.92722235382E+02 0.  0.
         13    1    3    3    0    0  0.51330007349E+02  0.26101871484E+02  0.15621722709E+02  0.59666797583E+02  0.10566000000E+00 0. -1.
         22    1    1    0    0    0 -0.27233472368E+02  0.89743498682E+00 -0.69082756678E+01  0.28110348263E+02  0.00000000000E+00 0. -1.
</event>
<event>
 5    1  0.1766634E-003  0.9118800E+02  0.7818608E-02  0.1130116E+00
         25   -1    0    0    0    0  0.00000000000E+00  0.00000000000E+00  0.99999998245E-14  0.12500000000E+03  0.12500000000E+03 0.  0.
        -13    1    3    3    0    0  0.41350041130E+02  0.24770196682E+02  0.13980099262E+02  0.50188075123E+02  0.10566000000E+00 0. -1.
         23    2    1    0    0    0  0.25129149753E+02 -0.15845595215E+02  0.42893176751E+01  0.94984082537E+02  0.90116705634E+02 0.  0.
         13    1    3    3    0    0 -0.16220891377E+02 -0.40615791897E+02 -0.96907815869E+01  0.44796007414E+02  0.10566000000E+00 0.  1.
         22    1    1    0    0    0 -0.25129149753E+02  0.15845595215E+02 -0.42893176751E+01  0.30015917463E+02  0.00000000000E+00 0.  1.
</event>
<event>
 5    1  0.1766634E-003  0.9118800E+02  0.7818608E-02  0.1130116E+00
         25   -1    0    0    0    0  0.00000000000E+00  0.00000000000E+00  0.99999998245E-14  0.12500000000E+03  0.12500000000E+03 0.  0.
        -13    1    3    3    0    0 -0.17789919614E+02 -0.21642296866E+02  0.30080776424E+02  0.41106380622E+02  0.10566000000E+00 0.  1.
         23    2    1    0    0    0 -0.11532635859E+02  0.19381683313E+02 -0.11354712923E+02  0.99749636766E+02  0.96500824823E+02 0.  0.
         13    1    3    3    0    0  0.62572837556E+01  0.41023980179E+02 -0.41435489347E+02  0.58643256144E+02  0.10566000000E+00 0. -1.
         22    1    1    0    0    0  0.11532635859E+02 -0.19381683313E+02  0.11354712923E+02  0.25250363234E+02  0.00000000000E+00 0. -1.
</event>
<event>
 5    1  0.1766634E-003  0.9118800E+02  0.7818608E-02  0.1130116E+00
         25   -1    0    0    0    0  0.00000000000E+00  0.00000000000E+00  0.99999998245E-14  0.12500000000E+03  0.12500000000E+03 0.  0.
        -13    1    3    3    0    0  0.14839832914E+02 -0.24185991458E+02  0.43334938105E+02  0.51798753347E+02  0.10566000000E+00 0. -1.
         23    2    1    0    0    0 -0.40572155461E+01  0.12299268290E+02  0.25107511737E+02  0.96748979770E+02  0.92532399420E+02 0.  0.
         13    1    3    3    0    0 -0.18897048460E+02  0.36485259748E+02 -0.18227426368E+02  0.44950226422E+02  0.10566000000E+00 0.  1.
         22    1    1    0    0    0  0.40572155461E+01 -0.12299268290E+02 -0.25107511737E+02  0.28251020230E+02  0.00000000000E+00 0. -1.
</event>
<event>
 5    1  0.1766634E-003  0.9118800E+02  0.7818608E-02  0.1130116E+00
         25   -1    0    0    0    0  0.00000000000E+00  0.00000000000E+00  0.99999998245E-14  0.12500000000E+03  0.12500000000E+03 0.  0.
        -13    1    3    3    0    0 -0.31465260657E+02  0.38138055611E+01 -0.41862559697E+02  0.52508026144E+02  0.10566000000E+00 0.  1.
         23    2    1    0    0    0 -0.24310040420E+02  0.16689891612E+02 -0.15007496354E+01  0.95474031824E+02  0.90793766064E+02 0.  0.
         13    1    3    3    0    0  0.71552202371E+01  0.12876086051E+02  0.40361810062E+02  0.42966005680E+02  0.10566000000E+00 0. -1.
         22    1    1    0    0    0  0.24310040420E+02 -0.16689891612E+02  0.15007496354E+01  0.29525968176E+02  0.00000000000E+00 0.  1.
</event>
<event>
 5    1  0.1766634E-003  0.9118800E+02  0.7818608E-02  0.1130116E+00
         25   -1    0    0    0    0  0.00000000000E+00  0.00000000000E+00  0.99999998245E-14  0.12500000000E+03  0.12500000000E+03 0.  0.
        -13    1    3    3    0    0  0.53881998278E+02  0.80276238350E+01 -0.10436634430E+02  0.55467530909E+02  0.10566000000E+00 0.  1.
         23    2    1    0    0    0  0.25323743540E+02 -0.16510308088E+02  0.79417163940E+00  0.94759084527E+02  0.89804070797E+02 0.  0.
         13    1    3    3    0    0 -0.28558254737E+02 -0.24537931923E+02  0.11230806069E+02  0.39291553618E+02  0.10566000000E+00 0. -1.
         22    1    1    0    0    0 -0.25323743540E+02  0.16510308088E+02 -0.79417163940E+00  0.30240915473E+02  0.00000000000E+00 0.  1.
</event>
<event>
 5    1  0.1766634E-003  0.9118800E+02  0.7818608E-02  0.1130116E+00
         25   -1    0    0    0    0  0.00000000000E+00  0.00000000000E+00  0.99999998245E-14  0.12500000000E+03  0.12500000000E+03 0.  0.
        -13    1    3    3    0    0  0.12794304426E+02  0.28327685587E+02 -0.31230068637E+02  0.44062232667E+02  0.10566000000E+00 0. -1.
         23    2    1    0    0    0  0.10756284944E+02  0.19725191131E+02  0.19313010610E+02  0.95372762367E+02  0.90654236480E+02 0.  0.
         13    1    3    3    0    0 -0.20380194822E+01 -0.86024944565E+01  0.50543079247E+02  0.51310529700E+02  0.10566000000E+00 0.  1.
         22    1    1    0    0    0 -0.10756284944E+02 -0.19725191131E+02 -0.19313010610E+02  0.29627237633E+02  0.00000000000E+00 0.  1.
</event>
<event>
 5    1  0.1766634E-003  0.9118800E+02  0.7818608E-02  0.1130116E+00
         25   -1    0    0    0    0  0.00000000000E+00  0.00000000000E+00  0.99999998245E-14  0.12500000000E+03  0.12500000000E+03 0.  0.
        -13    1    3    3    0    0 -0.19363216778E+02  0.22104864135E+02  0.31841299171E+02  0.43329420483E+02  0.10566000000E+00 0. -1.
         23    2    1    0    0    0  0.21273212734E+02 -0.85996398475E+01  0.17197214006E+02  0.96325140713E+02  0.91958062062E+02 0.  0.
         13    1    3    3    0    0  0.40636429513E+02 -0.30704503982E+02 -0.14644085165E+02  0.52995720230E+02  0.10566000000E+00 0.  1.
         22    1    1    0    0    0 -0.21273212734E+02  0.85996398475E+01 -0.17197214006E+02  0.28674859287E+02  0.00000000000E+00 0.  1.
</event>
<event>
 5    1  0.1766634E-003  0.9118800E+02  0.7818608E-02  0.1130116E+00
         25   -1    0    0    0    0  0.00000000000E+00  0.00000000000E+00  0.99999998245E-14  0.12500000000E+03  0.12500000000E+03 0.  0.
        -13    1    3    3    0    0  0.13887967298E+02  0.29862655437E+02  0.85768559849E+01  0.34032740825E+02  0.10566000000E+00 0. -1.
         23    2    1    0    0    0 -0.15282120391E+02 -0.63654175434E+01 -0.27503562505E+02  0.92898478313E+02  0.87175796976E+02 0.  0.
         13    1    3    3    0    0 -0.29170087689E+02 -0.36228072981E+02 -0.36080418490E+02  0.58865737489E+02  0.10566000000E+00 0.  1.
         22    1    1    0    0    0  0.15282120391E+02  0.63654175434E+01  0.27503562505E+02  0.32101521687E+02  0.00000000000E+00 0.  1.
</event>
<event>
 5    1  0.1766634E-003  0.9118800E+02  0.7818608E-02  0.1130116E+00
         25   -1    0    0    0    0  0.00000000000E+00  0.00000000000E+00  0.99999998245E-14  0.12500000000E+03  0.12500000000E+03 0.  0.
        -13    1    3    3    0    0 -0.35393826803E+02  0.15545327962E+02 -0.94157437837E+01  0.39787530612E+02  0.10566000000E+00 0.  1.
         23    2    1    0    0    0 -0.41414932365E+01 -0.28627997301E+02  0.46641432014E+01  0.95700368133E+02  0.91104840889E+02 0.  0.
         13    1    3    3    0    0  0.31252333566E+02 -0.44173325263E+02  0.14079886985E+02  0.55912837521E+02  0.10566000000E+00 0. -1.
         22    1    1    0    0    0  0.41414932365E+01  0.28627997301E+02 -0.46641432014E+01  0.29299631867E+02  0.00000000000E+00 0. -1.
</event>
<event>
 5    1  0.1766634E-003  0.9118800E+02  0.7818608E-02  0.1130116E+00
         25   -1    0    0    0    0  0.00000000000E+00  0.00000000000E+00  0.99999998245E-14  0.12500000000E+03  0.12500000000E+03 0.  0.
        -13    1    3    3    0    0 -0.19704281216E+01  0.24146650349E+02  0.38804882586E+02  0.45746840182E+02  0.10566000000E+00 0.  1.
         23    2    1    0    0    0 -0.24174036444E+02 -0.11139145127E+02  0.93673709711E+01  0.96782767126E+02  0.92578030771E+02 0.  0.
         13    1    3    3    0    0 -0.22203608322E+02 -0.35285795476E+02 -0.29437511615E+02  0.51035926944E+02  0.10566000000E+00 0. -1.
         22    1    1    0    0    0  0.24174036444E+02  0.11139145127E+02 -0.93673709711E+01  0.28217232874E+02  0.00000000000E+00 0. -1.
</event>
<event>
 5    1  0.1766634E-003  0.9118800E+02  0.7818608E-02  0.1130116E+00
         25   -1    0    0    0    0  0.00000000000E+00  0.00000000000E+00  0.99999998245E-14  0.12500000000E+03  0.12500000000E+03 0.  0.
        -13    1    3    3    0    0 -0.72681890049E+01  0.28775490514E+02 -0.42768848754E+02  0.52058054262E+02  0.10566000000E+00 0.  1.
         23    2    1    0    0    0 -0.25525500173E+02  0.14510385585E+02 -0.67710709789E+01  0.94867793790E+02  0.89955258031E+02 0.  0.
         13    1    3    3    0    0 -0.18257311168E+02 -0.14265104928E+02  0.35997777775E+02  0.42809739528E+02  0.10566000000E+00 0. -1.
         22    1    1    0    0    0  0.25525500173E+02 -0.14510385585E+02  0.67710709789E+01  0.30132206210E+02  0.00000000000E+00 0.  1.
</event>
<event>
 5    1  0.1766634E-003  0.9118800E+02  0.7818608E-02  0.1130116E+00
         25   -1    0    0    0    0  0.00000000000E+00  0.00000000000E+00  0.99999998245E-14  0.12500000000E+03  0.12500000000E+03 0.  0.
        -13    1    3    3    0    0  0.99859309391E+01 -0.42282261376E+02 -0.19999298242E+02  0.47827727711E+02  0.10566000000E+00 0. -1.
         23    2    1    0    0    0  0.28858002419E+02 -0.16058760404E+01 -0.24039165035E+01  0.95997552586E+02  0.91511683114E+02 0.  0.
         13    1    3    3    0    0  0.18872071480E+02  0.40676385336E+02  0.17595381738E+02  0.48169824875E+02  0.10566000000E+00 0.  1.
         22    1    1    0    0    0 -0.28858002419E+02  0.16058760404E+01  0.24039165035E+01  0.29002447414E+02  0.00000000000E+00 0.  1.
</event>
<event>
 5    1  0.1766634E-003  0.9118800E+02  0.7818608E-02  0.1130116E+00
         25   -1    0    0    0    0  0.00000000000E+00  0.00000000000E+00  0.99999998245E-14  0.12500000000E+03  0.12500000000E+03 0.  0.
        -13    1    3    3    0    0 -0.17658379709E+01  0.22259829678E+02 -0.49807556317E+02  0.54584082216E+02  0.10566000000E+00 0.  1.
         23    2    1    0    0    0 -0.89888387181E+01  0.25423047095E+02 -0.83698029097E+01  0.96765550371E+02  0.92554781577E+02 0.  0.
         13    1    3    3    0    0 -0.72230007473E+01  0.31632174170E+01  0.41437753408E+02  0.42181468155E+02  0.10566000000E+00 0. -1.
         22    1    1    0    0    0  0.89888387181E+01 -0.25423047095E+02  0.83698029097E+01  0.28234449629E+02  0.00000000000E+00 0.  1.
</event>
<event>
 5    1  0.1766634E-003  0.9118800E+02  0.7818608E-02  0.1130116E+00
         25   -1    0    0    0    0  0.00000000000E+00  0.00000000000E+00  0.99999998245E-14  0.12500000000E+03  0.12500000000E+03 0.  0.
        -13    1    3    3    0    0  0.74711497961E+01  0.11233138329E+01  0.34093658091E+02  0.34920890586E+02  0.10566000000E+00 0.  1.
         23    2    1    0    0    0  0.76439131309E+00  0.17587636761E+02 -0.23751143110E+02  0.95436068260E+02  0.90741484807E+02 0.  0.
         13    1    3    3    0    0 -0.67067584830E+01  0.16464322928E+02 -0.57844801201E+02  0.60515177674E+02  0.10566000000E+00 0. -1.
         22    1    1    0    0    0 -0.76439131309E+00 -0.17587636761E+02  0.23751143110E+02  0.29563931740E+02  0.00000000000E+00 0. -1.
</event>
<event>
 5    1  0.1766634E-003  0.9118800E+02  0.7818608E-02  0.1130116E+00
         25   -1    0    0    0    0  0.00000000000E+00  0.00000000000E+00  0.99999998245E-14  0.12500000000E+03  0.12500000000E+03 0.  0.
        -13    1    3    3    0    0 -0.17289857683E+01 -0.29534362283E+02  0.23112525997E+02  0.37542881738E+02  0.10566000000E+00 0. -1.
         23    2    1    0    0    0 -0.22824291370E+02  0.18384721713E+02 -0.20261425052E+01  0.95622261448E+02  0.90997611847E+02 0.  0.
         13    1    3    3    0    0 -0.21095305602E+02  0.47919083995E+02 -0.25138668502E+02  0.58079379710E+02  0.10566000000E+00 0.  1.
         22    1    1    0    0    0  0.22824291370E+02 -0.18384721713E+02  0.20261425052E+01  0.29377738552E+02  0.00000000000E+00 0.  1.
</event>
<event>
 5    1  0.1766634E-003  0.9118800E+02  0.7818608E-02  0.1130116E+00
         25   -1    0    0    0    0  0.00000000000E+00  0.00000000000E+00  0.99999998245E-14  0.12500000000E+03  0.12500000000E+03 0.  0.
        -13    1    3    3    0    0 -0.30900677665E+02  0.21604324476E+02  0.32780780470E+02  0.49961879954E+02  0.10566000000E+00 0. -1.
         23    2    1    0    0    0 -0.81497451641E+01 -0.15862347647E+02  0.24701556440E+02  0.94533636422E+02  0.89489715083E+02 0.  0.
         13    1    3    3    0    0  0.22750932501E+02 -0.37466672123E+02 -0.80792240309E+01  0.44571756468E+02  0.10566000000E+00 0.  1.
         22    1    1    0    0    0  0.81497451641E+01  0.15862347647E+02 -0.24701556440E+02  0.30466363578E+02  0.00000000000E+00 0. -1.
</event>
<event>
 5    1  0.1766634E-003  0.9118800E+02  0.7818608E-02  0.1130116E+00
         25   -1    0    0    0    0  0.00000000000E+00  0.00000000000E+00  0.99999998245E-14  0.12500000000E+03  0.12500000000E+03 0.  0.
        -13    1    3    3    0    0  0.10195009801E+02  0.35555533419E+02 -0.32151030872E+01  0.37127917171E+02  0.10566000000E+00 0.  1.
         23    2    1    0    0    0 -0.27104418170E+02 -0.80625011986E+01  0.80151018614E+01  0.95607904672E+02  0.90977888346E+02 0.  0.
         13    1    3    3    0    0 -0.37299427971E+02 -0.43618034618E+02  0.11230204949E+02  0.58479987501E+02  0.10566000000E+00 0. -1.
         22    1    1    0    0    0  0.27104418170E+02  0.80625011986E+01 -0.80151018614E+01  0.29392095328E+02  0.00000000000E+00 0. -1.
</event>
<event>
 5    1  0.1766634E-003  0.9118800E+02  0.7818608E-02  0.1130116E+00
         25   -1    0    0    0    0  0.00000000000E+00  0.00000000000E+00  0.99999998245E-14  0.12500000000E+03  0.12500000000E+03 0.  0.
        -13    1    3    3    0    0 -0.71870476069E+01  0.22919843085E+02 -0.51785891991E+02  0.57085572903E+02  0.10566000000E+00 0. -1.
         23    2    1    0    0    0  0.27167409620E+01 -0.52958169665E+01 -0.30829541612E+02  0.93601162525E+02  0.88177608445E+02 0.  0.
         13    1    3    3    0    0  0.99037885689E+01 -0.28215660051E+02  0.20956350379E+02  0.36515589621E+02  0.10566000000E+00 0.  1.
         22    1    1    0    0    0 -0.27167409620E+01  0.52958169665E+01  0.30829541612E+02  0.31398837475E+02  0.00000000000E+00 0. -1.
</event>
<event>
 5    1  0.1766634E-003  0.9118800E+02  0.7818608E-02  0.1130116E+00
         25   -1    0    0    0    0  0.00000000000E+00  0.00000000000E+00  0.99999998245E-14  0.12500000000E+03  0.12500000000E+03 0.  0.
        -13    1    3    3    0    0 -0.26497033693E+02 -0.22039741364E+01  0.24133896730E+02  0.35908305891E+02  0.10566000000E+00 0. -1.
         23    2    1    0    0    0  0.12340133987E+02 -0.16836224871E+02 -0.19717689073E+02  0.96285462966E+02  0.91904111668E+02 0.  0.
         13    1    3    3    0    0  0.38837167680E+02 -0.14632250734E+02 -0.43851585803E+02  0.60377157075E+02  0.10566000000E+00 0.  1.
         22    1    1    0    0    0 -0.12340133987E+02  0.16836224871E+02  0.19717689073E+02  0.28714537034E+02  0.00000000000E+00 0.  1.
</event>
<event>
 5    1  0.1766634E-003  0.9118800E+02  0.7818608E-02  0.1130116E+00
         25   -1    0    0    0    0  0.00000000000E+00  0.00000000000E+00  0.99999998245E-14  0.12500000000E+03  0.12500000000E+03 0.  0.
        -13    1    3    3    0    0  0.15410392201E+02  0.29002455958E+02 -0.20961841375E+02  0.38961937801E+02  0.10566000000E+00 0. -1.
         23    2    1    0    0    0 -0.33662732007E+01 -0.25378242661E+02 -0.30418612978E+01  0.99219388759E+02  0.95811519087E+02 0.  0.
         13    1    3    3    0    0 -0.18776665402E+02 -0.54380698619E+02  0.17919980077E+02  0.60257450957E+02  0.10566000000E+00 0.  1.
         22    1    1    0    0    0  0.33662732007E+01  0.25378242661E+02  0.30418612978E+01  0.25780611241E+02  0.00000000000E+00 0.  1.
</event>
<event>
 5    1  0.1766634E-003  0.9118800E+02  0.7818608E-02  0.1130116E+00
         25   -1    0    0    0    0  0.00000000000E+00  0.00000000000E+00  0.99999998245E-14  0.12500000000E+03  0.12500000000E+03 0.  0.
        -13    1    3    3    0    0  0.38975978284E+02  0.28923432119E+02  0.13573750863E+02  0.50397913502E+02  0.10566000000E+00 0.  1.
         23    2    1    0    0    0  0.20959978337E+01  0.25267167328E+02 -0.13482422322E+02  0.96284173991E+02  0.91902358499E+02 0.  0.
         13    1    3    3    0    0 -0.36879980451E+02 -0.36562647910E+01 -0.27056173185E+02  0.45886260490E+02  0.10566000000E+00 0. -1.
         22    1    1    0    0    0 -0.20959978337E+01 -0.25267167328E+02  0.13482422322E+02  0.28715826009E+02  0.00000000000E+00 0.  1.
</event>
<event>
 5    1  0.1766634E-003  0.9118800E+02  0.7818608E-02  0.1130116E+00
         25   -1    0    0    0    0  0.00000000000E+00  0.00000000000E+00  0.99999998245E-14  0.12500000000E+03  0.12500000000E+03 0.  0.
        -13    1    3    3    0    0  0.65382539194E+01  0.32648725807E+02  0.42834647927E+02  0.54254090059E+02  0.10566000000E+00 0.  1.
         23    2    1    0    0    0  0.74925377661E+01  0.17687246488E+00  0.36985858671E+02  0.87262443804E+02  0.78680435630E+02 0.  0.
         13    1    3    3    0    0  0.95428384678E+00 -0.32471853342E+02 -0.58487892558E+01  0.33008353745E+02  0.10566000000E+00 0. -1.
         22    1    1    0    0    0 -0.74925377661E+01 -0.17687246488E+00 -0.36985858671E+02  0.37737556196E+02  0.00000000000E+00 0.  1.
</event>
<event>
 5    1  0.1766634E-003  0.9118800E+02  0.7818608E-02  0.1130116E+00
         25   -1    0    0    0    0  0.00000000000E+00  0.00000000000E+00  0.99999998245E-14  0.12500000000E+03  0.12500000000E+03 0.  0.
        -13    1    3    3    0    0 -0.45788708773E+02  0.26849911300E+02  0.41730160938E+01  0.53244237390E+02  0.10566000000E+00 0.  1.
         23    2    1    0    0    0 -0.15021731350E+02  0.76834090975E+01  0.24840585354E+02  0.94970982886E+02  0.90098533403E+02 0.  0.
         13    1    3    3    0    0  0.30766977424E+02 -0.19166502202E+02  0.20667569261E+02  0.41726745495E+02  0.10566000000E+00 0. -1.
         22    1    1    0    0    0  0.15021731350E+02 -0.76834090975E+01 -0.24840585354E+02  0.30029017114E+02  0.00000000000E+00 0.  1.
</event>
<event>
 5    1  0.1766634E-003  0.9118800E+02  0.7818608E-02  0.1130116E+00
         25   -1    0    0    0    0  0.00000000000E+00  0.00000000000E+00  0.99999998245E-14  0.12500000000E+03  0.12500000000E+03 0.  0.
        -13    1    3    3    0    0 -0.94229566292E+01  0.36745575248E+02  0.32857457026E+02  0.50186183938E+02  0.10566000000E+00 0. -1.
         23    2    1    0    0    0  0.85991849161E+01 -0.53199856150E+01  0.26808395949E+02  0.96347978753E+02  0.91989100921E+02 0.  0.
         13    1    3    3    0    0  0.18022141545E+02 -0.42065560863E+02 -0.60490610775E+01  0.46161794815E+02  0.10566000000E+00 0.  1.
         22    1    1    0    0    0 -0.85991849161E+01  0.53199856150E+01 -0.26808395949E+02  0.28652021247E+02  0.00000000000E+00 0. -1.
</event>
<event>
 5    1  0.1766634E-003  0.9118800E+02  0.7818608E-02  0.1130116E+00
         25   -1    0    0    0    0  0.00000000000E+00  0.00000000000E+00  0.99999998245E-14  0.12500000000E+03  0.12500000000E+03 0.  0.
        -13    1    3    3    0    0  0.95530933620E+01 -0.56368384955E+01  0.43186242599E+02  0.44588095439E+02  0.10566000000E+00 0.  1.
         23    2    1    0    0    0 -0.16651860570E+02 -0.23058653219E+02  0.19075156870E+01  0.96493429445E+02  0.92186535683E+02 0.  0.
         13    1    3    3    0    0 -0.26204953932E+02 -0.17421814723E+02 -0.41278726912E+02  0.51905334007E+02  0.10566000000E+00 0. -1.
         22    1    1    0    0    0  0.16651860570E+02  0.23058653219E+02 -0.19075156870E+01  0.28506570555E+02  0.00000000000E+00 0. -1.
</event>
<event>
 5    1  0.1766634E-003  0.9118800E+02  0.7818608E-02  0.1130116E+00
         25   -1    0    0    0    0  0.00000000000E+00  0.00000000000E+00  0.99999998245E-14  0.12500000000E+03  0.12500000000E+03 0.  0.
        -13    1    3    3    0    0  0.36955023688E+02 -0.10285816906E+02  0.13439014457E+02  0.40645910973E+02  0.10566000000E+00 0. -1.
         23    2    1    0    0    0 -0.16890532397E+02 -0.20606370436E+02  0.12717168189E+02  0.95476467794E+02  0.90797119714E+02 0.  0.
         13    1    3    3    0    0 -0.53845556085E+02 -0.10320553530E+02 -0.72184626759E+00  0.54830556821E+02  0.10566000000E+00 0.  1.
         22    1    1    0    0    0  0.16890532397E+02  0.20606370436E+02 -0.12717168189E+02  0.29523532206E+02  0.00000000000E+00 0.  1.
</event>
<event>
 5    1  0.1766634E-003  0.9118800E+02  0.7818608E-02  0.1130116E+00
         25   -1    0    0    0    0  0.00000000000E+00  0.00000000000E+00  0.99999998245E-14  0.12500000000E+03  0.12500000000E+03 0.  0.
        -13    1    3    3    0    0  0.11301656918E+02  0.23092568388E+02  0.31626724697E+02  0.40758496573E+02  0.10566000000E+00 0.  1.
         23    2    1    0    0    0 -0.19222008473E+02  0.18693105793E+02 -0.13156768102E+02  0.95133323573E+02  0.90323479192E+02 0.  0.
         13    1    3    3    0    0 -0.30523665390E+02 -0.43994625951E+01 -0.44783492799E+02  0.54374827000E+02  0.10566000000E+00 0. -1.
         22    1    1    0    0    0  0.19222008473E+02 -0.18693105793E+02  0.13156768102E+02  0.29866676427E+02  0.00000000000E+00 0. -1.
</event>
<event>
 5    1  0.1766634E-003  0.9118800E+02  0.7818608E-02  0.1130116E+00
         25   -1    0    0    0    0  0.00000000000E+00  0.00000000000E+00  0.99999998245E-14  0.12500000000E+03  0.12500000000E+03 0.  0.
        -13    1    3    3    0    0 -0.28874777520E+02 -0.21760312192E+02  0.15224677691E+02  0.39230930888E+02  0.10566000000E+00 0.  1.
         23    2    1    0    0    0  0.24855578406E+02 -0.13487088280E+02 -0.29864218550E+01  0.96563754755E+02  0.92281843765E+02 0.  0.
         13    1    3    3    0    0  0.53730355926E+02  0.82732239118E+01 -0.18211099546E+02  0.57332823867E+02  0.10566000000E+00 0. -1.
         22    1    1    0    0    0 -0.24855578406E+02  0.13487088280E+02  0.29864218550E+01  0.28436245245E+02  0.00000000000E+00 0. -1.
</event>
<event>
 5    1  0.1766634E-003  0.9118800E+02  0.7818608E-02  0.1130116E+00
         25   -1    0    0    0    0  0.00000000000E+00  0.00000000000E+00  0.99999998245E-14  0.12500000000E+03  0.12500000000E+03 0.  0.
        -13    1    3    3    0    0 -0.44424017574E+02  0.57817014989E+01  0.37201796212E+02  0.58231488175E+02  0.10566000000E+00 0. -1.
         23    2    1    0    0    0 -0.28096961107E+02  0.63711053564E+01  0.31271605837E+01  0.96020535888E+02  0.91543071676E+02 0.  0.
         13    1    3    3    0    0  0.16327056466E+02  0.58940385753E+00 -0.34074635629E+02  0.37789047713E+02  0.10566000000E+00 0.  1.
         22    1    1    0    0    0  0.28096961107E+02 -0.63711053564E+01 -0.31271605837E+01  0.28979464112E+02  0.00000000000E+00 0. -1.
</event>
<event>
 5    1  0.1766634E-003  0.9118800E+02  0.7818608E-02  0.1130116E+00
         25   -1    0    0    0    0  0.00000000000E+00  0.00000000000E+00  0.99999998245E-14  0.12500000000E+03  0.12500000000E+03 0.  0.
        -13    1    3    3    0    0 -0.31573050368E+02 -0.11174831724E+02  0.12003515289E+02  0.35578503579E+02  0.10566000000E+00 0. -1.
         23    2    1    0    0    0  0.16543427836E+02  0.23598513028E+02  0.80527272397E+01  0.95076410014E+02  0.90244681303E+02 0.  0.
         13    1    3    3    0    0  0.48116478203E+02  0.34773344752E+02 -0.39507880495E+01  0.59497906435E+02  0.10566000000E+00 0.  1.
         22    1    1    0    0    0 -0.16543427836E+02 -0.23598513028E+02 -0.80527272397E+01  0.29923589986E+02  0.00000000000E+00 0.  1.
</event>
<event>
 5    1  0.1766634E-003  0.9118800E+02  0.7818608E-02  0.1130116E+00
         25   -1    0    0    0    0  0.00000000000E+00  0.00000000000E+00  0.99999998245E-14  0.12500000000E+03  0.12500000000E+03 0.  0.
        -13    1    3    3    0    0  0.67662145419E+01  0.16425444713E+02 -0.59874867473E+02  0.62454686070E+02  0.10566000000E+00 0. -1.
         23    2    1    0    0    0  0.40111625452E+01  0.91398580351E+01 -0.27782891463E+02  0.95478558844E+02  0.90799998408E+02 0.  0.
         13    1    3    3    0    0 -0.27550519967E+01 -0.72855866780E+01  0.32091976009E+02  0.33023872774E+02  0.10566000000E+00 0.  1.
         22    1    1    0    0    0 -0.40111625452E+01 -0.91398580351E+01  0.27782891463E+02  0.29521441156E+02  0.00000000000E+00 0. -1.
</event>
<event>
 5    1  0.1766634E-003  0.9118800E+02  0.7818608E-02  0.1130116E+00
         25   -1    0    0    0    0  0.00000000000E+00  0.00000000000E+00  0.99999998245E-14  0.12500000000E+03  0.12500000000E+03 0.  0.
        -13    1    3    3    0    0  0.52668926858E+02 -0.17459932884E+02  0.22489102201E+02  0.59871829725E+02  0.10566000000E+00 0. -1.
         23    2    1    0    0    0  0.22755367806E+02 -0.16029652778E+02  0.26639507948E+00  0.97164276576E+02  0.93091724359E+02 0.  0.
         13    1    3    3    0    0 -0.29913559052E+02  0.14302801058E+01 -0.22222707122E+02  0.37292446852E+02  0.10566000000E+00 0.  1.
         22    1    1    0    0    0 -0.22755367806E+02  0.16029652778E+02 -0.26639507948E+00  0.27835723424E+02  0.00000000000E+00 0. -1.
</event>
<event>
 4    1  0.1766634E-003  0.9118800E+02  0.7818608E-02  0.1130116E+00
         25   -1    0    0    0    0  0.00000000000E+00  0.00000000000E+00  0.99999998245E-14  0.12500000000E+03  0.12500000000E+03 0.  0.
        -13    1    1    0    0    0 -0.11406092100E+02 -0.11835838120E+02 -0.32496894897E+02  0.36417651531E+02  0.10566000000E+00 0.  1.
         13    1    1    0    0    0 -0.31963817031E+02  0.10147158120E+02 -0.13180827307E+01  0.33561867100E+02  0.10566000000E+00 0. -1.
         22    1    1    0    0    0  0.43369909131E+02  0.16886799993E+01  0.33814977628E+02  0.55020481370E+02  0.00000000000E+00 0.  1.
</event>
<event>
 5    1  0.1766634E-003  0.9118800E+02  0.7818608E-02  0.1130116E+00
         25   -1    0    0    0    0  0.00000000000E+00  0.00000000000E+00  0.99999998245E-14  0.12500000000E+03  0.12500000000E+03 0.  0.
        -13    1    3    3    0    0  0.59864139256E+02  0.86677786730E+01  0.12512650273E+02  0.61769111511E+02  0.10566000000E+00 0.  1.
         23    2    1    0    0    0  0.25935111174E+02  0.66663616041E+01  0.11727574772E+02  0.95766348524E+02  0.91195324063E+02 0.  0.
         13    1    3    3    0    0 -0.33929028082E+02 -0.20014170689E+01 -0.78507550114E+00  0.33997237013E+02  0.10566000000E+00 0. -1.
         22    1    1    0    0    0 -0.25935111174E+02 -0.66663616041E+01 -0.11727574772E+02  0.29233651476E+02  0.00000000000E+00 0.  1.
</event>
<event>
 5    1  0.1766634E-003  0.9118800E+02  0.7818608E-02  0.1130116E+00
         25   -1    0    0    0    0  0.00000000000E+00  0.00000000000E+00  0.99999998245E-14  0.12500000000E+03  0.12500000000E+03 0.  0.
        -13    1    3    3    0    0 -0.52044176288E+02 -0.30367785869E+02 -0.15703198279E+02  0.62268774713E+02  0.10566000000E+00 0. -1.
         23    2    1    0    0    0 -0.25959149026E+02 -0.10832330267E+02 -0.79914190930E+01  0.95758256272E+02  0.91184231465E+02 0.  0.
         13    1    3    3    0    0  0.26085027262E+02  0.19535455602E+02  0.77117791858E+01  0.33489481559E+02  0.10566000000E+00 0.  1.
         22    1    1    0    0    0  0.25959149026E+02  0.10832330267E+02  0.79914190930E+01  0.29241743728E+02  0.00000000000E+00 0. -1.
</event>
<event>
 5    1  0.1766634E-003  0.9118800E+02  0.7818608E-02  0.1130116E+00
         25   -1    0    0    0    0  0.00000000000E+00  0.00000000000E+00  0.99999998245E-14  0.12500000000E+03  0.12500000000E+03 0.  0.
        -13    1    3    3    0    0 -0.29490268539E+01 -0.43057434237E+02 -0.27960259115E+02  0.51423989113E+02  0.10566000000E+00 0. -1.
         23    2    1    0    0    0  0.51839253950E+01 -0.23417353313E+02  0.13107779979E+02  0.97667612349E+02  0.93765148575E+02 0.  0.
         13    1    3    3    0    0  0.81329522489E+01  0.19640080924E+02  0.41068039094E+02  0.46243623237E+02  0.10566000000E+00 0.  1.
         22    1    1    0    0    0 -0.51839253950E+01  0.23417353313E+02 -0.13107779979E+02  0.27332387651E+02  0.00000000000E+00 0. -1.
</event>
<event>
 5    1  0.1766634E-003  0.9118800E+02  0.7818608E-02  0.1130116E+00
         25   -1    0    0    0    0  0.00000000000E+00  0.00000000000E+00  0.99999998245E-14  0.12500000000E+03  0.12500000000E+03 0.  0.
        -13    1    3    3    0    0  0.87216420884E+01 -0.28058092242E+02 -0.12079459305E+02  0.31768665098E+02  0.10566000000E+00 0.  1.
         23    2    1    0    0    0 -0.12704303842E+02  0.23129713580E+02  0.16184478803E+02  0.94043250485E+02  0.88802098068E+02 0.  0.
         13    1    3    3    0    0 -0.21425945930E+02  0.51187805821E+02  0.28263938108E+02  0.62274585388E+02  0.10566000000E+00 0. -1.
         22    1    1    0    0    0  0.12704303842E+02 -0.23129713580E+02 -0.16184478803E+02  0.30956749515E+02  0.00000000000E+00 0. -1.
</event>
<event>
 5    1  0.1766634E-003  0.9118800E+02  0.7818608E-02  0.1130116E+00
         25   -1    0    0    0    0  0.00000000000E+00  0.00000000000E+00  0.99999998245E-14  0.12500000000E+03  0.12500000000E+03 0.  0.
        -13    1    3    3    0    0  0.49987594818E+01  0.56022335114E+01  0.24578962112E+02  0.25700372745E+02  0.10566000000E+00 0. -1.
         23    2    1    0    0    0 -0.21332151039E+02 -0.16103561162E+02 -0.26651171698E+02  0.87255195021E+02  0.78668918610E+02 0.  0.
         13    1    3    3    0    0 -0.26330910521E+02 -0.21705794673E+02 -0.51230133810E+02  0.61554822276E+02  0.10566000000E+00 0.  1.
         22    1    1    0    0    0  0.21332151039E+02  0.16103561162E+02  0.26651171698E+02  0.37744804979E+02  0.00000000000E+00 0.  1.
</event>
