<event>
 5    1  0.1245610E-004  0.9118800E+02  0.7818608E-02  0.1130116E+00
         25   -1    0    0    0    0  0.00000000000E+00  0.00000000000E+00  0.99999998245E-14  0.12500000000E+03  0.12500000000E+03 0.  0.
        -13    1    3    3    0    0 -0.43904847490E+02  0.18942936252E+02  0.33083960945E+02  0.58146625894E+02  0.10566000000E+00 0. -1.
         23    2    1    0    0    0 -0.28605924455E+02  0.58562004943E+01  0.12982162926E+01  0.95771942184E+02  0.91202990883E+02 0.  0.
         13    1    3    3    0    0  0.15298923035E+02 -0.13086735758E+02 -0.31785744652E+02  0.37625316290E+02  0.10566000000E+00 0.  1.
         22    1    1    0    0    0  0.28605924455E+02 -0.58562004943E+01 -0.12982162926E+01  0.29228057816E+02  0.00000000000E+00 0. -1.
</event>
<event>
 5    1  0.1245610E-004  0.9118800E+02  0.7818608E-02  0.1130116E+00
         25   -1    0    0    0    0  0.00000000000E+00  0.00000000000E+00  0.99999998245E-14  0.12500000000E+03  0.12500000000E+03 0.  0.
        -13    1    3    3    0    0 -0.14361076730E+02 -0.43152979656E+02  0.40509380058E+02  0.60905182167E+02  0.10566000000E+00 0.  1.
         23    2    1    0    0    0 -0.12294304833E+02 -0.12214036409E+02  0.21913750045E+02  0.97061763518E+02  0.92953971832E+02 0.  0.
         13    1    3    3    0    0  0.20667718977E+01  0.30938943247E+02 -0.18595630013E+02  0.36156581351E+02  0.10566000000E+00 0. -1.
         22    1    1    0    0    0  0.12294304833E+02  0.12214036409E+02 -0.21913750045E+02  0.27938236482E+02  0.00000000000E+00 0.  1.
</event>
<event>
 5    1  0.1245610E-004  0.9118800E+02  0.7818608E-02  0.1130116E+00
         25   -1    0    0    0    0  0.00000000000E+00  0.00000000000E+00  0.99999998245E-14  0.12500000000E+03  0.12500000000E+03 0.  0.
        -13    1    3    3    0    0  0.13560378875E+02  0.21071016645E+02  0.25366725757E+02  0.35656045173E+02  0.10566000000E+00 0.  1.
         23    2    1    0    0    0 -0.25842119695E+02 -0.13400696419E+02 -0.38926495846E+01  0.95630857424E+02  0.91009419051E+02 0.  0.
         13    1    3    3    0    0 -0.39402498571E+02 -0.34471713064E+02 -0.29259375341E+02  0.59974812251E+02  0.10566000000E+00 0. -1.
         22    1    1    0    0    0  0.25842119695E+02  0.13400696419E+02  0.38926495846E+01  0.29369142576E+02  0.00000000000E+00 0. -1.
</event>
<event>
 5    1  0.1245610E-004  0.9118800E+02  0.7818608E-02  0.1130116E+00
         25   -1    0    0    0    0  0.00000000000E+00  0.00000000000E+00  0.99999998245E-14  0.12500000000E+03  0.12500000000E+03 0.  0.
        -13    1    3    3    0    0 -0.35114948303E+02 -0.40191777143E+01 -0.11436343295E+02  0.37148546349E+02  0.10566000000E+00 0.  1.
         23    2    1    0    0    0  0.50146876576E+01  0.28303595036E+02 -0.20798209490E+02  0.89520342416E+02  0.82189327799E+02 0.  0.
         13    1    3    3    0    0  0.40129635961E+02  0.32322772751E+02 -0.93618661952E+01  0.52371796067E+02  0.10566000000E+00 0. -1.
         22    1    1    0    0    0 -0.50146876576E+01 -0.28303595036E+02  0.20798209490E+02  0.35479657584E+02  0.00000000000E+00 0. -1.
</event>
<event>
 5    1  0.1245610E-004  0.9118800E+02  0.7818608E-02  0.1130116E+00
         25   -1    0    0    0    0  0.00000000000E+00  0.00000000000E+00  0.99999998245E-14  0.12500000000E+03  0.12500000000E+03 0.  0.
        -13    1    3    3    0    0 -0.49190381997E+02  0.30065411820E+02  0.12536808343E+02  0.58998350793E+02  0.10566000000E+00 0. -1.
         23    2    1    0    0    0 -0.15306642377E+02  0.16608305474E+02  0.18327173884E+02  0.95913673072E+02  0.91397036430E+02 0.  0.
         13    1    3    3    0    0  0.33883739620E+02 -0.13457106346E+02  0.57903655404E+01  0.36915322279E+02  0.10566000000E+00 0.  1.
         22    1    1    0    0    0  0.15306642377E+02 -0.16608305474E+02 -0.18327173884E+02  0.29086326928E+02  0.00000000000E+00 0. -1.
</event>
<event>
 5    1  0.1245610E-004  0.9118800E+02  0.7818608E-02  0.1130116E+00
         25   -1    0    0    0    0  0.00000000000E+00  0.00000000000E+00  0.99999998245E-14  0.12500000000E+03  0.12500000000E+03 0.  0.
        -13    1    3    3    0    0  0.39123875972E+02  0.25012105167E+02 -0.24518924157E+02  0.52511635680E+02  0.10566000000E+00 0.  1.
         23    2    1    0    0    0  0.82126805747E+01  0.23165293116E+02  0.96232896069E+01  0.98605177965E+02  0.95006812868E+02 0.  0.
         13    1    3    3    0    0 -0.30911195397E+02 -0.18468120511E+01  0.34142213764E+02  0.46093542285E+02  0.10566000000E+00 0. -1.
         22    1    1    0    0    0 -0.82126805747E+01 -0.23165293116E+02 -0.96232896069E+01  0.26394822035E+02  0.00000000000E+00 0. -1.
</event>
<event>
 5    1  0.1245610E-004  0.9118800E+02  0.7818608E-02  0.1130116E+00
         25   -1    0    0    0    0  0.00000000000E+00  0.00000000000E+00  0.99999998245E-14  0.12500000000E+03  0.12500000000E+03 0.  0.
        -13    1    3    3    0    0  0.34171909014E+02  0.21171875641E+02 -0.33294538576E+02  0.52196792496E+02  0.10566000000E+00 0.  1.
         23    2    1    0    0    0 -0.67989744118E+01  0.71991920434E+01 -0.27376644126E+02  0.95887544543E+02  0.91361294516E+02 0.  0.
         13    1    3    3    0    0 -0.40970883426E+02 -0.13972683598E+02  0.59178944500E+01  0.43690752046E+02  0.10566000000E+00 0. -1.
         22    1    1    0    0    0  0.67989744118E+01 -0.71991920434E+01  0.27376644126E+02  0.29112455457E+02  0.00000000000E+00 0.  1.
</event>
<event>
 5    1  0.1245610E-004  0.9118800E+02  0.7818608E-02  0.1130116E+00
         25   -1    0    0    0    0  0.00000000000E+00  0.00000000000E+00  0.99999998245E-14  0.12500000000E+03  0.12500000000E+03 0.  0.
        -13    1    3    3    0    0 -0.21309238120E+02 -0.27505193654E+02 -0.69522047211E+01  0.35481877370E+02  0.10566000000E+00 0.  1.
         23    2    1    0    0    0 -0.81212825404E+01  0.28719181073E+02  0.57327193003E+01  0.94609036505E+02  0.89594972661E+02 0.  0.
         13    1    3    3    0    0  0.13187955580E+02  0.56224374727E+02  0.12684924021E+02  0.59127159134E+02  0.10566000000E+00 0. -1.
         22    1    1    0    0    0  0.81212825404E+01 -0.28719181073E+02 -0.57327193003E+01  0.30390963495E+02  0.00000000000E+00 0. -1.
</event>
<event>
 5    1  0.1245610E-004  0.9118800E+02  0.7818608E-02  0.1130116E+00
         25   -1    0    0    0    0  0.00000000000E+00  0.00000000000E+00  0.99999998245E-14  0.12500000000E+03  0.12500000000E+03 0.  0.
        -13    1    3    3    0    0 -0.15417634964E+02  0.31867558190E+02  0.40418237787E+01  0.35631337842E+02  0.10566000000E+00 0.  1.
         23    2    1    0    0    0  0.14872159534E+02 -0.10341583630E+02 -0.24205618979E+02  0.94766881217E+02  0.89814922503E+02 0.  0.
         13    1    3    3    0    0  0.30289794499E+02 -0.42209141820E+02 -0.28247442757E+02  0.59135543376E+02  0.10566000000E+00 0. -1.
         22    1    1    0    0    0 -0.14872159534E+02  0.10341583630E+02  0.24205618979E+02  0.30233118783E+02  0.00000000000E+00 0. -1.
</event>
<event>
 5    1  0.1245610E-004  0.9118800E+02  0.7818608E-02  0.1130116E+00
         25   -1    0    0    0    0  0.00000000000E+00  0.00000000000E+00  0.99999998245E-14  0.12500000000E+03  0.12500000000E+03 0.  0.
        -13    1    3    3    0    0  0.20376579490E+02 -0.26027017354E+02  0.34634165245E+02  0.47876374030E+02  0.10566000000E+00 0.  1.
         23    2    1    0    0    0 -0.16174049396E+02  0.31960289244E+01  0.24027295192E+02  0.95860243841E+02  0.91323934214E+02 0.  0.
         13    1    3    3    0    0 -0.36550628885E+02  0.29223046278E+02 -0.10606870052E+02  0.47983869811E+02  0.10566000000E+00 0. -1.
         22    1    1    0    0    0  0.16174049396E+02 -0.31960289244E+01 -0.24027295192E+02  0.29139756159E+02  0.00000000000E+00 0. -1.
</event>
<event>
 5    1  0.1245610E-004  0.9118800E+02  0.7818608E-02  0.1130116E+00
         25   -1    0    0    0    0  0.00000000000E+00  0.00000000000E+00  0.99999998245E-14  0.12500000000E+03  0.12500000000E+03 0.  0.
        -13    1    3    3    0    0  0.26796906105E+02  0.36915847903E+02 -0.15485896971E+02  0.48173417693E+02  0.10566000000E+00 0. -1.
         23    2    1    0    0    0 -0.17034486537E+02  0.23174135086E+02 -0.14622874696E+01  0.96201518213E+02  0.91789866289E+02 0.  0.
         13    1    3    3    0    0 -0.43831392642E+02 -0.13741712817E+02  0.14023609501E+02  0.48028100520E+02  0.10566000000E+00 0.  1.
         22    1    1    0    0    0  0.17034486537E+02 -0.23174135086E+02  0.14622874696E+01  0.28798481787E+02  0.00000000000E+00 0.  1.
</event>
<event>
 5    1  0.1245610E-004  0.9118800E+02  0.7818608E-02  0.1130116E+00
         25   -1    0    0    0    0  0.00000000000E+00  0.00000000000E+00  0.99999998245E-14  0.12500000000E+03  0.12500000000E+03 0.  0.
        -13    1    3    3    0    0  0.56311533969E+02 -0.57230905569E+01  0.83321743475E+01  0.57211702621E+02  0.10566000000E+00 0.  1.
         23    2    1    0    0    0  0.18522449214E+02 -0.18860613928E+02 -0.18676895746E+01  0.98499204786E+02  0.94867282013E+02 0.  0.
         13    1    3    3    0    0 -0.37789084755E+02 -0.13137523371E+02 -0.10199863922E+02  0.41287502165E+02  0.10566000000E+00 0. -1.
         22    1    1    0    0    0 -0.18522449214E+02  0.18860613928E+02  0.18676895746E+01  0.26500795214E+02  0.00000000000E+00 0.  1.
</event>
<event>
 5    1  0.1245610E-004  0.9118800E+02  0.7818608E-02  0.1130116E+00
         25   -1    0    0    0    0  0.00000000000E+00  0.00000000000E+00  0.99999998245E-14  0.12500000000E+03  0.12500000000E+03 0.  0.
        -13    1    3    3    0    0  0.68542167465E+00 -0.52530054762E+02 -0.10365016239E+02  0.53547373248E+02  0.10566000000E+00 0. -1.
         23    2    1    0    0    0 -0.19532690571E+01 -0.23920548963E+02  0.18819462808E+02  0.94501145873E+02  0.89444320491E+02 0.  0.
         13    1    3    3    0    0 -0.26386907318E+01  0.28609505799E+02  0.29184479047E+02  0.40953772624E+02  0.10566000000E+00 0.  1.
         22    1    1    0    0    0  0.19532690571E+01  0.23920548963E+02 -0.18819462808E+02  0.30498854127E+02  0.00000000000E+00 0. -1.
</event>
<event>
 5    1  0.1245610E-004  0.9118800E+02  0.7818608E-02  0.1130116E+00
         25   -1    0    0    0    0  0.00000000000E+00  0.00000000000E+00  0.99999998245E-14  0.12500000000E+03  0.12500000000E+03 0.  0.
        -13    1    3    3    0    0  0.35789277204E+02  0.83448480829E+01 -0.10825834740E+02  0.38310817195E+02  0.10566000000E+00 0.  1.
         23    2    1    0    0    0 -0.22200647716E+00 -0.99698956333E+01  0.28569568084E+02  0.94739987998E+02  0.89777486040E+02 0.  0.
         13    1    3    3    0    0 -0.36011283681E+02 -0.18314743716E+02  0.39395402824E+02  0.56429170803E+02  0.10566000000E+00 0. -1.
         22    1    1    0    0    0  0.22200647716E+00  0.99698956333E+01 -0.28569568084E+02  0.30260012002E+02  0.00000000000E+00 0. -1.
</event>
<event>
 5    1  0.1245610E-004  0.9118800E+02  0.7818608E-02  0.1130116E+00
         25   -1    0    0    0    0  0.00000000000E+00  0.00000000000E+00  0.99999998245E-14  0.12500000000E+03  0.12500000000E+03 0.  0.
        -13    1    3    3    0    0 -0.56915389032E+02  0.99196172935E+01  0.19322416730E+02  0.60919022220E+02  0.10566000000E+00 0.  1.
         23    2    1    0    0    0 -0.29493242373E+02 -0.22218861973E+01  0.24686624198E+01  0.95320336624E+02  0.90581919587E+02 0.  0.
         13    1    3    3    0    0  0.27422146658E+02 -0.12141503491E+02 -0.16853754310E+02  0.34401314404E+02  0.10566000000E+00 0. -1.
         22    1    1    0    0    0  0.29493242373E+02  0.22218861973E+01 -0.24686624198E+01  0.29679663376E+02  0.00000000000E+00 0.  1.
</event>
<event>
 5    1  0.1245610E-004  0.9118800E+02  0.7818608E-02  0.1130116E+00
         25   -1    0    0    0    0  0.00000000000E+00  0.00000000000E+00  0.99999998245E-14  0.12500000000E+03  0.12500000000E+03 0.  0.
        -13    1    3    3    0    0  0.43143275276E+02  0.89942279220E+01 -0.34349728906E+02  0.55876232670E+02  0.10566000000E+00 0.  1.
         23    2    1    0    0    0  0.21111344375E+02 -0.16084754438E+02 -0.13657051001E+02  0.95151662883E+02  0.90348855669E+02 0.  0.
         13    1    3    3    0    0 -0.22031930901E+02 -0.25078982360E+02  0.20692677905E+02  0.39275430213E+02  0.10566000000E+00 0. -1.
         22    1    1    0    0    0 -0.21111344375E+02  0.16084754438E+02  0.13657051001E+02  0.29848337117E+02  0.00000000000E+00 0.  1.
</event>
<event>
 5    1  0.1245610E-004  0.9118800E+02  0.7818608E-02  0.1130116E+00
         25   -1    0    0    0    0  0.00000000000E+00  0.00000000000E+00  0.99999998245E-14  0.12500000000E+03  0.12500000000E+03 0.  0.
        -13    1    3    3    0    0 -0.39785730083E+02 -0.81299648559E+01 -0.10514566269E+01  0.40621636746E+02  0.10566000000E+00 0.  1.
         23    2    1    0    0    0  0.77165962413E+01  0.73319013416E+01 -0.26323509450E+02  0.96605814247E+02  0.92338797705E+02 0.  0.
         13    1    3    3    0    0  0.47502326324E+02  0.15461866197E+02 -0.25272052823E+02  0.55984177501E+02  0.10566000000E+00 0. -1.
         22    1    1    0    0    0 -0.77165962413E+01 -0.73319013416E+01  0.26323509450E+02  0.28394185753E+02  0.00000000000E+00 0. -1.
</event>
<event>
 5    1  0.1245610E-004  0.9118800E+02  0.7818608E-02  0.1130116E+00
         25   -1    0    0    0    0  0.00000000000E+00  0.00000000000E+00  0.99999998245E-14  0.12500000000E+03  0.12500000000E+03 0.  0.
        -13    1    3    3    0    0  0.91834516113E+01 -0.30036682745E+02  0.39868391049E+02  0.50754683160E+02  0.10566000000E+00 0. -1.
         23    2    1    0    0    0 -0.85593640742E+01  0.76893895076E+01  0.28944600996E+02  0.93852297819E+02  0.88532900408E+02 0.  0.
         13    1    3    3    0    0 -0.17742815686E+02  0.37726072253E+02 -0.10923790053E+02  0.43097614658E+02  0.10566000000E+00 0.  1.
         22    1    1    0    0    0  0.85593640742E+01 -0.76893895076E+01 -0.28944600996E+02  0.31147702181E+02  0.00000000000E+00 0.  1.
</event>
<event>
 5    1  0.1245610E-004  0.9118800E+02  0.7818608E-02  0.1130116E+00
         25   -1    0    0    0    0  0.00000000000E+00  0.00000000000E+00  0.99999998245E-14  0.12500000000E+03  0.12500000000E+03 0.  0.
        -13    1    3    3    0    0 -0.17767693090E+02  0.13503914275E+02 -0.26356748755E+02  0.34536010010E+02  0.10566000000E+00 0. -1.
         23    2    1    0    0    0  0.21644262812E+01 -0.24040968248E+01  0.29176358623E+02  0.95644858624E+02  0.91028647447E+02 0.  0.
         13    1    3    3    0    0  0.19932119371E+02 -0.15908011099E+02  0.55533107378E+02  0.61108848614E+02  0.10566000000E+00 0.  1.
         22    1    1    0    0    0 -0.21644262812E+01  0.24040968248E+01 -0.29176358623E+02  0.29355141376E+02  0.00000000000E+00 0.  1.
</event>
<event>
 5    1  0.1245610E-004  0.9118800E+02  0.7818608E-02  0.1130116E+00
         25   -1    0    0    0    0  0.00000000000E+00  0.00000000000E+00  0.99999998245E-14  0.12500000000E+03  0.12500000000E+03 0.  0.
        -13    1    3    3    0    0 -0.18340324728E+02 -0.34316276419E+02 -0.48614975518E+02  0.62268783086E+02  0.10566000000E+00 0.  1.
         23    2    1    0    0    0 -0.55039105378E+01 -0.18291016442E+02 -0.22662158572E+02  0.95361718254E+02  0.90639006854E+02 0.  0.
         13    1    3    3    0    0  0.12836414190E+02  0.16025259977E+02  0.25952816945E+02  0.33092935168E+02  0.10566000000E+00 0. -1.
         22    1    1    0    0    0  0.55039105378E+01  0.18291016442E+02  0.22662158572E+02  0.29638281746E+02  0.00000000000E+00 0.  1.
</event>
<event>
 5    1  0.1245610E-004  0.9118800E+02  0.7818608E-02  0.1130116E+00
         25   -1    0    0    0    0  0.00000000000E+00  0.00000000000E+00  0.99999998245E-14  0.12500000000E+03  0.12500000000E+03 0.  0.
        -13    1    3    3    0    0 -0.18124705683E+02  0.19827781599E+02 -0.20334683347E+02  0.33692082008E+02  0.10566000000E+00 0.  1.
         23    2    1    0    0    0  0.15858875291E+02 -0.21520509156E+02  0.11425769915E+02  0.95927943692E+02  0.91416551691E+02 0.  0.
         13    1    3    3    0    0  0.33983580974E+02 -0.41348290755E+02  0.31760453261E+02  0.62235861684E+02  0.10566000000E+00 0. -1.
         22    1    1    0    0    0 -0.15858875291E+02  0.21520509156E+02 -0.11425769915E+02  0.29072056308E+02  0.00000000000E+00 0. -1.
</event>
<event>
 5    1  0.1245610E-004  0.9118800E+02  0.7818608E-02  0.1130116E+00
         25   -1    0    0    0    0  0.00000000000E+00  0.00000000000E+00  0.99999998245E-14  0.12500000000E+03  0.12500000000E+03 0.  0.
        -13    1    3    3    0    0  0.30325653895E+02 -0.28133091029E+02 -0.10229313218E+02  0.42611807143E+02  0.10566000000E+00 0.  1.
         23    2    1    0    0    0 -0.20831469418E+02 -0.13287616849E+02 -0.15003381612E+02  0.96093039948E+02  0.91642020858E+02 0.  0.
         13    1    3    3    0    0 -0.51157123313E+02  0.14845474180E+02 -0.47740683940E+01  0.53481232805E+02  0.10566000000E+00 0. -1.
         22    1    1    0    0    0  0.20831469418E+02  0.13287616849E+02  0.15003381612E+02  0.28906960052E+02  0.00000000000E+00 0. -1.
</event>
<event>
 5    1  0.1245610E-004  0.9118800E+02  0.7818608E-02  0.1130116E+00
         25   -1    0    0    0    0  0.00000000000E+00  0.00000000000E+00  0.99999998245E-14  0.12500000000E+03  0.12500000000E+03 0.  0.
        -13    1    3    3    0    0 -0.83293998348E+00  0.21568700254E+01 -0.57265103412E+02  0.57311858372E+02  0.10566000000E+00 0.  1.
         23    2    1    0    0    0  0.24400035228E+01  0.18537162828E+02 -0.23620212707E+02  0.94875351103E+02  0.89965758907E+02 0.  0.
         13    1    3    3    0    0  0.32729435063E+01  0.16380292802E+02  0.33644890705E+02  0.37563492730E+02  0.10566000000E+00 0. -1.
         22    1    1    0    0    0 -0.24400035228E+01 -0.18537162828E+02  0.23620212707E+02  0.30124648897E+02  0.00000000000E+00 0.  1.
</event>
<event>
 5    1  0.1245610E-004  0.9118800E+02  0.7818608E-02  0.1130116E+00
         25   -1    0    0    0    0  0.00000000000E+00  0.00000000000E+00  0.99999998245E-14  0.12500000000E+03  0.12500000000E+03 0.  0.
        -13    1    3    3    0    0  0.17105146561E+01  0.50791190519E+02 -0.16375157639E+02  0.53393144189E+02  0.10566000000E+00 0. -1.
         23    2    1    0    0    0 -0.21354707338E+02  0.21128047610E+02  0.13285947226E+01  0.94930362735E+02  0.90042160591E+02 0.  0.
         13    1    3    3    0    0 -0.23065221994E+02 -0.29663142908E+02  0.17703752361E+02  0.41537218546E+02  0.10566000000E+00 0.  1.
         22    1    1    0    0    0  0.21354707338E+02 -0.21128047610E+02 -0.13285947226E+01  0.30069637265E+02  0.00000000000E+00 0. -1.
</event>
<event>
 5    1  0.1245610E-004  0.9118800E+02  0.7818608E-02  0.1130116E+00
         25   -1    0    0    0    0  0.00000000000E+00  0.00000000000E+00  0.99999998245E-14  0.12500000000E+03  0.12500000000E+03 0.  0.
        -13    1    3    3    0    0  0.59789637381E+01  0.14325112809E+02 -0.52912202368E+02  0.55142263174E+02  0.10566000000E+00 0. -1.
         23    2    1    0    0    0 -0.13869225614E+02  0.18233770957E+02 -0.16601232107E+02  0.96708186168E+02  0.92477275814E+02 0.  0.
         13    1    3    3    0    0 -0.19848189352E+02  0.39086581471E+01  0.36310970261E+02  0.41565922994E+02  0.10566000000E+00 0.  1.
         22    1    1    0    0    0  0.13869225614E+02 -0.18233770957E+02  0.16601232107E+02  0.28291813832E+02  0.00000000000E+00 0.  1.
</event>
<event>
 5    1  0.1245610E-004  0.9118800E+02  0.7818608E-02  0.1130116E+00
         25   -1    0    0    0    0  0.00000000000E+00  0.00000000000E+00  0.99999998245E-14  0.12500000000E+03  0.12500000000E+03 0.  0.
        -13    1    3    3    0    0 -0.25648364570E+02  0.40442111548E+02 -0.69724773371E+00  0.47894679349E+02  0.10566000000E+00 0.  1.
         23    2    1    0    0    0 -0.26067891605E+02 -0.13120385501E+01  0.17637031933E+02  0.93498868063E+02  0.88032477051E+02 0.  0.
         13    1    3    3    0    0 -0.41952703575E+00 -0.41754150098E+02  0.18334279666E+02  0.45604188714E+02  0.10566000000E+00 0. -1.
         22    1    1    0    0    0  0.26067891605E+02  0.13120385501E+01 -0.17637031933E+02  0.31501131937E+02  0.00000000000E+00 0.  1.
</event>
<event>
 5    1  0.1245610E-004  0.9118800E+02  0.7818608E-02  0.1130116E+00
         25   -1    0    0    0    0  0.00000000000E+00  0.00000000000E+00  0.99999998245E-14  0.12500000000E+03  0.12500000000E+03 0.  0.
        -13    1    3    3    0    0  0.20596777003E+02  0.24939154352E+02 -0.33831912749E+02  0.46805962515E+02  0.10566000000E+00 0. -1.
         23    2    1    0    0    0  0.28957226891E+02 -0.75506405406E+01  0.85499811786E+00  0.95062328355E+02  0.90225174362E+02 0.  0.
         13    1    3    3    0    0  0.83604498875E+01 -0.32489794892E+02  0.34686910867E+02  0.48256365839E+02  0.10566000000E+00 0.  1.
         22    1    1    0    0    0 -0.28957226891E+02  0.75506405406E+01 -0.85499811786E+00  0.29937671645E+02  0.00000000000E+00 0.  1.
</event>
<event>
 5    1  0.1245610E-004  0.9118800E+02  0.7818608E-02  0.1130116E+00
         25   -1    0    0    0    0  0.00000000000E+00  0.00000000000E+00  0.99999998245E-14  0.12500000000E+03  0.12500000000E+03 0.  0.
        -13    1    3    3    0    0  0.23497881832E+02  0.15396300041E+02 -0.44715988025E+02  0.52808401364E+02  0.10566000000E+00 0. -1.
         23    2    1    0    0    0  0.28767483030E+02  0.24267020904E+01 -0.40116495143E+01  0.95852953928E+02  0.91313955570E+02 0.  0.
         13    1    3    3    0    0  0.52696011979E+01 -0.12969597951E+02  0.40704338510E+02  0.43044552564E+02  0.10566000000E+00 0.  1.
         22    1    1    0    0    0 -0.28767483030E+02 -0.24267020904E+01  0.40116495143E+01  0.29147046072E+02  0.00000000000E+00 0. -1.
</event>
<event>
 5    1  0.1245610E-004  0.9118800E+02  0.7818608E-02  0.1130116E+00
         25   -1    0    0    0    0  0.00000000000E+00  0.00000000000E+00  0.99999998245E-14  0.12500000000E+03  0.12500000000E+03 0.  0.
        -13    1    3    3    0    0  0.14063700501E+02  0.60280574742E+02 -0.50988139619E+01  0.62109133232E+02  0.10566000000E+00 0.  1.
         23    2    1    0    0    0  0.60415096826E+01  0.31198437794E+02  0.21932225496E+01  0.93146388192E+02  0.87530549227E+02 0.  0.
         13    1    3    3    0    0 -0.80221908183E+01 -0.29082136947E+02  0.72920365115E+01  0.31037254960E+02  0.10566000000E+00 0. -1.
         22    1    1    0    0    0 -0.60415096826E+01 -0.31198437794E+02 -0.21932225496E+01  0.31853611808E+02  0.00000000000E+00 0.  1.
</event>
<event>
 5    1  0.1245610E-004  0.9118800E+02  0.7818608E-02  0.1130116E+00
         25   -1    0    0    0    0  0.00000000000E+00  0.00000000000E+00  0.99999998245E-14  0.12500000000E+03  0.12500000000E+03 0.  0.
        -13    1    3    3    0    0  0.21401349224E+02  0.46107884261E+01 -0.55307395748E+02  0.59482739572E+02  0.10566000000E+00 0.  1.
         23    2    1    0    0    0 -0.33264851355E+01  0.32614787902E+00 -0.28877858616E+02  0.95929351675E+02  0.91418476900E+02 0.  0.
         13    1    3    3    0    0 -0.24727834360E+02 -0.42846405471E+01  0.26429537132E+02  0.36446612103E+02  0.10566000000E+00 0. -1.
         22    1    1    0    0    0  0.33264851355E+01 -0.32614787902E+00  0.28877858616E+02  0.29070648325E+02  0.00000000000E+00 0.  1.
</event>
<event>
 5    1  0.1245610E-004  0.9118800E+02  0.7818608E-02  0.1130116E+00
         25   -1    0    0    0    0  0.00000000000E+00  0.00000000000E+00  0.99999998245E-14  0.12500000000E+03  0.12500000000E+03 0.  0.
        -13    1    3    3    0    0  0.33963447584E+02 -0.32141602110E+02 -0.76650658255E+01  0.47385258848E+02  0.10566000000E+00 0.  1.
         23    2    1    0    0    0 -0.12859566631E+02 -0.21778402353E+02 -0.14532116101E+02  0.95830672593E+02  0.91283449476E+02 0.  0.
         13    1    3    3    0    0 -0.46823014215E+02  0.10363199757E+02 -0.68670502760E+01  0.48445413745E+02  0.10566000000E+00 0. -1.
         22    1    1    0    0    0  0.12859566631E+02  0.21778402353E+02  0.14532116101E+02  0.29169327407E+02  0.00000000000E+00 0. -1.
</event>
<event>
 5    1  0.1245610E-004  0.9118800E+02  0.7818608E-02  0.1130116E+00
         25   -1    0    0    0    0  0.00000000000E+00  0.00000000000E+00  0.99999998245E-14  0.12500000000E+03  0.12500000000E+03 0.  0.
        -13    1    3    3    0    0 -0.27211863386E+02  0.28011648522E+02 -0.21933046190E+02  0.44790709317E+02  0.10566000000E+00 0.  1.
         23    2    1    0    0    0  0.18651711938E+02  0.11501856045E+02 -0.22573712881E+02  0.93539682711E+02  0.88090411951E+02 0.  0.
         13    1    3    3    0    0  0.45863575324E+02 -0.16509792477E+02 -0.64066669085E+00  0.48748973394E+02  0.10566000000E+00 0. -1.
         22    1    1    0    0    0 -0.18651711938E+02 -0.11501856045E+02  0.22573712881E+02  0.31460317289E+02  0.00000000000E+00 0.  1.
</event>
<event>
 5    1  0.1245610E-004  0.9118800E+02  0.7818608E-02  0.1130116E+00
         25   -1    0    0    0    0  0.00000000000E+00  0.00000000000E+00  0.99999998245E-14  0.12500000000E+03  0.12500000000E+03 0.  0.
        -13    1    3    3    0    0  0.15844271360E+02 -0.41572338681E+02  0.22417948589E+01  0.44545898651E+02  0.10566000000E+00 0. -1.
         23    2    1    0    0    0 -0.77519418251E+01 -0.27206168039E+01  0.27327354709E+02  0.96464431436E+02  0.92147207549E+02 0.  0.
         13    1    3    3    0    0 -0.23596213185E+02  0.38851721878E+02  0.25085559850E+02  0.51918532785E+02  0.10566000000E+00 0.  1.
         22    1    1    0    0    0  0.77519418251E+01  0.27206168039E+01 -0.27327354709E+02  0.28535568564E+02  0.00000000000E+00 0.  1.
</event>
<event>
 5    1  0.1245610E-004  0.9118800E+02  0.7818608E-02  0.1130116E+00
         25   -1    0    0    0    0  0.00000000000E+00  0.00000000000E+00  0.99999998245E-14  0.12500000000E+03  0.12500000000E+03 0.  0.
        -13    1    3    3    0    0  0.29191520313E+02  0.21649134451E+02  0.45768176053E+02  0.58442852291E+02  0.10566000000E+00 0. -1.
         23    2    1    0    0    0  0.26695439164E+02  0.11813633045E+02  0.12465475435E+02  0.93257339814E+02  0.87688853075E+02 0.  0.
         13    1    3    3    0    0 -0.24960811493E+01 -0.98355014063E+01 -0.33302700618E+02  0.34814487523E+02  0.10566000000E+00 0.  1.
         22    1    1    0    0    0 -0.26695439164E+02 -0.11813633045E+02 -0.12465475435E+02  0.31742660186E+02  0.00000000000E+00 0. -1.
</event>
<event>
 5    1  0.1245610E-004  0.9118800E+02  0.7818608E-02  0.1130116E+00
         25   -1    0    0    0    0  0.00000000000E+00  0.00000000000E+00  0.99999998245E-14  0.12500000000E+03  0.12500000000E+03 0.  0.
        -13    1    3    3    0    0  0.27195597941E+02 -0.33070198114E+02  0.76701355310E+01  0.43498053908E+02  0.10566000000E+00 0.  1.
         23    2    1    0    0    0 -0.15153301623E+02 -0.64970830110E+01  0.23813914385E+02  0.96035588111E+02  0.91563622842E+02 0.  0.
         13    1    3    3    0    0 -0.42348899564E+02  0.26573115103E+02  0.16143778854E+02  0.52537534204E+02  0.10566000000E+00 0. -1.
         22    1    1    0    0    0  0.15153301623E+02  0.64970830110E+01 -0.23813914385E+02  0.28964411889E+02  0.00000000000E+00 0. -1.
</event>
<event>
 5    1  0.1245610E-004  0.9118800E+02  0.7818608E-02  0.1130116E+00
         25   -1    0    0    0    0  0.00000000000E+00  0.00000000000E+00  0.99999998245E-14  0.12500000000E+03  0.12500000000E+03 0.  0.
        -13    1    3    3    0    0  0.35272031049E+02  0.13833953156E+02  0.22105234882E+02  0.43865100108E+02  0.10566000000E+00 0.  1.
         23    2    1    0    0    0 -0.14804795202E+02 -0.94376645113E+01  0.18937369203E+02  0.99176068759E+02  0.95754985196E+02 0.  0.
         13    1    3    3    0    0 -0.50076826251E+02 -0.23271617667E+02 -0.31678656787E+01  0.55310968651E+02  0.10566000000E+00 0. -1.
         22    1    1    0    0    0  0.14804795202E+02  0.94376645113E+01 -0.18937369203E+02  0.25823931241E+02  0.00000000000E+00 0. -1.
</event>
<event>
 5    1  0.1245610E-004  0.9118800E+02  0.7818608E-02  0.1130116E+00
         25   -1    0    0    0    0  0.00000000000E+00  0.00000000000E+00  0.99999998245E-14  0.12500000000E+03  0.12500000000E+03 0.  0.
        -13    1    3    3    0    0 -0.10134173387E+02  0.55071172794E+02 -0.17024618026E+02  0.58526782981E+02  0.10566000000E+00 0. -1.
         23    2    1    0    0    0  0.10220918118E+02  0.24377932155E+02 -0.12899410373E+02  0.95586643658E+02  0.90948671867E+02 0.  0.
         13    1    3    3    0    0  0.20355091506E+02 -0.30693240639E+02  0.41252076527E+01  0.37059860676E+02  0.10566000000E+00 0.  1.
         22    1    1    0    0    0 -0.10220918118E+02 -0.24377932155E+02  0.12899410373E+02  0.29413356342E+02  0.00000000000E+00 0. -1.
</event>
<event>
 5    1  0.1245610E-004  0.9118800E+02  0.7818608E-02  0.1130116E+00
         25   -1    0    0    0    0  0.00000000000E+00  0.00000000000E+00  0.99999998245E-14  0.12500000000E+03  0.12500000000E+03 0.  0.
        -13    1    3    3    0    0  0.11920514489E+02  0.12819430594E+02 -0.45301362093E+02  0.48566048202E+02  0.10566000000E+00 0. -1.
         23    2    1    0    0    0 -0.14464103488E+02  0.22910327570E+02 -0.55323410764E+01  0.97346786862E+02  0.93336470447E+02 0.  0.
         13    1    3    3    0    0 -0.26384617977E+02  0.10090896975E+02  0.39769021017E+02  0.48780738660E+02  0.10566000000E+00 0.  1.
         22    1    1    0    0    0  0.14464103488E+02 -0.22910327570E+02  0.55323410764E+01  0.27653213138E+02  0.00000000000E+00 0.  1.
</event>
<event>
 5    1  0.1245610E-004  0.9118800E+02  0.7818608E-02  0.1130116E+00
         25   -1    0    0    0    0  0.00000000000E+00  0.00000000000E+00  0.99999998245E-14  0.12500000000E+03  0.12500000000E+03 0.  0.
        -13    1    3    3    0    0 -0.11970989995E+02  0.41420644779E+02 -0.19602561429E+01  0.43160493319E+02  0.10566000000E+00 0. -1.
         23    2    1    0    0    0 -0.24735858075E+02 -0.10176996279E+02  0.76596551875E+01  0.97177271062E+02  0.93109171222E+02 0.  0.
         13    1    3    3    0    0 -0.12764868079E+02 -0.51597641057E+02  0.96199113304E+01  0.54016777744E+02  0.10566000000E+00 0.  1.
         22    1    1    0    0    0  0.24735858075E+02  0.10176996279E+02 -0.76596551875E+01  0.27822728938E+02  0.00000000000E+00 0.  1.
</event>
<event>
 5    1  0.1245610E-004  0.9118800E+02  0.7818608E-02  0.1130116E+00
         25   -1    0    0    0    0  0.00000000000E+00  0.00000000000E+00  0.99999998245E-14  0.12500000000E+03  0.12500000000E+03 0.  0.
        -13    1    3    3    0    0  0.54884520452E+01  0.18207260719E+02  0.12718091054E+02  0.22877684603E+02  0.10566000000E+00 0.  1.
         23    2    1    0    0    0 -0.21412635875E+01 -0.31944533913E+02 -0.23564792953E+02  0.85246538219E+02  0.75409777580E+02 0.  0.
         13    1    3    3    0    0 -0.76297156328E+01 -0.50151794632E+02 -0.36282884006E+02  0.62368853615E+02  0.10566000000E+00 0. -1.
         22    1    1    0    0    0  0.21412635875E+01  0.31944533913E+02  0.23564792953E+02  0.39753461781E+02  0.00000000000E+00 0. -1.
</event>
<event>
 5    1  0.1245610E-004  0.9118800E+02  0.7818608E-02  0.1130116E+00
         25   -1    0    0    0    0  0.00000000000E+00  0.00000000000E+00  0.99999998245E-14  0.12500000000E+03  0.12500000000E+03 0.  0.
        -13    1    3    3    0    0 -0.30486677992E+02  0.11354843373E+02 -0.49626746642E+02  0.59339659161E+02  0.10566000000E+00 0.  1.
         23    2    1    0    0    0 -0.24390703491E+02 -0.96545937198E+00 -0.15618287180E+02  0.96021224611E+02  0.91544012108E+02 0.  0.
         13    1    3    3    0    0  0.60959745011E+01 -0.12320302745E+02  0.34008459462E+02  0.36681565450E+02  0.10566000000E+00 0. -1.
         22    1    1    0    0    0  0.24390703491E+02  0.96545937198E+00  0.15618287180E+02  0.28978775389E+02  0.00000000000E+00 0.  1.
</event>
<event>
 5    1  0.1245610E-004  0.9118800E+02  0.7818608E-02  0.1130116E+00
         25   -1    0    0    0    0  0.00000000000E+00  0.00000000000E+00  0.99999998245E-14  0.12500000000E+03  0.12500000000E+03 0.  0.
        -13    1    3    3    0    0 -0.28466038556E+02  0.46941925395E+01 -0.17242618157E+02  0.33610561430E+02  0.10566000000E+00 0.  1.
         23    2    1    0    0    0  0.28799730538E+02  0.92976920347E+00  0.60675089501E+01  0.95553376854E+02  0.90902938421E+02 0.  0.
         13    1    3    3    0    0  0.57265769094E+02 -0.37644233360E+01  0.23310127107E+02  0.61942815425E+02  0.10566000000E+00 0. -1.
         22    1    1    0    0    0 -0.28799730538E+02 -0.92976920347E+00 -0.60675089501E+01  0.29446623146E+02  0.00000000000E+00 0. -1.
</event>
<event>
 5    1  0.1245610E-004  0.9118800E+02  0.7818608E-02  0.1130116E+00
         25   -1    0    0    0    0  0.00000000000E+00  0.00000000000E+00  0.99999998245E-14  0.12500000000E+03  0.12500000000E+03 0.  0.
        -13    1    3    3    0    0  0.17945181434E+02  0.15677803068E+02 -0.43421570119E+02  0.49530464983E+02  0.10566000000E+00 0.  1.
         23    2    1    0    0    0  0.14790456521E+02  0.32878961515E+02 -0.94652554661E+01  0.87725682093E+02  0.79412974527E+02 0.  0.
         13    1    3    3    0    0 -0.31547249126E+01  0.17201158447E+02  0.33956314653E+02  0.38195217110E+02  0.10566000000E+00 0. -1.
         22    1    1    0    0    0 -0.14790456521E+02 -0.32878961515E+02  0.94652554661E+01  0.37274317907E+02  0.00000000000E+00 0. -1.
</event>
<event>
 5    1  0.1245610E-004  0.9118800E+02  0.7818608E-02  0.1130116E+00
         25   -1    0    0    0    0  0.00000000000E+00  0.00000000000E+00  0.99999998245E-14  0.12500000000E+03  0.12500000000E+03 0.  0.
        -13    1    3    3    0    0 -0.65288389387E+01 -0.33339493518E+02  0.29797723541E+02  0.45189191829E+02  0.10566000000E+00 0. -1.
         23    2    1    0    0    0 -0.12524182852E+02  0.15916908737E+02  0.21436705685E+02  0.95508721789E+02  0.90841512797E+02 0.  0.
         13    1    3    3    0    0 -0.59953439133E+01  0.49256402255E+02 -0.83610178562E+01  0.50319529960E+02  0.10566000000E+00 0.  1.
         22    1    1    0    0    0  0.12524182852E+02 -0.15916908737E+02 -0.21436705685E+02  0.29491278211E+02  0.00000000000E+00 0.  1.
</event>
<event>
 5    1  0.1245610E-004  0.9118800E+02  0.7818608E-02  0.1130116E+00
         25   -1    0    0    0    0  0.00000000000E+00  0.00000000000E+00  0.99999998245E-14  0.12500000000E+03  0.12500000000E+03 0.  0.
        -13    1    3    3    0    0  0.92508421175E+01 -0.98568459742E+01 -0.32548450109E+02  0.35244123779E+02  0.10566000000E+00 0. -1.
         23    2    1    0    0    0 -0.20640438399E+02  0.17521191407E+02  0.11922707726E+02  0.95416714092E+02  0.90714819754E+02 0.  0.
         13    1    3    3    0    0 -0.29891280516E+02  0.27378037382E+02  0.44471157835E+02  0.60172590313E+02  0.10566000000E+00 0.  1.
         22    1    1    0    0    0  0.20640438399E+02 -0.17521191407E+02 -0.11922707726E+02  0.29583285908E+02  0.00000000000E+00 0.  1.
</event>
<event>
 5    1  0.1245610E-004  0.9118800E+02  0.7818608E-02  0.1130116E+00
         25   -1    0    0    0    0  0.00000000000E+00  0.00000000000E+00  0.99999998245E-14  0.12500000000E+03  0.12500000000E+03 0.  0.
        -13    1    3    3    0    0 -0.56790940031E+02  0.11043236330E+01  0.20981728912E+02  0.60553071867E+02  0.10566000000E+00 0. -1.
         23    2    1    0    0    0 -0.27179579010E+02 -0.97660630213E+01  0.58752057044E+01  0.95527579941E+02  0.90867458340E+02 0.  0.
         13    1    3    3    0    0  0.29611361022E+02 -0.10870386654E+02 -0.15106523208E+02  0.34974508074E+02  0.10566000000E+00 0.  1.
         22    1    1    0    0    0  0.27179579010E+02  0.97660630213E+01 -0.58752057044E+01  0.29472420059E+02  0.00000000000E+00 0. -1.
</event>
<event>
 5    1  0.1245610E-004  0.9118800E+02  0.7818608E-02  0.1130116E+00
         25   -1    0    0    0    0  0.00000000000E+00  0.00000000000E+00  0.99999998245E-14  0.12500000000E+03  0.12500000000E+03 0.  0.
        -13    1    3    3    0    0  0.31660797500E+02 -0.41221360567E+02  0.20508395817E+02  0.55876758392E+02  0.10566000000E+00 0.  1.
         23    2    1    0    0    0  0.35615268419E+00 -0.28347631687E+02 -0.20858515675E+01  0.96573501029E+02  0.92295044597E+02 0.  0.
         13    1    3    3    0    0 -0.31304644816E+02  0.12873728880E+02 -0.22594247384E+02  0.40696742637E+02  0.10566000000E+00 0. -1.
         22    1    1    0    0    0 -0.35615268419E+00  0.28347631687E+02  0.20858515675E+01  0.28426498971E+02  0.00000000000E+00 0. -1.
</event>
<event>
 5    1  0.1245610E-004  0.9118800E+02  0.7818608E-02  0.1130116E+00
         25   -1    0    0    0    0  0.00000000000E+00  0.00000000000E+00  0.99999998245E-14  0.12500000000E+03  0.12500000000E+03 0.  0.
        -13    1    3    3    0    0  0.24447704055E+02 -0.21907120803E+02 -0.10782674240E+02  0.34552704717E+02  0.10566000000E+00 0.  1.
         23    2    1    0    0    0 -0.27738018454E+02  0.31101572648E+00  0.10790334785E+02  0.95235495581E+02  0.90464766043E+02 0.  0.
         13    1    3    3    0    0 -0.52185722509E+02  0.22218136529E+02  0.21573009025E+02  0.60682790864E+02  0.10566000000E+00 0. -1.
         22    1    1    0    0    0  0.27738018454E+02 -0.31101572648E+00 -0.10790334785E+02  0.29764504419E+02  0.00000000000E+00 0. -1.
</event>
<event>
 5    1  0.1245610E-004  0.9118800E+02  0.7818608E-02  0.1130116E+00
         25   -1    0    0    0    0  0.00000000000E+00  0.00000000000E+00  0.99999998245E-14  0.12500000000E+03  0.12500000000E+03 0.  0.
        -13    1    3    3    0    0  0.23623283315E+02  0.25343053543E+02  0.15396025394E+02  0.37912776731E+02  0.10566000000E+00 0. -1.
         23    2    1    0    0    0  0.73317466337E+01 -0.17710134113E+02 -0.20979368743E+02  0.96582799719E+02  0.92307637439E+02 0.  0.
         13    1    3    3    0    0 -0.16291536682E+02 -0.43053187656E+02 -0.36375394137E+02  0.58670022988E+02  0.10566000000E+00 0.  1.
         22    1    1    0    0    0 -0.73317466337E+01  0.17710134113E+02  0.20979368743E+02  0.28417200281E+02  0.00000000000E+00 0.  1.
</event>
<event>
 5    1  0.1245610E-004  0.9118800E+02  0.7818608E-02  0.1130116E+00
         25   -1    0    0    0    0  0.00000000000E+00  0.00000000000E+00  0.99999998245E-14  0.12500000000E+03  0.12500000000E+03 0.  0.
        -13    1    3    3    0    0  0.76056775728E+01  0.25684697543E+02 -0.26098837888E+02  0.37399338528E+02  0.10566000000E+00 0. -1.
         23    2    1    0    0    0  0.16024931611E+02 -0.20812930740E+02  0.10030556252E+02  0.96882592974E+02  0.92712718887E+02 0.  0.
         13    1    3    3    0    0  0.84192540384E+01 -0.46497628283E+02  0.36129394140E+02  0.59483254446E+02  0.10566000000E+00 0.  1.
         22    1    1    0    0    0 -0.16024931611E+02  0.20812930740E+02 -0.10030556252E+02  0.28117407026E+02  0.00000000000E+00 0.  1.
</event>
<event>
 5    1  0.1245610E-004  0.9118800E+02  0.7818608E-02  0.1130116E+00
         25   -1    0    0    0    0  0.00000000000E+00  0.00000000000E+00  0.99999998245E-14  0.12500000000E+03  0.12500000000E+03 0.  0.
        -13    1    3    3    0    0 -0.14113010237E+02  0.30361644464E+02  0.55623498764E+01  0.33940498121E+02  0.10566000000E+00 0.  1.
         23    2    1    0    0    0  0.20694072297E+02 -0.14360872320E+02 -0.16645736926E+02  0.94807950718E+02  0.89872062842E+02 0.  0.
         13    1    3    3    0    0  0.34807082535E+02 -0.44722516784E+02 -0.22208086802E+02  0.60867452597E+02  0.10566000000E+00 0. -1.
         22    1    1    0    0    0 -0.20694072297E+02  0.14360872320E+02  0.16645736926E+02  0.30192049282E+02  0.00000000000E+00 0. -1.
</event>
<event>
 5    1  0.1245610E-004  0.9118800E+02  0.7818608E-02  0.1130116E+00
         25   -1    0    0    0    0  0.00000000000E+00  0.00000000000E+00  0.99999998245E-14  0.12500000000E+03  0.12500000000E+03 0.  0.
        -13    1    3    3    0    0  0.35023259305E+02 -0.27052149723E+02  0.43057783748E+02  0.61744889686E+02  0.10566000000E+00 0. -1.
         23    2    1    0    0    0  0.11904946636E+02 -0.88317362193E+01  0.23935054692E+02  0.96846595905E+02  0.92664173099E+02 0.  0.
         13    1    3    3    0    0 -0.23118312669E+02  0.18220413503E+02 -0.19122729056E+02  0.35101706219E+02  0.10566000000E+00 0.  1.
         22    1    1    0    0    0 -0.11904946636E+02  0.88317362193E+01 -0.23935054692E+02  0.28153404095E+02  0.00000000000E+00 0. -1.
</event>
<event>
 5    1  0.1245610E-004  0.9118800E+02  0.7818608E-02  0.1130116E+00
         25   -1    0    0    0    0  0.00000000000E+00  0.00000000000E+00  0.99999998245E-14  0.12500000000E+03  0.12500000000E+03 0.  0.
        -13    1    3    3    0    0 -0.18363391467E+02  0.20200703885E+02 -0.18961205901E+02  0.33238848911E+02  0.10566000000E+00 0.  1.
         23    2    1    0    0    0  0.13205538637E+02  0.12983570730E+02  0.28689791024E+02  0.90852328504E+02  0.84190748459E+02 0.  0.
         13    1    3    3    0    0  0.31568930104E+02 -0.72171331552E+01  0.47650996925E+02  0.57613479594E+02  0.10566000000E+00 0. -1.
         22    1    1    0    0    0 -0.13205538637E+02 -0.12983570730E+02 -0.28689791024E+02  0.34147671496E+02  0.00000000000E+00 0. -1.
</event>
<event>
 5    1  0.1245610E-004  0.9118800E+02  0.7818608E-02  0.1130116E+00
         25   -1    0    0    0    0  0.00000000000E+00  0.00000000000E+00  0.99999998245E-14  0.12500000000E+03  0.12500000000E+03 0.  0.
        -13    1    3    3    0    0  0.34667588843E+02 -0.21554241156E+02  0.29628606272E+02  0.50440980379E+02  0.10566000000E+00 0. -1.
         23    2    1    0    0    0  0.23103180132E+02  0.15504776936E+02  0.41703229125E+01  0.96865561437E+02  0.92689753260E+02 0.  0.
         13    1    3    3    0    0 -0.11564408711E+02  0.37059018092E+02 -0.25458283360E+02  0.46424581058E+02  0.10566000000E+00 0.  1.
         22    1    1    0    0    0 -0.23103180132E+02 -0.15504776936E+02 -0.41703229125E+01  0.28134438563E+02  0.00000000000E+00 0. -1.
</event>
<event>
 5    1  0.1245610E-004  0.9118800E+02  0.7818608E-02  0.1130116E+00
         25   -1    0    0    0    0  0.00000000000E+00  0.00000000000E+00  0.99999998245E-14  0.12500000000E+03  0.12500000000E+03 0.  0.
        -13    1    3    3    0    0 -0.95161225073E+01 -0.50635746772E+02 -0.21530629563E+02  0.55840080696E+02  0.10566000000E+00 0.  1.
         23    2    1    0    0    0 -0.99333967343E+01 -0.10781276098E+02 -0.25179805598E+02  0.95863581295E+02  0.91328502253E+02 0.  0.
         13    1    3    3    0    0 -0.41727422694E+00  0.39854470674E+02 -0.36491760351E+01  0.40023500599E+02  0.10566000000E+00 0. -1.
         22    1    1    0    0    0  0.99333967343E+01  0.10781276098E+02  0.25179805598E+02  0.29136418705E+02  0.00000000000E+00 0.  1.
</event>
<event>
 5    1  0.1245610E-004  0.9118800E+02  0.7818608E-02  0.1130116E+00
         25   -1    0    0    0    0  0.00000000000E+00  0.00000000000E+00  0.99999998245E-14  0.12500000000E+03  0.12500000000E+03 0.  0.
        -13    1    3    3    0    0  0.17276319590E+02  0.14820794968E+02  0.37074370816E+02  0.43504566628E+02  0.10566000000E+00 0. -1.
         23    2    1    0    0    0 -0.26261618240E+02  0.79552310040E+01  0.76023331308E+01  0.96526261890E+02  0.92231043974E+02 0.  0.
         13    1    3    3    0    0 -0.43537937830E+02 -0.68655639639E+01 -0.29472037685E+02  0.53021695262E+02  0.10566000000E+00 0.  1.
         22    1    1    0    0    0  0.26261618240E+02 -0.79552310040E+01 -0.76023331308E+01  0.28473738110E+02  0.00000000000E+00 0.  1.
</event>
<event>
 5    1  0.1245610E-004  0.9118800E+02  0.7818608E-02  0.1130116E+00
         25   -1    0    0    0    0  0.00000000000E+00  0.00000000000E+00  0.99999998245E-14  0.12500000000E+03  0.12500000000E+03 0.  0.
        -13    1    3    3    0    0  0.45335269103E+02 -0.54360885539E+01 -0.16599132446E+02  0.48583742604E+02  0.10566000000E+00 0.  1.
         23    2    1    0    0    0  0.12178419723E+01 -0.21078385453E+02 -0.20521840414E+02  0.95556369002E+02  0.90907052809E+02 0.  0.
         13    1    3    3    0    0 -0.44117427130E+02 -0.15642296899E+02 -0.39227079677E+01  0.46972626398E+02  0.10566000000E+00 0. -1.
         22    1    1    0    0    0 -0.12178419723E+01  0.21078385453E+02  0.20521840414E+02  0.29443630998E+02  0.00000000000E+00 0.  1.
</event>
<event>
 5    1  0.1245610E-004  0.9118800E+02  0.7818608E-02  0.1130116E+00
         25   -1    0    0    0    0  0.00000000000E+00  0.00000000000E+00  0.99999998245E-14  0.12500000000E+03  0.12500000000E+03 0.  0.
        -13    1    3    3    0    0  0.14469024537E+02  0.48192569639E+02 -0.21741815292E+02  0.54814178236E+02  0.10566000000E+00 0.  1.
         23    2    1    0    0    0 -0.12934696335E+02  0.18405171330E+02 -0.19294022698E+02  0.95363603242E+02  0.90641606398E+02 0.  0.
         13    1    3    3    0    0 -0.27403720872E+02 -0.29787398310E+02  0.24477925939E+01  0.40549425006E+02  0.10566000000E+00 0. -1.
         22    1    1    0    0    0  0.12934696335E+02 -0.18405171330E+02  0.19294022698E+02  0.29636396758E+02  0.00000000000E+00 0.  1.
</event>
<event>
 5    1  0.1245610E-004  0.9118800E+02  0.7818608E-02  0.1130116E+00
         25   -1    0    0    0    0  0.00000000000E+00  0.00000000000E+00  0.99999998245E-14  0.12500000000E+03  0.12500000000E+03 0.  0.
        -13    1    3    3    0    0 -0.13401819388E+02 -0.25464550319E+02  0.21937389551E+02  0.36184420822E+02  0.10566000000E+00 0.  1.
         23    2    1    0    0    0  0.28288389554E+02 -0.41087511100E+01 -0.11969133655E+02  0.94010082612E+02  0.88755397881E+02 0.  0.
         13    1    3    3    0    0  0.41690208943E+02  0.21355799209E+02 -0.33906523206E+02  0.57825661790E+02  0.10566000000E+00 0. -1.
         22    1    1    0    0    0 -0.28288389554E+02  0.41087511100E+01  0.11969133655E+02  0.30989917388E+02  0.00000000000E+00 0. -1.
</event>
<event>
 5    1  0.1245610E-004  0.9118800E+02  0.7818608E-02  0.1130116E+00
         25   -1    0    0    0    0  0.00000000000E+00  0.00000000000E+00  0.99999998245E-14  0.12500000000E+03  0.12500000000E+03 0.  0.
        -13    1    3    3    0    0  0.32305893844E+02 -0.13640684307E+02  0.33293600871E+02  0.48355083170E+02  0.10566000000E+00 0.  1.
         23    2    1    0    0    0 -0.13727747782E+02 -0.11607861833E+02  0.23413016010E+02  0.95481144429E+02  0.90803557790E+02 0.  0.
         13    1    3    3    0    0 -0.46033641626E+02  0.20328224740E+01 -0.98805848609E+01  0.47126061259E+02  0.10566000000E+00 0. -1.
         22    1    1    0    0    0  0.13727747782E+02  0.11607861833E+02 -0.23413016010E+02  0.29518855571E+02  0.00000000000E+00 0. -1.
</event>
<event>
 5    1  0.1245610E-004  0.9118800E+02  0.7818608E-02  0.1130116E+00
         25   -1    0    0    0    0  0.00000000000E+00  0.00000000000E+00  0.99999998245E-14  0.12500000000E+03  0.12500000000E+03 0.  0.
        -13    1    3    3    0    0 -0.28511656228E+02 -0.58219571766E+01  0.33791587615E+02  0.44594756237E+02  0.10566000000E+00 0.  1.
         23    2    1    0    0    0 -0.62699333625E+01 -0.24227011270E+02  0.43298860139E+02  0.74989486817E+02  0.55878186301E+02 0.  0.
         13    1    3    3    0    0  0.22241722865E+02 -0.18405054093E+02  0.95072725237E+01  0.30394730581E+02  0.10566000000E+00 0. -1.
         22    1    1    0    0    0  0.62699333625E+01  0.24227011270E+02 -0.43298860139E+02  0.50010513183E+02  0.00000000000E+00 0. -1.
</event>
<event>
 5    1  0.1245610E-004  0.9118800E+02  0.7818608E-02  0.1130116E+00
         25   -1    0    0    0    0  0.00000000000E+00  0.00000000000E+00  0.99999998245E-14  0.12500000000E+03  0.12500000000E+03 0.  0.
        -13    1    3    3    0    0 -0.24771545377E+02  0.10945283542E+02 -0.30033480323E+02  0.40440694808E+02  0.10566000000E+00 0. -1.
         23    2    1    0    0    0  0.21029777553E+02 -0.15125583469E+02 -0.14145258235E+02  0.95485204562E+02  0.90809146789E+02 0.  0.
         13    1    3    3    0    0  0.45801322930E+02 -0.26070867011E+02  0.15888222089E+02  0.55044509754E+02  0.10566000000E+00 0.  1.
         22    1    1    0    0    0 -0.21029777553E+02  0.15125583469E+02  0.14145258235E+02  0.29514795438E+02  0.00000000000E+00 0.  1.
</event>
<event>
 5    1  0.1245610E-004  0.9118800E+02  0.7818608E-02  0.1130116E+00
         25   -1    0    0    0    0  0.00000000000E+00  0.00000000000E+00  0.99999998245E-14  0.12500000000E+03  0.12500000000E+03 0.  0.
        -13    1    3    3    0    0 -0.51363728277E+02  0.20053546085E+02 -0.29201056843E+02  0.62394632604E+02  0.10566000000E+00 0.  1.
         23    2    1    0    0    0 -0.25856198855E+02  0.76795546806E+01 -0.12845267336E+02  0.95124935611E+02  0.90311870221E+02 0.  0.
         13    1    3    3    0    0  0.25507529422E+02 -0.12373991404E+02  0.16355789507E+02  0.32730303007E+02  0.10566000000E+00 0. -1.
         22    1    1    0    0    0  0.25856198855E+02 -0.76795546806E+01  0.12845267336E+02  0.29875064389E+02  0.00000000000E+00 0.  1.
</event>
<event>
 5    1  0.1245610E-004  0.9118800E+02  0.7818608E-02  0.1130116E+00
         25   -1    0    0    0    0  0.00000000000E+00  0.00000000000E+00  0.99999998245E-14  0.12500000000E+03  0.12500000000E+03 0.  0.
        -13    1    3    3    0    0 -0.70420202362E+01 -0.15456000709E+02  0.33874368576E+02  0.37894089478E+02  0.10566000000E+00 0.  1.
         23    2    1    0    0    0  0.81000641094E+01  0.27597375291E+02 -0.23231084878E+01  0.96144792591E+02  0.91712584457E+02 0.  0.
         13    1    3    3    0    0  0.15142084346E+02  0.43053376001E+02 -0.36197477064E+02  0.58250703113E+02  0.10566000000E+00 0. -1.
         22    1    1    0    0    0 -0.81000641094E+01 -0.27597375291E+02  0.23231084878E+01  0.28855207409E+02  0.00000000000E+00 0. -1.
</event>
<event>
 5    1  0.1245610E-004  0.9118800E+02  0.7818608E-02  0.1130116E+00
         25   -1    0    0    0    0  0.00000000000E+00  0.00000000000E+00  0.99999998245E-14  0.12500000000E+03  0.12500000000E+03 0.  0.
        -13    1    3    3    0    0  0.31837172001E+02 -0.20217463142E+02 -0.85365786476E+01  0.38668277385E+02  0.10566000000E+00 0. -1.
         23    2    1    0    0    0 -0.23225959988E+02 -0.26046374620E+01 -0.15586198734E+02  0.96908027043E+02  0.92747004053E+02 0.  0.
         13    1    3    3    0    0 -0.55063131988E+02  0.17612825680E+02 -0.70496200860E+01  0.58239749658E+02  0.10566000000E+00 0.  1.
         22    1    1    0    0    0  0.23225959988E+02  0.26046374620E+01  0.15586198734E+02  0.28091972957E+02  0.00000000000E+00 0.  1.
</event>
<event>
 5    1  0.1245610E-004  0.9118800E+02  0.7818608E-02  0.1130116E+00
         25   -1    0    0    0    0  0.00000000000E+00  0.00000000000E+00  0.99999998245E-14  0.12500000000E+03  0.12500000000E+03 0.  0.
        -13    1    3    3    0    0  0.14338146596E+02 -0.43448553515E+01 -0.60317851317E+02  0.62150740683E+02  0.10566000000E+00 0. -1.
         23    2    1    0    0    0  0.92800203202E+01  0.16872090141E+01 -0.26545921375E+02  0.96828180871E+02  0.92639328677E+02 0.  0.
         13    1    3    3    0    0 -0.50581262754E+01  0.60320643656E+01  0.33771929943E+02  0.34677440189E+02  0.10566000000E+00 0.  1.
         22    1    1    0    0    0 -0.92800203202E+01 -0.16872090141E+01  0.26545921375E+02  0.28171819129E+02  0.00000000000E+00 0. -1.
</event>
<event>
 5    1  0.1245610E-004  0.9118800E+02  0.7818608E-02  0.1130116E+00
         25   -1    0    0    0    0  0.00000000000E+00  0.00000000000E+00  0.99999998245E-14  0.12500000000E+03  0.12500000000E+03 0.  0.
        -13    1    3    3    0    0 -0.39035671795E+02  0.14461907920E+01  0.35285251603E+01  0.39221636811E+02  0.10566000000E+00 0.  1.
         23    2    1    0    0    0  0.57848569682E+01  0.95046115179E+01 -0.28173459879E+02  0.94708977373E+02  0.89734298589E+02 0.  0.
         13    1    3    3    0    0  0.44820528763E+02  0.80584207260E+01 -0.31701985039E+02  0.55487340562E+02  0.10566000000E+00 0. -1.
         22    1    1    0    0    0 -0.57848569682E+01 -0.95046115179E+01  0.28173459879E+02  0.30291022627E+02  0.00000000000E+00 0. -1.
</event>
<event>
 5    1  0.1245610E-004  0.9118800E+02  0.7818608E-02  0.1130116E+00
         25   -1    0    0    0    0  0.00000000000E+00  0.00000000000E+00  0.99999998245E-14  0.12500000000E+03  0.12500000000E+03 0.  0.
        -13    1    3    3    0    0  0.90249785323E+01  0.40740607435E+02 -0.20037308520E+01  0.41776469849E+02  0.10566000000E+00 0.  1.
         23    2    1    0    0    0 -0.15277047846E+02  0.44776317063E+01  0.26624004879E+02  0.93979442100E+02  0.88712234360E+02 0.  0.
         13    1    3    3    0    0 -0.24302026379E+02 -0.36262975728E+02  0.28627735731E+02  0.52202972252E+02  0.10566000000E+00 0. -1.
         22    1    1    0    0    0  0.15277047846E+02 -0.44776317063E+01 -0.26624004879E+02  0.31020557900E+02  0.00000000000E+00 0. -1.
</event>
<event>
 5    1  0.1245610E-004  0.9118800E+02  0.7818608E-02  0.1130116E+00
         25   -1    0    0    0    0  0.00000000000E+00  0.00000000000E+00  0.99999998245E-14  0.12500000000E+03  0.12500000000E+03 0.  0.
        -13    1    3    3    0    0 -0.10426762520E+02  0.32982311757E+02  0.38647795347E+02  0.51867268240E+02  0.10566000000E+00 0.  1.
         23    2    1    0    0    0 -0.56226042290E+01  0.26164976172E+02 -0.62370967754E+01  0.97520534347E+02  0.93568870821E+02 0.  0.
         13    1    3    3    0    0  0.48041582908E+01 -0.68173355848E+01 -0.44884892122E+02  0.45653266107E+02  0.10566000000E+00 0. -1.
         22    1    1    0    0    0  0.56226042290E+01 -0.26164976172E+02  0.62370967754E+01  0.27479465653E+02  0.00000000000E+00 0.  1.
</event>
<event>
 5    1  0.1245610E-004  0.9118800E+02  0.7818608E-02  0.1130116E+00
         25   -1    0    0    0    0  0.00000000000E+00  0.00000000000E+00  0.99999998245E-14  0.12500000000E+03  0.12500000000E+03 0.  0.
        -13    1    3    3    0    0 -0.28825929423E+02 -0.22077649972E+01  0.19773315102E+02  0.35025756059E+02  0.10566000000E+00 0.  1.
         23    2    1    0    0    0  0.29141863541E+02  0.90127611237E+00  0.11476137350E+02  0.93666914647E+02  0.88270769010E+02 0.  0.
         13    1    3    3    0    0  0.57967792964E+02  0.31090411095E+01 -0.82971777525E+01  0.58641158587E+02  0.10566000000E+00 0. -1.
         22    1    1    0    0    0 -0.29141863541E+02 -0.90127611237E+00 -0.11476137350E+02  0.31333085353E+02  0.00000000000E+00 0. -1.
</event>
<event>
 5    1  0.1245610E-004  0.9118800E+02  0.7818608E-02  0.1130116E+00
         25   -1    0    0    0    0  0.00000000000E+00  0.00000000000E+00  0.99999998245E-14  0.12500000000E+03  0.12500000000E+03 0.  0.
        -13    1    3    3    0    0  0.37482512360E+02 -0.76710422167E+01  0.84044083041E+00  0.38268800952E+02  0.10566000000E+00 0. -1.
         23    2    1    0    0    0 -0.11981254824E+02  0.73184709039E+01  0.25771238558E+02  0.95652645429E+02  0.91039339613E+02 0.  0.
         13    1    3    3    0    0 -0.49463767184E+02  0.14989513121E+02  0.24930797727E+02  0.57383844477E+02  0.10566000000E+00 0.  1.
         22    1    1    0    0    0  0.11981254824E+02 -0.73184709039E+01 -0.25771238558E+02  0.29347354571E+02  0.00000000000E+00 0.  1.
</event>
<event>
 5    1  0.1245610E-004  0.9118800E+02  0.7818608E-02  0.1130116E+00
         25   -1    0    0    0    0  0.00000000000E+00  0.00000000000E+00  0.99999998245E-14  0.12500000000E+03  0.12500000000E+03 0.  0.
        -13    1    3    3    0    0 -0.22192424463E+02 -0.13013033713E+02 -0.14353947610E+02  0.29459968194E+02  0.10566000000E+00 0. -1.
         23    2    1    0    0    0  0.26223048478E+02  0.10460057163E+02  0.17302585790E+02  0.91887456420E+02  0.85713850135E+02 0.  0.
         13    1    3    3    0    0  0.48415472941E+02  0.23473090876E+02  0.31656533400E+02  0.62427488226E+02  0.10566000000E+00 0.  1.
         22    1    1    0    0    0 -0.26223048478E+02 -0.10460057163E+02 -0.17302585790E+02  0.33112543580E+02  0.00000000000E+00 0.  1.
</event>
<event>
 5    1  0.1245610E-004  0.9118800E+02  0.7818608E-02  0.1130116E+00
         25   -1    0    0    0    0  0.00000000000E+00  0.00000000000E+00  0.99999998245E-14  0.12500000000E+03  0.12500000000E+03 0.  0.
        -13    1    3    3    0    0 -0.19334296576E+02  0.30767452379E+02 -0.45709263926E+02  0.58393485276E+02  0.10566000000E+00 0.  1.
         23    2    1    0    0    0 -0.98444318375E+01 -0.25745449232E+00 -0.27919379609E+02  0.95394749135E+02  0.90684548208E+02 0.  0.
         13    1    3    3    0    0  0.94898647384E+01 -0.31024906871E+02  0.17789884317E+02  0.37001263859E+02  0.10566000000E+00 0. -1.
         22    1    1    0    0    0  0.98444318375E+01  0.25745449232E+00  0.27919379609E+02  0.29605250865E+02  0.00000000000E+00 0.  1.
</event>
<event>
 5    1  0.1245610E-004  0.9118800E+02  0.7818608E-02  0.1130116E+00
         25   -1    0    0    0    0  0.00000000000E+00  0.00000000000E+00  0.99999998245E-14  0.12500000000E+03  0.12500000000E+03 0.  0.
        -13    1    3    3    0    0  0.41900432835E+01 -0.49641309182E+02  0.30927014922E+02  0.58637082601E+02  0.10566000000E+00 0.  1.
         23    2    1    0    0    0  0.41376607441E+01 -0.43747246254E+02  0.10606344420E+02  0.79795615996E+02  0.65756398921E+02 0.  0.
         13    1    3    3    0    0 -0.52382539408E-01  0.58940629281E+01 -0.20320670502E+02  0.21158533395E+02  0.10566000000E+00 0. -1.
         22    1    1    0    0    0 -0.41376607441E+01  0.43747246254E+02 -0.10606344420E+02  0.45204384004E+02  0.00000000000E+00 0.  1.
</event>
<event>
 5    1  0.1245610E-004  0.9118800E+02  0.7818608E-02  0.1130116E+00
         25   -1    0    0    0    0  0.00000000000E+00  0.00000000000E+00  0.99999998245E-14  0.12500000000E+03  0.12500000000E+03 0.  0.
        -13    1    3    3    0    0  0.17374549706E+02 -0.70518113898E+01 -0.46370995352E+02  0.50018830407E+02  0.10566000000E+00 0. -1.
         23    2    1    0    0    0 -0.12513300815E+02 -0.22143250021E+02 -0.19467278983E+02  0.92970620210E+02  0.87279178802E+02 0.  0.
         13    1    3    3    0    0 -0.29887850521E+02 -0.15091438631E+02  0.26903716369E+02  0.42951789802E+02  0.10566000000E+00 0.  1.
         22    1    1    0    0    0  0.12513300815E+02  0.22143250021E+02  0.19467278983E+02  0.32029379790E+02  0.00000000000E+00 0. -1.
</event>
<event>
 5    1  0.1245610E-004  0.9118800E+02  0.7818608E-02  0.1130116E+00
         25   -1    0    0    0    0  0.00000000000E+00  0.00000000000E+00  0.99999998245E-14  0.12500000000E+03  0.12500000000E+03 0.  0.
        -13    1    3    3    0    0  0.24117258633E+02  0.34532715305E+02 -0.19145198620E+02  0.46267703472E+02  0.10566000000E+00 0.  1.
         23    2    1    0    0    0  0.26879941300E+02 -0.55504021095E+01  0.98750983749E+01  0.95830567784E+02  0.91283305955E+02 0.  0.
         13    1    3    3    0    0  0.27626826667E+01 -0.40083117414E+02  0.29020296995E+02  0.49562864313E+02  0.10566000000E+00 0. -1.
         22    1    1    0    0    0 -0.26879941300E+02  0.55504021095E+01 -0.98750983749E+01  0.29169432216E+02  0.00000000000E+00 0. -1.
</event>
<event>
 5    1  0.1245610E-004  0.9118800E+02  0.7818608E-02  0.1130116E+00
         25   -1    0    0    0    0  0.00000000000E+00  0.00000000000E+00  0.99999998245E-14  0.12500000000E+03  0.12500000000E+03 0.  0.
        -13    1    3    3    0    0 -0.18197541090E+02  0.27913192093E+02 -0.46814978941E+02  0.57462598373E+02  0.10566000000E+00 0. -1.
         23    2    1    0    0    0 -0.18527315495E+02  0.19028670478E+02 -0.80293080766E+01  0.97254342541E+02  0.93212583031E+02 0.  0.
         13    1    3    3    0    0 -0.32977440485E+00 -0.88845216145E+01  0.38785670865E+02  0.39791744168E+02  0.10566000000E+00 0.  1.
         22    1    1    0    0    0  0.18527315495E+02 -0.19028670478E+02  0.80293080766E+01  0.27745657459E+02  0.00000000000E+00 0. -1.
</event>
<event>
 5    1  0.1245610E-004  0.9118800E+02  0.7818608E-02  0.1130116E+00
         25   -1    0    0    0    0  0.00000000000E+00  0.00000000000E+00  0.99999998245E-14  0.12500000000E+03  0.12500000000E+03 0.  0.
        -13    1    3    3    0    0  0.49277813633E+01 -0.32199202903E+02  0.15856483986E+02  0.36228592923E+02  0.10566000000E+00 0. -1.
         23    2    1    0    0    0  0.15102404804E+02  0.24974288432E+02  0.34469051638E+01  0.95611586147E+02  0.90982946407E+02 0.  0.
         13    1    3    3    0    0  0.10174623441E+02  0.57173491336E+02 -0.12409578822E+02  0.59382993224E+02  0.10566000000E+00 0.  1.
         22    1    1    0    0    0 -0.15102404804E+02 -0.24974288432E+02 -0.34469051638E+01  0.29388413853E+02  0.00000000000E+00 0.  1.
</event>
<event>
 5    1  0.1245610E-004  0.9118800E+02  0.7818608E-02  0.1130116E+00
         25   -1    0    0    0    0  0.00000000000E+00  0.00000000000E+00  0.99999998245E-14  0.12500000000E+03  0.12500000000E+03 0.  0.
        -13    1    3    3    0    0  0.30548300261E+02 -0.52013747911E+01 -0.27911901290E+01  0.31113579911E+02  0.10566000000E+00 0. -1.
         23    2    1    0    0    0 -0.21661704798E+02  0.23600112305E+02  0.86271500933E+01  0.91824369271E+02  0.85621798145E+02 0.  0.
         13    1    3    3    0    0 -0.52210005058E+02  0.28801487096E+02  0.11418340222E+02  0.60710789359E+02  0.10566000000E+00 0.  1.
         22    1    1    0    0    0  0.21661704798E+02 -0.23600112305E+02 -0.86271500933E+01  0.33175630729E+02  0.00000000000E+00 0.  1.
</event>
<event>
 5    1  0.1245610E-004  0.9118800E+02  0.7818608E-02  0.1130116E+00
         25   -1    0    0    0    0  0.00000000000E+00  0.00000000000E+00  0.99999998245E-14  0.12500000000E+03  0.12500000000E+03 0.  0.
        -13    1    3    3    0    0  0.47082980644E+02  0.86860193992E+01 -0.38155859999E+02  0.61222012509E+02  0.10566000000E+00 0. -1.
         23    2    1    0    0    0  0.23406750198E+02  0.10852951048E+02 -0.12073977634E+02  0.96514153740E+02  0.92214632434E+02 0.  0.
         13    1    3    3    0    0 -0.23676230447E+02  0.21669316484E+01  0.26081882365E+02  0.35292141231E+02  0.10566000000E+00 0.  1.
         22    1    1    0    0    0 -0.23406750198E+02 -0.10852951048E+02  0.12073977634E+02  0.28485846260E+02  0.00000000000E+00 0. -1.
</event>
<event>
 5    1  0.1245610E-004  0.9118800E+02  0.7818608E-02  0.1130116E+00
         25   -1    0    0    0    0  0.00000000000E+00  0.00000000000E+00  0.99999998245E-14  0.12500000000E+03  0.12500000000E+03 0.  0.
        -13    1    3    3    0    0  0.30175310088E+02 -0.23530677047E+02  0.59505139215E+01  0.38725468120E+02  0.10566000000E+00 0. -1.
         23    2    1    0    0    0  0.39293500214E+01  0.26273740680E+02  0.12932088881E+02  0.95453626894E+02  0.90765669300E+02 0.  0.
         13    1    3    3    0    0 -0.26245960066E+02  0.49804417727E+02  0.69815749593E+01  0.56728158774E+02  0.10566000000E+00 0.  1.
         22    1    1    0    0    0 -0.39293500214E+01 -0.26273740680E+02 -0.12932088881E+02  0.29546373106E+02  0.00000000000E+00 0.  1.
</event>
<event>
 5    1  0.1245610E-004  0.9118800E+02  0.7818608E-02  0.1130116E+00
         25   -1    0    0    0    0  0.00000000000E+00  0.00000000000E+00  0.99999998245E-14  0.12500000000E+03  0.12500000000E+03 0.  0.
        -13    1    3    3    0    0 -0.39874673849E+02 -0.74598908671E+01  0.35596454878E+01  0.40722497791E+02  0.10566000000E+00 0. -1.
         23    2    1    0    0    0  0.84161381516E+01  0.38365273239E+01  0.27639596760E+02  0.95853857333E+02  0.91315192237E+02 0.  0.
         13    1    3    3    0    0  0.48290812001E+02  0.11296418191E+02  0.24079951272E+02  0.55131359542E+02  0.10566000000E+00 0.  1.
         22    1    1    0    0    0 -0.84161381516E+01 -0.38365273239E+01 -0.27639596760E+02  0.29146142667E+02  0.00000000000E+00 0.  1.
</event>
<event>
 5    1  0.1245610E-004  0.9118800E+02  0.7818608E-02  0.1130116E+00
         25   -1    0    0    0    0  0.00000000000E+00  0.00000000000E+00  0.99999998245E-14  0.12500000000E+03  0.12500000000E+03 0.  0.
        -13    1    3    3    0    0 -0.15685696751E+02 -0.14879285287E+02  0.29811429508E+02  0.36826168773E+02  0.10566000000E+00 0.  1.
         23    2    1    0    0    0 -0.14530891183E+02  0.10832982408E+02 -0.23083766548E+02  0.95651054798E+02  0.91037155598E+02 0.  0.
         13    1    3    3    0    0  0.11548055680E+01  0.25712267695E+02 -0.52895196056E+02  0.58824886024E+02  0.10566000000E+00 0. -1.
         22    1    1    0    0    0  0.14530891183E+02 -0.10832982408E+02  0.23083766548E+02  0.29348945202E+02  0.00000000000E+00 0. -1.
</event>
<event>
 5    1  0.1245610E-004  0.9118800E+02  0.7818608E-02  0.1130116E+00
         25   -1    0    0    0    0  0.00000000000E+00  0.00000000000E+00  0.99999998245E-14  0.12500000000E+03  0.12500000000E+03 0.  0.
        -13    1    3    3    0    0 -0.29941374871E+02 -0.25522135705E+02 -0.19013453164E+02  0.43696543403E+02  0.10566000000E+00 0. -1.
         23    2    1    0    0    0 -0.28050109304E+02  0.55418993780E+01 -0.35900630743E+02  0.79104721720E+02  0.64429654895E+02 0.  0.
         13    1    3    3    0    0  0.18912655673E+01  0.31064035083E+02 -0.16887177579E+02  0.35408178316E+02  0.10566000000E+00 0.  1.
         22    1    1    0    0    0  0.28050109304E+02 -0.55418993780E+01  0.35900630743E+02  0.45895278280E+02  0.00000000000E+00 0. -1.
</event>
<event>
 5    1  0.1245610E-004  0.9118800E+02  0.7818608E-02  0.1130116E+00
         25   -1    0    0    0    0  0.00000000000E+00  0.00000000000E+00  0.99999998245E-14  0.12500000000E+03  0.12500000000E+03 0.  0.
        -13    1    3    3    0    0 -0.44092398288E+02 -0.25029127422E+01  0.32428826995E+02  0.54790912963E+02  0.10566000000E+00 0. -1.
         23    2    1    0    0    0 -0.97866489916E+01  0.15645784538E+02  0.24372508702E+02  0.94428963826E+02  0.89343387873E+02 0.  0.
         13    1    3    3    0    0  0.34305749297E+02  0.18148697280E+02 -0.80563182925E+01  0.39638050863E+02  0.10566000000E+00 0.  1.
         22    1    1    0    0    0  0.97866489916E+01 -0.15645784538E+02 -0.24372508702E+02  0.30571036174E+02  0.00000000000E+00 0. -1.
</event>
<event>
 4    1  0.1245610E-004  0.9118800E+02  0.7818608E-02  0.1130116E+00
         25   -1    0    0    0    0  0.00000000000E+00  0.00000000000E+00  0.99999998245E-14  0.12500000000E+03  0.12500000000E+03 0.  0.
        -13    1    1    0    0    0  0.10254102120E+02 -0.49591320691E+01  0.45371511152E+01  0.12261178795E+02  0.10566000000E+00 0.  1.
         13    1    1    0    0    0 -0.15448940992E+02 -0.42176661301E+02  0.30051923179E+02  0.54043221472E+02  0.10566000000E+00 0. -1.
         22    1    1    0    0    0  0.51948388714E+01  0.47135793370E+02 -0.34589074294E+02  0.58695599733E+02  0.00000000000E+00 0. -1.
</event>
<event>
 5    1  0.1245610E-004  0.9118800E+02  0.7818608E-02  0.1130116E+00
         25   -1    0    0    0    0  0.00000000000E+00  0.00000000000E+00  0.99999998245E-14  0.12500000000E+03  0.12500000000E+03 0.  0.
        -13    1    3    3    0    0 -0.34495644744E+02 -0.25597488134E+02  0.32123338695E+02  0.53638614430E+02  0.10566000000E+00 0.  1.
         23    2    1    0    0    0  0.33351583117E+01  0.35067233006E+01  0.22055588632E+02  0.10241971260E+03  0.99899590337E+02 0.  0.
         13    1    3    3    0    0  0.37830803056E+02  0.29104211434E+02 -0.10067750063E+02  0.48781098168E+02  0.10566000000E+00 0. -1.
         22    1    1    0    0    0 -0.33351583117E+01 -0.35067233006E+01 -0.22055588632E+02  0.22580287402E+02  0.00000000000E+00 0. -1.
</event>
<event>
 5    1  0.1245610E-004  0.9118800E+02  0.7818608E-02  0.1130116E+00
         25   -1    0    0    0    0  0.00000000000E+00  0.00000000000E+00  0.99999998245E-14  0.12500000000E+03  0.12500000000E+03 0.  0.
        -13    1    3    3    0    0  0.29406048328E+02 -0.19773252576E+02  0.28721489514E+02  0.45613948740E+02  0.10566000000E+00 0. -1.
         23    2    1    0    0    0 -0.79776162977E+01  0.12351838039E+02  0.26183895168E+02  0.94969904581E+02  0.90097037383E+02 0.  0.
         13    1    3    3    0    0 -0.37383664625E+02  0.32125090615E+02 -0.25375943468E+01  0.49355955841E+02  0.10566000000E+00 0.  1.
         22    1    1    0    0    0  0.79776162977E+01 -0.12351838039E+02 -0.26183895168E+02  0.30030095419E+02  0.00000000000E+00 0.  1.
</event>
<event>
 5    1  0.1245610E-004  0.9118800E+02  0.7818608E-02  0.1130116E+00
         25   -1    0    0    0    0  0.00000000000E+00  0.00000000000E+00  0.99999998245E-14  0.12500000000E+03  0.12500000000E+03 0.  0.
        -13    1    3    3    0    0 -0.18347251786E+02 -0.34538914067E+02 -0.59818208357E+01  0.39564524230E+02  0.10566000000E+00 0.  1.
         23    2    1    0    0    0  0.11489569565E+02  0.14682739043E+02 -0.18788793186E+02  0.98530927783E+02  0.94909071989E+02 0.  0.
         13    1    3    3    0    0  0.29836821351E+02  0.49221653110E+02 -0.12806972351E+02  0.58966403553E+02  0.10566000000E+00 0. -1.
         22    1    1    0    0    0 -0.11489569565E+02 -0.14682739043E+02  0.18788793186E+02  0.26469072217E+02  0.00000000000E+00 0. -1.
</event>
<event>
 5    1  0.1245610E-004  0.9118800E+02  0.7818608E-02  0.1130116E+00
         25   -1    0    0    0    0  0.00000000000E+00  0.00000000000E+00  0.99999998245E-14  0.12500000000E+03  0.12500000000E+03 0.  0.
        -13    1    3    3    0    0 -0.29674408128E+02 -0.53564383742E+02  0.12157131275E+02  0.62430126608E+02  0.10566000000E+00 0.  1.
         23    2    1    0    0    0 -0.15285659481E+02 -0.23302573715E+02  0.54312981917E+01  0.96607037358E+02  0.92340453430E+02 0.  0.
         13    1    3    3    0    0  0.14388748646E+02  0.30261810027E+02 -0.67258330833E+01  0.34176910750E+02  0.10566000000E+00 0. -1.
         22    1    1    0    0    0  0.15285659481E+02  0.23302573715E+02 -0.54312981917E+01  0.28392962642E+02  0.00000000000E+00 0.  1.
</event>
<event>
 5    1  0.1245610E-004  0.9118800E+02  0.7818608E-02  0.1130116E+00
         25   -1    0    0    0    0  0.00000000000E+00  0.00000000000E+00  0.99999998245E-14  0.12500000000E+03  0.12500000000E+03 0.  0.
        -13    1    3    3    0    0 -0.18178148698E+02  0.36187025746E+02 -0.32160980073E+02  0.51713496553E+02  0.10566000000E+00 0.  1.
         23    2    1    0    0    0  0.12222932925E+02  0.53815932443E+01 -0.26450349873E+02  0.95369228098E+02  0.90649363067E+02 0.  0.
         13    1    3    3    0    0  0.30401081622E+02 -0.30805432502E+02  0.57106301996E+01  0.43655731545E+02  0.10566000000E+00 0. -1.
         22    1    1    0    0    0 -0.12222932925E+02 -0.53815932443E+01  0.26450349873E+02  0.29630771902E+02  0.00000000000E+00 0.  1.
</event>
<event>
 5    1  0.1245610E-004  0.9118800E+02  0.7818608E-02  0.1130116E+00
         25   -1    0    0    0    0  0.00000000000E+00  0.00000000000E+00  0.99999998245E-14  0.12500000000E+03  0.12500000000E+03 0.  0.
        -13    1    3    3    0    0 -0.82590450873E+01 -0.18024265944E+02 -0.43845813982E+02  0.48120188656E+02  0.10566000000E+00 0.  1.
         23    2    1    0    0    0  0.25646951347E+01 -0.28586476328E+02  0.18356651454E+01  0.96240063343E+02  0.91842342281E+02 0.  0.
         13    1    3    3    0    0  0.10823740222E+02 -0.10562210384E+02  0.45681479127E+02  0.48119874687E+02  0.10566000000E+00 0. -1.
         22    1    1    0    0    0 -0.25646951347E+01  0.28586476328E+02 -0.18356651454E+01  0.28759936657E+02  0.00000000000E+00 0.  1.
</event>
<event>
 5    1  0.1245610E-004  0.9118800E+02  0.7818608E-02  0.1130116E+00
         25   -1    0    0    0    0  0.00000000000E+00  0.00000000000E+00  0.99999998245E-14  0.12500000000E+03  0.12500000000E+03 0.  0.
        -13    1    3    3    0    0  0.22995468841E+02  0.32082428295E+02  0.26871682113E+01  0.39563946082E+02  0.10566000000E+00 0.  1.
         23    2    1    0    0    0 -0.16313360207E+02 -0.14030669622E+00  0.25059649208E+02  0.95097969540E+02  0.90274538963E+02 0.  0.
         13    1    3    3    0    0 -0.39308829048E+02 -0.32222734991E+02  0.22372480997E+02  0.55534023458E+02  0.10566000000E+00 0. -1.
         22    1    1    0    0    0  0.16313360207E+02  0.14030669622E+00 -0.25059649208E+02  0.29902030460E+02  0.00000000000E+00 0. -1.
</event>
<event>
 5    1  0.1245610E-004  0.9118800E+02  0.7818608E-02  0.1130116E+00
         25   -1    0    0    0    0  0.00000000000E+00  0.00000000000E+00  0.99999998245E-14  0.12500000000E+03  0.12500000000E+03 0.  0.
        -13    1    3    3    0    0 -0.40311978357E+01  0.25391812047E+02 -0.38584889158E+02  0.46365930492E+02  0.10566000000E+00 0. -1.
         23    2    1    0    0    0  0.40920752676E+00 -0.20459057605E+02 -0.21013729545E+02  0.95668833670E+02  0.91061563887E+02 0.  0.
         13    1    3    3    0    0  0.44404053625E+01 -0.45850869652E+02  0.17571159614E+02  0.49302903178E+02  0.10566000000E+00 0.  1.
         22    1    1    0    0    0 -0.40920752676E+00  0.20459057605E+02  0.21013729545E+02  0.29331166330E+02  0.00000000000E+00 0.  1.
</event>
<event>
 5    1  0.1245610E-004  0.9118800E+02  0.7818608E-02  0.1130116E+00
         25   -1    0    0    0    0  0.00000000000E+00  0.00000000000E+00  0.99999998245E-14  0.12500000000E+03  0.12500000000E+03 0.  0.
        -13    1    3    3    0    0  0.46844658413E+02 -0.62150537350E+00  0.18018305108E+02  0.50194409786E+02  0.10566000000E+00 0.  1.
         23    2    1    0    0    0  0.21897878487E+02  0.16021517219E+01 -0.19720187556E+02  0.95487803036E+02  0.90812723553E+02 0.  0.
         13    1    3    3    0    0 -0.24946779926E+02  0.22236570954E+01 -0.37738492664E+02  0.45293393251E+02  0.10566000000E+00 0. -1.
         22    1    1    0    0    0 -0.21897878487E+02 -0.16021517219E+01  0.19720187556E+02  0.29512196964E+02  0.00000000000E+00 0. -1.
</event>
<event>
 5    1  0.1245610E-004  0.9118800E+02  0.7818608E-02  0.1130116E+00
         25   -1    0    0    0    0  0.00000000000E+00  0.00000000000E+00  0.99999998245E-14  0.12500000000E+03  0.12500000000E+03 0.  0.
        -13    1    3    3    0    0  0.48680862067E+02  0.12257069602E+02 -0.27254167061E+02  0.57121474710E+02  0.10566000000E+00 0.  1.
         23    2    1    0    0    0  0.22047002258E+02 -0.12791862757E+02 -0.91746615695E+01  0.97909845400E+02  0.94087519629E+02 0.  0.
         13    1    3    3    0    0 -0.26633859809E+02 -0.25048932360E+02  0.18079505491E+02  0.40788370690E+02  0.10566000000E+00 0. -1.
         22    1    1    0    0    0 -0.22047002258E+02  0.12791862757E+02  0.91746615695E+01  0.27090154600E+02  0.00000000000E+00 0.  1.
</event>
<event>
 5    1  0.1245610E-004  0.9118800E+02  0.7818608E-02  0.1130116E+00
         25   -1    0    0    0    0  0.00000000000E+00  0.00000000000E+00  0.99999998245E-14  0.12500000000E+03  0.12500000000E+03 0.  0.
        -13    1    3    3    0    0  0.43974227158E+02  0.32789184865E+02 -0.44343703147E+01  0.55032155168E+02  0.10566000000E+00 0. -1.
         23    2    1    0    0    0  0.22933921577E+02  0.54491049148E+01  0.17258851661E+02  0.95784841881E+02  0.91220669096E+02 0.  0.
         13    1    3    3    0    0 -0.21040305582E+02 -0.27340079950E+02  0.21693221975E+02  0.40752686713E+02  0.10566000000E+00 0.  1.
         22    1    1    0    0    0 -0.22933921577E+02 -0.54491049148E+01 -0.17258851661E+02  0.29215158119E+02  0.00000000000E+00 0. -1.
</event>
<event>
 5    1  0.1245610E-004  0.9118800E+02  0.7818608E-02  0.1130116E+00
         25   -1    0    0    0    0  0.00000000000E+00  0.00000000000E+00  0.99999998245E-14  0.12500000000E+03  0.12500000000E+03 0.  0.
        -13    1    3    3    0    0  0.29342031464E+02  0.15214571722E+02 -0.11601529335E+02  0.35029197109E+02  0.10566000000E+00 0.  1.
         23    2    1    0    0    0 -0.28778928876E+02 -0.56670414522E+00 -0.87660872408E+00  0.96202146891E+02  0.91790722422E+02 0.  0.
         13    1    3    3    0    0 -0.58120960340E+02 -0.15781275867E+02  0.10724920611E+02  0.61172949782E+02  0.10566000000E+00 0. -1.
         22    1    1    0    0    0  0.28778928876E+02  0.56670414522E+00  0.87660872408E+00  0.28797853109E+02  0.00000000000E+00 0. -1.
</event>
<event>
 5    1  0.1245610E-004  0.9118800E+02  0.7818608E-02  0.1130116E+00
         25   -1    0    0    0    0  0.00000000000E+00  0.00000000000E+00  0.99999998245E-14  0.12500000000E+03  0.12500000000E+03 0.  0.
        -13    1    3    3    0    0 -0.25773979971E+02 -0.34516738812E+02  0.35629859913E+02  0.55903500635E+02  0.10566000000E+00 0.  1.
         23    2    1    0    0    0 -0.63517474997E+01 -0.29518448822E+02  0.24073703782E+01  0.94710085023E+02  0.89735841534E+02 0.  0.
         13    1    3    3    0    0  0.19422232471E+02  0.49982899900E+01 -0.33222489535E+02  0.38806584389E+02  0.10566000000E+00 0. -1.
         22    1    1    0    0    0  0.63517474997E+01  0.29518448822E+02 -0.24073703782E+01  0.30289914977E+02  0.00000000000E+00 0.  1.
</event>
<event>
 5    1  0.1245610E-004  0.9118800E+02  0.7818608E-02  0.1130116E+00
         25   -1    0    0    0    0  0.00000000000E+00  0.00000000000E+00  0.99999998245E-14  0.12500000000E+03  0.12500000000E+03 0.  0.
        -13    1    3    3    0    0 -0.45925597892E+01 -0.52573586747E+02 -0.17819629737E+02  0.55701202831E+02  0.10566000000E+00 0. -1.
         23    2    1    0    0    0  0.47242060271E+01 -0.27971006653E+02 -0.29132266411E+02  0.84338171684E+02  0.73888719849E+02 0.  0.
         13    1    3    3    0    0  0.93167658163E+01  0.24602580094E+02 -0.11312636674E+02  0.28636968853E+02  0.10566000000E+00 0.  1.
         22    1    1    0    0    0 -0.47242060271E+01  0.27971006653E+02  0.29132266411E+02  0.40661828316E+02  0.00000000000E+00 0. -1.
</event>
<event>
 5    1  0.1245610E-004  0.9118800E+02  0.7818608E-02  0.1130116E+00
         25   -1    0    0    0    0  0.00000000000E+00  0.00000000000E+00  0.99999998245E-14  0.12500000000E+03  0.12500000000E+03 0.  0.
        -13    1    3    3    0    0 -0.26911262434E+02 -0.76832661927E+01 -0.48666260794E+02  0.56139689426E+02  0.10566000000E+00 0.  1.
         23    2    1    0    0    0 -0.15705045302E+02 -0.20308509293E+02 -0.11682330615E+02  0.96794311811E+02  0.92593617236E+02 0.  0.
         13    1    3    3    0    0  0.11206217132E+02 -0.12625243100E+02  0.36983930179E+02  0.40654622385E+02  0.10566000000E+00 0. -1.
         22    1    1    0    0    0  0.15705045302E+02  0.20308509293E+02  0.11682330615E+02  0.28205688189E+02  0.00000000000E+00 0.  1.
</event>
<event>
 5    1  0.1245610E-004  0.9118800E+02  0.7818608E-02  0.1130116E+00
         25   -1    0    0    0    0  0.00000000000E+00  0.00000000000E+00  0.99999998245E-14  0.12500000000E+03  0.12500000000E+03 0.  0.
        -13    1    3    3    0    0  0.41603075002E+02  0.37319829271E+02  0.12582199228E+02  0.57287942954E+02  0.10566000000E+00 0.  1.
         23    2    1    0    0    0  0.19081584266E+02  0.20526932724E+02 -0.11900162007E+02  0.94552082486E+02  0.89515476994E+02 0.  0.
         13    1    3    3    0    0 -0.22521490736E+02 -0.16792896547E+02 -0.24482361235E+02  0.37264139532E+02  0.10566000000E+00 0. -1.
         22    1    1    0    0    0 -0.19081584266E+02 -0.20526932724E+02  0.11900162007E+02  0.30447917514E+02  0.00000000000E+00 0.  1.
</event>
<event>
 5    1  0.1245610E-004  0.9118800E+02  0.7818608E-02  0.1130116E+00
         25   -1    0    0    0    0  0.00000000000E+00  0.00000000000E+00  0.99999998245E-14  0.12500000000E+03  0.12500000000E+03 0.  0.
        -13    1    3    3    0    0  0.21266676682E+02 -0.16845806893E+02  0.34517929697E+02  0.43903888000E+02  0.10566000000E+00 0. -1.
         23    2    1    0    0    0 -0.36515481969E+01 -0.27890113331E+02 -0.91854019557E+01  0.95410072069E+02  0.90705666952E+02 0.  0.
         13    1    3    3    0    0 -0.24918224878E+02 -0.11044306438E+02 -0.43703331652E+02  0.51506184069E+02  0.10566000000E+00 0.  1.
         22    1    1    0    0    0  0.36515481969E+01  0.27890113331E+02  0.91854019557E+01  0.29589927931E+02  0.00000000000E+00 0. -1.
</event>
<event>
 5    1  0.1245610E-004  0.9118800E+02  0.7818608E-02  0.1130116E+00
         25   -1    0    0    0    0  0.00000000000E+00  0.00000000000E+00  0.99999998245E-14  0.12500000000E+03  0.12500000000E+03 0.  0.
        -13    1    3    3    0    0  0.22997865790E+01 -0.32235255851E+02  0.60026121023E+01  0.32870096656E+02  0.10566000000E+00 0. -1.
         23    2    1    0    0    0 -0.35648182757E+02  0.56474312105E+01 -0.74365464542E+01  0.88149102639E+02  0.80076686118E+02 0.  0.
         13    1    3    3    0    0 -0.37947969336E+02  0.37882687061E+02 -0.13439158556E+02  0.55279005983E+02  0.10566000000E+00 0.  1.
         22    1    1    0    0    0  0.35648182757E+02 -0.56474312105E+01  0.74365464542E+01  0.36850897361E+02  0.00000000000E+00 0.  1.
</event>
<event>
 5    1  0.1245610E-004  0.9118800E+02  0.7818608E-02  0.1130116E+00
         25   -1    0    0    0    0  0.00000000000E+00  0.00000000000E+00  0.99999998245E-14  0.12500000000E+03  0.12500000000E+03 0.  0.
        -13    1    3    3    0    0  0.41405988287E+02  0.39854902178E+01  0.29630379585E+02  0.51071621833E+02  0.10566000000E+00 0. -1.
         23    2    1    0    0    0  0.34174512928E+01 -0.18720089880E+02  0.21880607012E+02  0.96002039698E+02  0.91517812061E+02 0.  0.
         13    1    3    3    0    0 -0.37988536994E+02 -0.22705580098E+02 -0.77497725731E+01  0.44930417865E+02  0.10566000000E+00 0.  1.
         22    1    1    0    0    0 -0.34174512928E+01  0.18720089880E+02 -0.21880607012E+02  0.28997960302E+02  0.00000000000E+00 0. -1.
</event>
<event>
 5    1  0.1245610E-004  0.9118800E+02  0.7818608E-02  0.1130116E+00
         25   -1    0    0    0    0  0.00000000000E+00  0.00000000000E+00  0.99999998245E-14  0.12500000000E+03  0.12500000000E+03 0.  0.
        -13    1    3    3    0    0  0.24630890542E+02  0.53194292804E+02 -0.76392064206E+01  0.59115837088E+02  0.10566000000E+00 0.  1.
         23    2    1    0    0    0  0.19962740208E+02  0.18028247269E+02 -0.13222637764E+02  0.95027231599E+02  0.90176537412E+02 0.  0.
         13    1    3    3    0    0 -0.46681503333E+01 -0.35166045535E+02 -0.55834313433E+01  0.35911394511E+02  0.10566000000E+00 0. -1.
         22    1    1    0    0    0 -0.19962740208E+02 -0.18028247269E+02  0.13222637764E+02  0.29972768401E+02  0.00000000000E+00 0.  1.
</event>
<event>
 5    1  0.1245610E-004  0.9118800E+02  0.7818608E-02  0.1130116E+00
         25   -1    0    0    0    0  0.00000000000E+00  0.00000000000E+00  0.99999998245E-14  0.12500000000E+03  0.12500000000E+03 0.  0.
        -13    1    3    3    0    0  0.50794966953E+02 -0.17391093496E+02 -0.28237199797E+02  0.60662421787E+02  0.10566000000E+00 0.  1.
         23    2    1    0    0    0  0.28445526586E+02 -0.18939565323E+02 -0.10462607475E+02  0.89260368321E+02  0.81792983075E+02 0.  0.
         13    1    3    3    0    0 -0.22349440367E+02 -0.15484718273E+01  0.17774592322E+02  0.28597946534E+02  0.10566000000E+00 0. -1.
         22    1    1    0    0    0 -0.28445526586E+02  0.18939565323E+02  0.10462607475E+02  0.35739631679E+02  0.00000000000E+00 0.  1.
</event>
<event>
 5    1  0.1245610E-004  0.9118800E+02  0.7818608E-02  0.1130116E+00
         25   -1    0    0    0    0  0.00000000000E+00  0.00000000000E+00  0.99999998245E-14  0.12500000000E+03  0.12500000000E+03 0.  0.
        -13    1    3    3    0    0 -0.29803846025E+02  0.68673507189E+00  0.30126280683E+02  0.42383307974E+02  0.10566000000E+00 0. -1.
         23    2    1    0    0    0 -0.27484360559E+01  0.29002506955E+02 -0.55303194122E+01  0.95347281015E+02  0.90619094311E+02 0.  0.
         13    1    3    3    0    0  0.27055409969E+02  0.28315771883E+02 -0.35656600096E+02  0.52963973041E+02  0.10566000000E+00 0.  1.
         22    1    1    0    0    0  0.27484360559E+01 -0.29002506955E+02  0.55303194122E+01  0.29652718985E+02  0.00000000000E+00 0.  1.
</event>
<event>
 5    1  0.1245610E-004  0.9118800E+02  0.7818608E-02  0.1130116E+00
         25   -1    0    0    0    0  0.00000000000E+00  0.00000000000E+00  0.99999998245E-14  0.12500000000E+03  0.12500000000E+03 0.  0.
        -13    1    3    3    0    0 -0.17448602611E+01 -0.38836155185E+01  0.35649405021E+02  0.35902900290E+02  0.10566000000E+00 0. -1.
         23    2    1    0    0    0  0.21290689210E+02 -0.67927324734E+01 -0.19246107471E+02  0.95506825972E+02  0.90838904072E+02 0.  0.
         13    1    3    3    0    0  0.23035549471E+02 -0.29091169549E+01 -0.54895512492E+02  0.59603925682E+02  0.10566000000E+00 0.  1.
         22    1    1    0    0    0 -0.21290689210E+02  0.67927324734E+01  0.19246107471E+02  0.29493174028E+02  0.00000000000E+00 0.  1.
</event>
<event>
 5    1  0.1245610E-004  0.9118800E+02  0.7818608E-02  0.1130116E+00
         25   -1    0    0    0    0  0.00000000000E+00  0.00000000000E+00  0.99999998245E-14  0.12500000000E+03  0.12500000000E+03 0.  0.
        -13    1    3    3    0    0  0.42028696032E+02 -0.10874691995E+02 -0.36269242143E+02  0.56569773783E+02  0.10566000000E+00 0. -1.
         23    2    1    0    0    0  0.20530843597E+02 -0.25365417736E+01  0.48855086248E+01  0.10374399432E+03  0.10154308731E+03 0.  0.
         13    1    3    3    0    0 -0.21497852435E+02  0.83381502219E+01  0.41154750768E+02  0.47174220536E+02  0.10566000000E+00 0.  1.
         22    1    1    0    0    0 -0.20530843597E+02  0.25365417736E+01 -0.48855086248E+01  0.21256005681E+02  0.00000000000E+00 0. -1.
</event>
<event>
 5    1  0.1245610E-004  0.9118800E+02  0.7818608E-02  0.1130116E+00
         25   -1    0    0    0    0  0.00000000000E+00  0.00000000000E+00  0.99999998245E-14  0.12500000000E+03  0.12500000000E+03 0.  0.
        -13    1    3    3    0    0  0.26668417475E+02  0.29108351964E+02 -0.11862529566E+00  0.39478169672E+02  0.10566000000E+00 0.  1.
         23    2    1    0    0    0  0.10180376139E+02 -0.24800120223E+02  0.92820149736E+01  0.96630265715E+02  0.92371891985E+02 0.  0.
         13    1    3    3    0    0 -0.16488041336E+02 -0.53908472187E+02  0.94006402692E+01  0.57152096043E+02  0.10566000000E+00 0. -1.
         22    1    1    0    0    0 -0.10180376139E+02  0.24800120223E+02 -0.92820149736E+01  0.28369734285E+02  0.00000000000E+00 0. -1.
</event>
<event>
 5    1  0.1245610E-004  0.9118800E+02  0.7818608E-02  0.1130116E+00
         25   -1    0    0    0    0  0.00000000000E+00  0.00000000000E+00  0.99999998245E-14  0.12500000000E+03  0.12500000000E+03 0.  0.
        -13    1    3    3    0    0 -0.11743805205E+02 -0.11921295149E+02 -0.31609162157E+02  0.35765689354E+02  0.10566000000E+00 0.  1.
         23    2    1    0    0    0 -0.95139336128E+01  0.21316403778E+01  0.27113026858E+02  0.96187241560E+02  0.91770422196E+02 0.  0.
         13    1    3    3    0    0  0.22298715918E+01  0.14052935527E+02  0.58722189015E+02  0.60421552206E+02  0.10566000000E+00 0. -1.
         22    1    1    0    0    0  0.95139336128E+01 -0.21316403778E+01 -0.27113026858E+02  0.28812758440E+02  0.00000000000E+00 0. -1.
</event>
<event>
 5    1  0.1245610E-004  0.9118800E+02  0.7818608E-02  0.1130116E+00
         25   -1    0    0    0    0  0.00000000000E+00  0.00000000000E+00  0.99999998245E-14  0.12500000000E+03  0.12500000000E+03 0.  0.
        -13    1    3    3    0    0  0.32719128749E+02 -0.30223367199E+02  0.24159249515E+02  0.50672219333E+02  0.10566000000E+00 0. -1.
         23    2    1    0    0    0 -0.95230812453E+01 -0.13564693517E+02  0.23696019417E+02  0.96083027081E+02  0.91628362258E+02 0.  0.
         13    1    3    3    0    0 -0.42242209995E+02  0.16658673682E+02 -0.46323009862E+00  0.45410807747E+02  0.10566000000E+00 0.  1.
         22    1    1    0    0    0  0.95230812453E+01  0.13564693517E+02 -0.23696019417E+02  0.28916972919E+02  0.00000000000E+00 0.  1.
</event>
<event>
 5    1  0.1245610E-004  0.9118800E+02  0.7818608E-02  0.1130116E+00
         25   -1    0    0    0    0  0.00000000000E+00  0.00000000000E+00  0.99999998245E-14  0.12500000000E+03  0.12500000000E+03 0.  0.
        -13    1    3    3    0    0  0.28623287128E+02 -0.72647284703E+01 -0.19067403256E+02  0.35151754959E+02  0.10566000000E+00 0. -1.
         23    2    1    0    0    0 -0.12982965420E+02  0.10072601993E+02  0.22950772668E+02  0.96773192387E+02  0.92565101937E+02 0.  0.
         13    1    3    3    0    0 -0.41606252548E+02  0.17337330463E+02  0.42018175924E+02  0.61621437428E+02  0.10566000000E+00 0.  1.
         22    1    1    0    0    0  0.12982965420E+02 -0.10072601993E+02 -0.22950772668E+02  0.28226807613E+02  0.00000000000E+00 0.  1.
</event>
<event>
 5    1  0.1245610E-004  0.9118800E+02  0.7818608E-02  0.1130116E+00
         25   -1    0    0    0    0  0.00000000000E+00  0.00000000000E+00  0.99999998245E-14  0.12500000000E+03  0.12500000000E+03 0.  0.
        -13    1    3    3    0    0  0.44745732407E+01  0.25166938827E+02 -0.55680537927E+02  0.61267692004E+02  0.10566000000E+00 0. -1.
         23    2    1    0    0    0  0.48132738091E+01  0.18658916112E+02 -0.21232120617E+02  0.96327265545E+02  0.91960950333E+02 0.  0.
         13    1    3    3    0    0  0.33870056845E+00 -0.65080227151E+01  0.34448417309E+02  0.35059573541E+02  0.10566000000E+00 0.  1.
         22    1    1    0    0    0 -0.48132738091E+01 -0.18658916112E+02  0.21232120617E+02  0.28672734455E+02  0.00000000000E+00 0. -1.
</event>
<event>
 5    1  0.1245610E-004  0.9118800E+02  0.7818608E-02  0.1130116E+00
         25   -1    0    0    0    0  0.00000000000E+00  0.00000000000E+00  0.99999998245E-14  0.12500000000E+03  0.12500000000E+03 0.  0.
        -13    1    3    3    0    0 -0.36532003414E+02 -0.41818166799E+02 -0.11617119542E+02  0.56730194591E+02  0.10566000000E+00 0.  1.
         23    2    1    0    0    0 -0.18439957138E+02 -0.17534146904E+02  0.13609276830E+02  0.96143618683E+02  0.91710984460E+02 0.  0.
         13    1    3    3    0    0  0.18092046276E+02  0.24284019895E+02  0.25226396371E+02  0.39413424092E+02  0.10566000000E+00 0. -1.
         22    1    1    0    0    0  0.18439957138E+02  0.17534146904E+02 -0.13609276830E+02  0.28856381317E+02  0.00000000000E+00 0.  1.
</event>
<event>
 5    1  0.1245610E-004  0.9118800E+02  0.7818608E-02  0.1130116E+00
         25   -1    0    0    0    0  0.00000000000E+00  0.00000000000E+00  0.99999998245E-14  0.12500000000E+03  0.12500000000E+03 0.  0.
        -13    1    3    3    0    0 -0.53809995670E+02 -0.10125209934E+02 -0.78107278509E+01  0.55308716707E+02  0.10566000000E+00 0.  1.
         23    2    1    0    0    0 -0.23224731071E+02 -0.30033026908E+01  0.17600035786E+02  0.95705474572E+02  0.91111846887E+02 0.  0.
         13    1    3    3    0    0  0.30585264599E+02  0.71219072428E+01  0.25410763637E+02  0.40396757865E+02  0.10566000000E+00 0. -1.
         22    1    1    0    0    0  0.23224731071E+02  0.30033026908E+01 -0.17600035786E+02  0.29294525428E+02  0.00000000000E+00 0.  1.
</event>
<event>
 5    1  0.1245610E-004  0.9118800E+02  0.7818608E-02  0.1130116E+00
         25   -1    0    0    0    0  0.00000000000E+00  0.00000000000E+00  0.99999998245E-14  0.12500000000E+03  0.12500000000E+03 0.  0.
        -13    1    3    3    0    0 -0.18928443574E+02 -0.26225080249E+02 -0.49092508799E+02  0.58788828823E+02  0.10566000000E+00 0. -1.
         23    2    1    0    0    0 -0.39295612860E+00 -0.45483779390E+00 -0.28205392457E+02  0.96788203609E+02  0.92585370887E+02 0.  0.
         13    1    3    3    0    0  0.18535487445E+02  0.25770242455E+02  0.20887116341E+02  0.37999374786E+02  0.10566000000E+00 0.  1.
         22    1    1    0    0    0  0.39295612860E+00  0.45483779390E+00  0.28205392457E+02  0.28211796391E+02  0.00000000000E+00 0. -1.
</event>
<event>
 5    1  0.1245610E-004  0.9118800E+02  0.7818608E-02  0.1130116E+00
         25   -1    0    0    0    0  0.00000000000E+00  0.00000000000E+00  0.99999998245E-14  0.12500000000E+03  0.12500000000E+03 0.  0.
        -13    1    3    3    0    0 -0.35147172016E+02  0.12554255654E+02  0.26988344909E+02  0.46057735081E+02  0.10566000000E+00 0.  1.
         23    2    1    0    0    0  0.66612621195E+01 -0.12977152540E+02  0.26154603808E+02  0.95052676223E+02  0.90211801089E+02 0.  0.
         13    1    3    3    0    0  0.41808434136E+02 -0.25531408194E+02 -0.83374110166E+00  0.48994941142E+02  0.10566000000E+00 0. -1.
         22    1    1    0    0    0 -0.66612621195E+01  0.12977152540E+02 -0.26154603808E+02  0.29947323777E+02  0.00000000000E+00 0.  1.
</event>
<event>
 5    1  0.1245610E-004  0.9118800E+02  0.7818608E-02  0.1130116E+00
         25   -1    0    0    0    0  0.00000000000E+00  0.00000000000E+00  0.99999998245E-14  0.12500000000E+03  0.12500000000E+03 0.  0.
        -13    1    3    3    0    0  0.25529260754E+02  0.26296731549E+02 -0.46559711353E+02  0.59254359587E+02  0.10566000000E+00 0.  1.
         23    2    1    0    0    0 -0.15995566083E+01  0.14097200237E+02 -0.25892788939E+02  0.95474991026E+02  0.90795086632E+02 0.  0.
         13    1    3    3    0    0 -0.27128817363E+02 -0.12199531312E+02  0.20666922414E+02  0.36220631438E+02  0.10566000000E+00 0. -1.
         22    1    1    0    0    0  0.15995566083E+01 -0.14097200237E+02  0.25892788939E+02  0.29525008974E+02  0.00000000000E+00 0.  1.
</event>
<event>
 5    1  0.1245610E-004  0.9118800E+02  0.7818608E-02  0.1130116E+00
         25   -1    0    0    0    0  0.00000000000E+00  0.00000000000E+00  0.99999998245E-14  0.12500000000E+03  0.12500000000E+03 0.  0.
        -13    1    3    3    0    0 -0.22405027901E+02 -0.64064441000E+01  0.45071659799E+02  0.50739466713E+02  0.10566000000E+00 0. -1.
         23    2    1    0    0    0  0.16241957362E+02 -0.94181287619E+01  0.22866573734E+02  0.95413135978E+02  0.90709889178E+02 0.  0.
         13    1    3    3    0    0  0.38646985263E+02 -0.30116846619E+01 -0.22205086066E+02  0.44673669265E+02  0.10566000000E+00 0.  1.
         22    1    1    0    0    0 -0.16241957362E+02  0.94181287619E+01 -0.22866573734E+02  0.29586864022E+02  0.00000000000E+00 0. -1.
</event>
<event>
 5    1  0.1245610E-004  0.9118800E+02  0.7818608E-02  0.1130116E+00
         25   -1    0    0    0    0  0.00000000000E+00  0.00000000000E+00  0.99999998245E-14  0.12500000000E+03  0.12500000000E+03 0.  0.
        -13    1    3    3    0    0  0.10658557567E+02 -0.14676831874E+02  0.27904340935E+02  0.33281791573E+02  0.10566000000E+00 0. -1.
         23    2    1    0    0    0 -0.18767453305E+02  0.10208076957E+02 -0.20660904233E+02  0.95279719004E+02  0.90525851286E+02 0.  0.
         13    1    3    3    0    0 -0.29426010872E+02  0.24884908832E+02 -0.48565245168E+02  0.61997927431E+02  0.10566000000E+00 0.  1.
         22    1    1    0    0    0  0.18767453305E+02 -0.10208076957E+02  0.20660904233E+02  0.29720280996E+02  0.00000000000E+00 0.  1.
</event>
<event>
 5    1  0.1245610E-004  0.9118800E+02  0.7818608E-02  0.1130116E+00
         25   -1    0    0    0    0  0.00000000000E+00  0.00000000000E+00  0.99999998245E-14  0.12500000000E+03  0.12500000000E+03 0.  0.
        -13    1    3    3    0    0  0.60353372441E+02  0.85321187605E+01 -0.37385770036E+01  0.61068115556E+02  0.10566000000E+00 0.  1.
         23    2    1    0    0    0  0.26408721845E+02  0.11874157546E+02  0.31761994738E+01  0.95870900288E+02  0.91338519104E+02 0.  0.
         13    1    3    3    0    0 -0.33944650596E+02  0.33420387852E+01  0.69147764774E+01  0.34802784732E+02  0.10566000000E+00 0. -1.
         22    1    1    0    0    0 -0.26408721845E+02 -0.11874157546E+02 -0.31761994738E+01  0.29129099712E+02  0.00000000000E+00 0.  1.
</event>
<event>
 5    1  0.1245610E-004  0.9118800E+02  0.7818608E-02  0.1130116E+00
         25   -1    0    0    0    0  0.00000000000E+00  0.00000000000E+00  0.99999998245E-14  0.12500000000E+03  0.12500000000E+03 0.  0.
        -13    1    3    3    0    0 -0.11502612352E+02 -0.46491571317E+02 -0.22918656627E+02  0.53094748141E+02  0.10566000000E+00 0.  1.
         23    2    1    0    0    0 -0.26424133172E+02 -0.10449302011E+02 -0.45105007360E+01  0.96229053834E+02  0.91827356809E+02 0.  0.
         13    1    3    3    0    0 -0.14921520820E+02  0.36042269306E+02  0.18408155891E+02  0.43134305694E+02  0.10566000000E+00 0. -1.
         22    1    1    0    0    0  0.26424133172E+02  0.10449302011E+02  0.45105007360E+01  0.28770946166E+02  0.00000000000E+00 0. -1.
</event>
<event>
 5    1  0.1245610E-004  0.9118800E+02  0.7818608E-02  0.1130116E+00
         25   -1    0    0    0    0  0.00000000000E+00  0.00000000000E+00  0.99999998245E-14  0.12500000000E+03  0.12500000000E+03 0.  0.
        -13    1    3    3    0    0  0.32416988942E+02  0.32017333480E+02 -0.73856664368E+01  0.46157665105E+02  0.10566000000E+00 0. -1.
         23    2    1    0    0    0 -0.13318935521E+02  0.19615602785E+02 -0.18612617463E+02  0.94857083007E+02  0.89940373314E+02 0.  0.
         13    1    3    3    0    0 -0.45735924462E+02 -0.12401730695E+02 -0.11226951026E+02  0.48699417902E+02  0.10566000000E+00 0.  1.
         22    1    1    0    0    0  0.13318935521E+02 -0.19615602785E+02  0.18612617463E+02  0.30142916993E+02  0.00000000000E+00 0. -1.
</event>
<event>
 5    1  0.1245610E-004  0.9118800E+02  0.7818608E-02  0.1130116E+00
         25   -1    0    0    0    0  0.00000000000E+00  0.00000000000E+00  0.99999998245E-14  0.12500000000E+03  0.12500000000E+03 0.  0.
        -13    1    3    3    0    0 -0.26797233158E+02 -0.51616518286E+02 -0.17280915160E+02  0.60671227593E+02  0.10566000000E+00 0.  1.
         23    2    1    0    0    0 -0.70628453948E+01 -0.28446571035E+02  0.39329219967E-01  0.95689716216E+02  0.91090224800E+02 0.  0.
         13    1    3    3    0    0  0.19734387764E+02  0.23169947251E+02  0.17320244380E+02  0.35018488623E+02  0.10566000000E+00 0. -1.
         22    1    1    0    0    0  0.70628453948E+01  0.28446571035E+02 -0.39329219967E-01  0.29310283784E+02  0.00000000000E+00 0.  1.
</event>
<event>
 5    1  0.1245610E-004  0.9118800E+02  0.7818608E-02  0.1130116E+00
         25   -1    0    0    0    0  0.00000000000E+00  0.00000000000E+00  0.99999998245E-14  0.12500000000E+03  0.12500000000E+03 0.  0.
        -13    1    3    3    0    0 -0.41489257075E+01 -0.37431993526E+02 -0.44340535104E+02  0.58176128620E+02  0.10566000000E+00 0.  1.
         23    2    1    0    0    0  0.12886715425E+02 -0.11800672037E+02 -0.24908210840E+02  0.94573987080E+02  0.89546059489E+02 0.  0.
         13    1    3    3    0    0  0.17035641132E+02  0.25631321490E+02  0.19432324264E+02  0.36397858460E+02  0.10566000000E+00 0. -1.
         22    1    1    0    0    0 -0.12886715425E+02  0.11800672037E+02  0.24908210840E+02  0.30426012920E+02  0.00000000000E+00 0.  1.
</event>
<event>
 5    1  0.1245610E-004  0.9118800E+02  0.7818608E-02  0.1130116E+00
         25   -1    0    0    0    0  0.00000000000E+00  0.00000000000E+00  0.99999998245E-14  0.12500000000E+03  0.12500000000E+03 0.  0.
        -13    1    3    3    0    0  0.33261891152E+02 -0.19519564224E+02  0.12814197223E+02  0.40639655572E+02  0.10566000000E+00 0.  1.
         23    2    1    0    0    0 -0.20626236462E+02 -0.10776838458E+02  0.18142414876E+02  0.95491880859E+02  0.90818336335E+02 0.  0.
         13    1    3    3    0    0 -0.53888127614E+02  0.87427257658E+01  0.53282176533E+01  0.54852225287E+02  0.10566000000E+00 0. -1.
         22    1    1    0    0    0  0.20626236462E+02  0.10776838458E+02 -0.18142414876E+02  0.29508119141E+02  0.00000000000E+00 0. -1.
</event>
<event>
 5    1  0.1245610E-004  0.9118800E+02  0.7818608E-02  0.1130116E+00
         25   -1    0    0    0    0  0.00000000000E+00  0.00000000000E+00  0.99999998245E-14  0.12500000000E+03  0.12500000000E+03 0.  0.
        -13    1    3    3    0    0 -0.20148127497E+02  0.57588061730E+00 -0.30412217523E+02  0.36485515191E+02  0.10566000000E+00 0. -1.
         23    2    1    0    0    0  0.23156897396E+02 -0.21631987679E+02 -0.11137378902E+01  0.93291559483E+02  0.87737619473E+02 0.  0.
         13    1    3    3    0    0  0.43305024893E+02 -0.22207868296E+02  0.29298479632E+02  0.56806044291E+02  0.10566000000E+00 0.  1.
         22    1    1    0    0    0 -0.23156897396E+02  0.21631987679E+02  0.11137378902E+01  0.31708440517E+02  0.00000000000E+00 0.  1.
</event>
<event>
 5    1  0.1245610E-004  0.9118800E+02  0.7818608E-02  0.1130116E+00
         25   -1    0    0    0    0  0.00000000000E+00  0.00000000000E+00  0.99999998245E-14  0.12500000000E+03  0.12500000000E+03 0.  0.
        -13    1    3    3    0    0 -0.20758871030E+02  0.89357934942E+01  0.46930590855E+02  0.52089064629E+02  0.10566000000E+00 0.  1.
         23    2    1    0    0    0 -0.26662544652E+02 -0.11259057075E+02  0.10399683718E+02  0.94245958396E+02  0.89086977718E+02 0.  0.
         13    1    3    3    0    0 -0.59036736227E+01 -0.20194850569E+02 -0.36530907138E+02  0.42156893767E+02  0.10566000000E+00 0. -1.
         22    1    1    0    0    0  0.26662544652E+02  0.11259057075E+02 -0.10399683718E+02  0.30754041604E+02  0.00000000000E+00 0.  1.
</event>
<event>
 5    1  0.1245610E-004  0.9118800E+02  0.7818608E-02  0.1130116E+00
         25   -1    0    0    0    0  0.00000000000E+00  0.00000000000E+00  0.99999998245E-14  0.12500000000E+03  0.12500000000E+03 0.  0.
        -13    1    3    3    0    0 -0.11644927939E+02  0.26101682885E+02 -0.19562735822E+02  0.34635444172E+02  0.10566000000E+00 0.  1.
         23    2    1    0    0    0  0.20314803580E+02 -0.20217474334E+02  0.47683309851E+01  0.95945318909E+02  0.91440306907E+02 0.  0.
         13    1    3    3    0    0  0.31959731518E+02 -0.46319157219E+02  0.24331066807E+02  0.61309874737E+02  0.10566000000E+00 0. -1.
         22    1    1    0    0    0 -0.20314803580E+02  0.20217474334E+02 -0.47683309851E+01  0.29054681091E+02  0.00000000000E+00 0. -1.
</event>
<event>
 5    1  0.1245610E-004  0.9118800E+02  0.7818608E-02  0.1130116E+00
         25   -1    0    0    0    0  0.00000000000E+00  0.00000000000E+00  0.99999998245E-14  0.12500000000E+03  0.12500000000E+03 0.  0.
        -13    1    3    3    0    0 -0.30460900607E+02  0.41698904460E+02 -0.15939469495E+02  0.54043898368E+02  0.10566000000E+00 0.  1.
         23    2    1    0    0    0  0.11114438154E+02  0.16778201403E+02 -0.87821665903E+01  0.10304173896E+03  0.10067489628E+03 0.  0.
         13    1    3    3    0    0  0.41575338761E+02 -0.24920703057E+02  0.71573029050E+01  0.48997840594E+02  0.10566000000E+00 0. -1.
         22    1    1    0    0    0 -0.11114438154E+02 -0.16778201403E+02  0.87821665903E+01  0.21958261038E+02  0.00000000000E+00 0.  1.
</event>
<event>
 5    1  0.1245610E-004  0.9118800E+02  0.7818608E-02  0.1130116E+00
         25   -1    0    0    0    0  0.00000000000E+00  0.00000000000E+00  0.99999998245E-14  0.12500000000E+03  0.12500000000E+03 0.  0.
        -13    1    3    3    0    0 -0.30926478367E+01 -0.48607179241E+02  0.89943204424E+01  0.49529095576E+02  0.10566000000E+00 0.  1.
         23    2    1    0    0    0  0.22320171776E+02 -0.10234863109E+02  0.15427205942E+02  0.96001014257E+02  0.91516411447E+02 0.  0.
         13    1    3    3    0    0  0.25412819613E+02  0.38372316131E+02  0.64328854992E+01  0.46471918680E+02  0.10566000000E+00 0. -1.
         22    1    1    0    0    0 -0.22320171776E+02  0.10234863109E+02 -0.15427205942E+02  0.28998985743E+02  0.00000000000E+00 0. -1.
</event>
<event>
 5    1  0.1245610E-004  0.9118800E+02  0.7818608E-02  0.1130116E+00
         25   -1    0    0    0    0  0.00000000000E+00  0.00000000000E+00  0.99999998245E-14  0.12500000000E+03  0.12500000000E+03 0.  0.
        -13    1    3    3    0    0  0.48061978563E+02 -0.12963475639E+02  0.26982472824E+01  0.49852755054E+02  0.10566000000E+00 0.  1.
         23    2    1    0    0    0  0.21234730328E+02  0.22024409600E+02 -0.27750858495E+01  0.94280470514E+02  0.89135389316E+02 0.  0.
         13    1    3    3    0    0 -0.26827248235E+02  0.34987885240E+02 -0.54733331319E+01  0.44427715460E+02  0.10566000000E+00 0. -1.
         22    1    1    0    0    0 -0.21234730328E+02 -0.22024409600E+02  0.27750858495E+01  0.30719529486E+02  0.00000000000E+00 0.  1.
</event>
<event>
 5    1  0.1245610E-004  0.9118800E+02  0.7818608E-02  0.1130116E+00
         25   -1    0    0    0    0  0.00000000000E+00  0.00000000000E+00  0.99999998245E-14  0.12500000000E+03  0.12500000000E+03 0.  0.
        -13    1    3    3    0    0  0.87187688412E+01  0.86729385318E+01  0.33039217691E+02  0.35253905636E+02  0.10566000000E+00 0.  1.
         23    2    1    0    0    0 -0.91636761995E+01  0.12553623242E+02 -0.24696329666E+02  0.95819953445E+02  0.91268769912E+02 0.  0.
         13    1    3    3    0    0 -0.17882445041E+02  0.38806847099E+01 -0.57735547358E+02  0.60566047809E+02  0.10566000000E+00 0. -1.
         22    1    1    0    0    0  0.91636761995E+01 -0.12553623242E+02  0.24696329666E+02  0.29180046555E+02  0.00000000000E+00 0. -1.
</event>
<event>
 5    1  0.1245610E-004  0.9118800E+02  0.7818608E-02  0.1130116E+00
         25   -1    0    0    0    0  0.00000000000E+00  0.00000000000E+00  0.99999998245E-14  0.12500000000E+03  0.12500000000E+03 0.  0.
        -13    1    3    3    0    0  0.20661120171E+02 -0.23269510747E+02 -0.45687423769E+02  0.55278421394E+02  0.10566000000E+00 0.  1.
         23    2    1    0    0    0 -0.81997951271E+01 -0.24062627048E+01 -0.29298067145E+02  0.94481096370E+02  0.89416296571E+02 0.  0.
         13    1    3    3    0    0 -0.28860915298E+02  0.20863248042E+02  0.16389356624E+02  0.39202674976E+02  0.10566000000E+00 0. -1.
         22    1    1    0    0    0  0.81997951271E+01  0.24062627048E+01  0.29298067145E+02  0.30518903630E+02  0.00000000000E+00 0.  1.
</event>
<event>
 5    1  0.1245610E-004  0.9118800E+02  0.7818608E-02  0.1130116E+00
         25   -1    0    0    0    0  0.00000000000E+00  0.00000000000E+00  0.99999998245E-14  0.12500000000E+03  0.12500000000E+03 0.  0.
        -13    1    3    3    0    0  0.41626761487E+02 -0.27677745015E+01  0.40158785289E+02  0.57906709866E+02  0.10566000000E+00 0.  1.
         23    2    1    0    0    0  0.21123481777E+02 -0.15806702894E+02  0.96533899303E+01  0.96906561693E+02  0.92745029102E+02 0.  0.
         13    1    3    3    0    0 -0.20503279710E+02 -0.13038928393E+02 -0.30505395358E+02  0.38999851827E+02  0.10566000000E+00 0. -1.
         22    1    1    0    0    0 -0.21123481777E+02  0.15806702894E+02 -0.96533899303E+01  0.28093438307E+02  0.00000000000E+00 0.  1.
</event>
<event>
 5    1  0.1245610E-004  0.9118800E+02  0.7818608E-02  0.1130116E+00
         25   -1    0    0    0    0  0.00000000000E+00  0.00000000000E+00  0.99999998245E-14  0.12500000000E+03  0.12500000000E+03 0.  0.
        -13    1    3    3    0    0 -0.20578877089E+02 -0.34177771399E+02  0.84741496769E+01  0.40785200954E+02  0.10566000000E+00 0.  1.
         23    2    1    0    0    0 -0.13870965499E+02  0.22444895876E+02 -0.10503476423E+01  0.98593935073E+02  0.94992019497E+02 0.  0.
         13    1    3    3    0    0  0.67079115900E+01  0.56622667275E+02 -0.95244973192E+01  0.57808734119E+02  0.10566000000E+00 0. -1.
         22    1    1    0    0    0  0.13870965499E+02 -0.22444895876E+02  0.10503476423E+01  0.26406064927E+02  0.00000000000E+00 0.  1.
</event>
<event>
 5    1  0.1245610E-004  0.9118800E+02  0.7818608E-02  0.1130116E+00
         25   -1    0    0    0    0  0.00000000000E+00  0.00000000000E+00  0.99999998245E-14  0.12500000000E+03  0.12500000000E+03 0.  0.
        -13    1    3    3    0    0 -0.21116365541E+02 -0.43702392136E+02  0.35620032759E+02  0.60204633293E+02  0.10566000000E+00 0. -1.
         23    2    1    0    0    0 -0.16666138992E+02 -0.30267368010E+02  0.10760568688E+02  0.88810725433E+02  0.81102905980E+02 0.  0.
         13    1    3    3    0    0  0.44502265493E+01  0.13435024126E+02 -0.24859464072E+02  0.28606092141E+02  0.10566000000E+00 0.  1.
         22    1    1    0    0    0  0.16666138992E+02  0.30267368010E+02 -0.10760568688E+02  0.36189274567E+02  0.00000000000E+00 0. -1.
</event>
<event>
 5    1  0.1245610E-004  0.9118800E+02  0.7818608E-02  0.1130116E+00
         25   -1    0    0    0    0  0.00000000000E+00  0.00000000000E+00  0.99999998245E-14  0.12500000000E+03  0.12500000000E+03 0.  0.
        -13    1    3    3    0    0 -0.10933356722E+02  0.75322227623E+01 -0.54584754616E+02  0.56176323033E+02  0.10566000000E+00 0. -1.
         23    2    1    0    0    0  0.26226895293E+01 -0.15031902896E+02 -0.24344932614E+02  0.96268269300E+02  0.91880723359E+02 0.  0.
         13    1    3    3    0    0  0.13556046251E+02 -0.22564125658E+02  0.30239822003E+02  0.40091946267E+02  0.10566000000E+00 0.  1.
         22    1    1    0    0    0 -0.26226895293E+01  0.15031902896E+02  0.24344932614E+02  0.28731730700E+02  0.00000000000E+00 0. -1.
</event>
<event>
 5    1  0.1245610E-004  0.9118800E+02  0.7818608E-02  0.1130116E+00
         25   -1    0    0    0    0  0.00000000000E+00  0.00000000000E+00  0.99999998245E-14  0.12500000000E+03  0.12500000000E+03 0.  0.
        -13    1    3    3    0    0  0.44344203947E+02  0.12248833155E+02  0.64670886777E+01  0.46457257101E+02  0.10566000000E+00 0. -1.
         23    2    1    0    0    0  0.63137437543E+01  0.30756132737E+02 -0.10302760141E+02  0.91955334354E+02  0.85812782197E+02 0.  0.
         13    1    3    3    0    0 -0.38030460193E+02  0.18507299582E+02 -0.16769848818E+02  0.45498077253E+02  0.10566000000E+00 0.  1.
         22    1    1    0    0    0 -0.63137437543E+01 -0.30756132737E+02  0.10302760141E+02  0.33044665646E+02  0.00000000000E+00 0. -1.
</event>
<event>
 5    1  0.1245610E-004  0.9118800E+02  0.7818608E-02  0.1130116E+00
         25   -1    0    0    0    0  0.00000000000E+00  0.00000000000E+00  0.99999998245E-14  0.12500000000E+03  0.12500000000E+03 0.  0.
        -13    1    3    3    0    0 -0.30746651895E+02 -0.69191805851E+01 -0.30636706825E+02  0.43952822797E+02  0.10566000000E+00 0. -1.
         23    2    1    0    0    0 -0.12755821334E+02  0.29417210399E+02 -0.23792792935E+02  0.85072813257E+02  0.75121257405E+02 0.  0.
         13    1    3    3    0    0  0.17990830561E+02  0.36336390984E+02  0.68439138892E+01  0.41119990460E+02  0.10566000000E+00 0.  1.
         22    1    1    0    0    0  0.12755821334E+02 -0.29417210399E+02  0.23792792935E+02  0.39927186743E+02  0.00000000000E+00 0.  1.
</event>
<event>
 5    1  0.1245610E-004  0.9118800E+02  0.7818608E-02  0.1130116E+00
         25   -1    0    0    0    0  0.00000000000E+00  0.00000000000E+00  0.99999998245E-14  0.12500000000E+03  0.12500000000E+03 0.  0.
        -13    1    3    3    0    0 -0.11664460912E+02  0.29504078978E+02  0.33647635593E+02  0.46246349799E+02  0.10566000000E+00 0. -1.
         23    2    1    0    0    0  0.24592489976E+02  0.44550790663E+00  0.14036136635E+02  0.96680357133E+02  0.92439652115E+02 0.  0.
         13    1    3    3    0    0  0.36256950887E+02 -0.29058571071E+02 -0.19611498958E+02  0.50434007334E+02  0.10566000000E+00 0.  1.
         22    1    1    0    0    0 -0.24592489976E+02 -0.44550790663E+00 -0.14036136635E+02  0.28319642867E+02  0.00000000000E+00 0. -1.
</event>
<event>
 5    1  0.1245610E-004  0.9118800E+02  0.7818608E-02  0.1130116E+00
         25   -1    0    0    0    0  0.00000000000E+00  0.00000000000E+00  0.99999998245E-14  0.12500000000E+03  0.12500000000E+03 0.  0.
        -13    1    3    3    0    0 -0.13340567424E+02 -0.24405828857E+02 -0.34797919881E+02  0.44547969802E+02  0.10566000000E+00 0. -1.
         23    2    1    0    0    0 -0.81385395770E+01  0.22907095725E+02 -0.16867799784E+02  0.95411260071E+02  0.90707304104E+02 0.  0.
         13    1    3    3    0    0  0.52020278469E+01  0.47312924582E+02  0.17930120097E+02  0.50863290269E+02  0.10566000000E+00 0.  1.
         22    1    1    0    0    0  0.81385395770E+01 -0.22907095725E+02  0.16867799784E+02  0.29588739929E+02  0.00000000000E+00 0.  1.
</event>
<event>
 5    1  0.1245610E-004  0.9118800E+02  0.7818608E-02  0.1130116E+00
         25   -1    0    0    0    0  0.00000000000E+00  0.00000000000E+00  0.99999998245E-14  0.12500000000E+03  0.12500000000E+03 0.  0.
        -13    1    3    3    0    0  0.53037694442E+01  0.28625482210E+02  0.18426015257E+02  0.34453989673E+02  0.10566000000E+00 0. -1.
         23    2    1    0    0    0  0.63001085792E+01 -0.22892235933E+02 -0.15950803457E+02  0.96396259597E+02  0.92054684287E+02 0.  0.
         13    1    3    3    0    0  0.99633913495E+00 -0.51517718143E+02 -0.34376818715E+02  0.61942269924E+02  0.10566000000E+00 0.  1.
         22    1    1    0    0    0 -0.63001085792E+01  0.22892235933E+02  0.15950803457E+02  0.28603740403E+02  0.00000000000E+00 0.  1.
</event>
<event>
 5    1  0.1245610E-004  0.9118800E+02  0.7818608E-02  0.1130116E+00
         25   -1    0    0    0    0  0.00000000000E+00  0.00000000000E+00  0.99999998245E-14  0.12500000000E+03  0.12500000000E+03 0.  0.
        -13    1    3    3    0    0  0.44290142271E+02 -0.38972436199E+02 -0.19057052141E+02  0.61997176436E+02  0.10566000000E+00 0.  1.
         23    2    1    0    0    0  0.23041036107E+02 -0.13227635623E+02 -0.10271820575E+02  0.96515443009E+02  0.92216380064E+02 0.  0.
         13    1    3    3    0    0 -0.21249106164E+02  0.25744800576E+02  0.87852315657E+01  0.34518266572E+02  0.10566000000E+00 0. -1.
         22    1    1    0    0    0 -0.23041036107E+02  0.13227635623E+02  0.10271820575E+02  0.28484556991E+02  0.00000000000E+00 0.  1.
</event>
<event>
 5    1  0.1245610E-004  0.9118800E+02  0.7818608E-02  0.1130116E+00
         25   -1    0    0    0    0  0.00000000000E+00  0.00000000000E+00  0.99999998245E-14  0.12500000000E+03  0.12500000000E+03 0.  0.
        -13    1    3    3    0    0  0.14209606514E+02  0.23830253723E+02 -0.50860924937E+02  0.57936506275E+02  0.10566000000E+00 0.  1.
         23    2    1    0    0    0  0.15592953869E+02 -0.31815691938E+01 -0.25044021157E+02  0.95327359595E+02  0.90591610532E+02 0.  0.
         13    1    3    3    0    0  0.13833473545E+01 -0.27011822917E+02  0.25816903781E+02  0.37390853321E+02  0.10566000000E+00 0. -1.
         22    1    1    0    0    0 -0.15592953869E+02  0.31815691938E+01  0.25044021157E+02  0.29672640405E+02  0.00000000000E+00 0.  1.
</event>
<event>
 5    1  0.1245610E-004  0.9118800E+02  0.7818608E-02  0.1130116E+00
         25   -1    0    0    0    0  0.00000000000E+00  0.00000000000E+00  0.99999998245E-14  0.12500000000E+03  0.12500000000E+03 0.  0.
        -13    1    3    3    0    0  0.39369615260E+02 -0.96659788924E+01 -0.84591793851E+01  0.41412155626E+02  0.10566000000E+00 0. -1.
         23    2    1    0    0    0  0.11733023201E+01  0.28168801570E+02  0.37912502712E+01  0.96553003694E+02  0.92267279810E+02 0.  0.
         13    1    3    3    0    0 -0.38196312940E+02  0.37834780462E+02  0.12250429656E+02  0.55140848068E+02  0.10566000000E+00 0.  1.
         22    1    1    0    0    0 -0.11733023201E+01 -0.28168801570E+02 -0.37912502712E+01  0.28446996306E+02  0.00000000000E+00 0.  1.
</event>
<event>
 5    1  0.1245610E-004  0.9118800E+02  0.7818608E-02  0.1130116E+00
         25   -1    0    0    0    0  0.00000000000E+00  0.00000000000E+00  0.99999998245E-14  0.12500000000E+03  0.12500000000E+03 0.  0.
        -13    1    3    3    0    0  0.15393854345E+02 -0.22414901688E+02 -0.50774778343E+02  0.57597637531E+02  0.10566000000E+00 0. -1.
         23    2    1    0    0    0  0.28551720357E+01 -0.25742490666E+02 -0.16387430697E+02  0.94350763176E+02  0.89233910561E+02 0.  0.
         13    1    3    3    0    0 -0.12538682310E+02 -0.33275889788E+01  0.34387347646E+02  0.36753125645E+02  0.10566000000E+00 0.  1.
         22    1    1    0    0    0 -0.28551720357E+01  0.25742490666E+02  0.16387430697E+02  0.30649236824E+02  0.00000000000E+00 0.  1.
</event>
<event>
 5    1  0.1245610E-004  0.9118800E+02  0.7818608E-02  0.1130116E+00
         25   -1    0    0    0    0  0.00000000000E+00  0.00000000000E+00  0.99999998245E-14  0.12500000000E+03  0.12500000000E+03 0.  0.
        -13    1    3    3    0    0 -0.39763897191E+02  0.69697516714E+01  0.40934791780E+01  0.40577243548E+02  0.10566000000E+00 0. -1.
         23    2    1    0    0    0  0.73400772437E+01 -0.94471973820E+01  0.26999988791E+02  0.95468226145E+02  0.90785772763E+02 0.  0.
         13    1    3    3    0    0  0.47103974434E+02 -0.16416949053E+02  0.22906509613E+02  0.54890982597E+02  0.10566000000E+00 0.  1.
         22    1    1    0    0    0 -0.73400772437E+01  0.94471973820E+01 -0.26999988791E+02  0.29531773855E+02  0.00000000000E+00 0.  1.
</event>
<event>
 5    1  0.1245610E-004  0.9118800E+02  0.7818608E-02  0.1130116E+00
         25   -1    0    0    0    0  0.00000000000E+00  0.00000000000E+00  0.99999998245E-14  0.12500000000E+03  0.12500000000E+03 0.  0.
        -13    1    3    3    0    0 -0.15345049406E+02  0.24985684462E+02  0.18413861278E+02  0.34624217255E+02  0.10566000000E+00 0. -1.
         23    2    1    0    0    0  0.21260797741E+02 -0.13652293897E+02 -0.13161991578E+02  0.96510621777E+02  0.92209844617E+02 0.  0.
         13    1    3    3    0    0  0.36605847147E+02 -0.38637978359E+02 -0.31575852857E+02  0.61886404522E+02  0.10566000000E+00 0.  1.
         22    1    1    0    0    0 -0.21260797741E+02  0.13652293897E+02  0.13161991578E+02  0.28489378223E+02  0.00000000000E+00 0.  1.
</event>
<event>
 5    1  0.1245610E-004  0.9118800E+02  0.7818608E-02  0.1130116E+00
         25   -1    0    0    0    0  0.00000000000E+00  0.00000000000E+00  0.99999998245E-14  0.12500000000E+03  0.12500000000E+03 0.  0.
        -13    1    3    3    0    0 -0.89900657162E+01 -0.15382928864E+02 -0.21894548583E+02  0.28228322722E+02  0.10566000000E+00 0.  1.
         23    2    1    0    0    0  0.26122982755E+02  0.54929674660E+01  0.23598438169E+02  0.89370388668E+02  0.81960949037E+02 0.  0.
         13    1    3    3    0    0  0.35113048471E+02  0.20875896330E+02  0.45492986752E+02  0.61142065946E+02  0.10566000000E+00 0. -1.
         22    1    1    0    0    0 -0.26122982755E+02 -0.54929674660E+01 -0.23598438169E+02  0.35629611332E+02  0.00000000000E+00 0. -1.
</event>
<event>
 5    1  0.1245610E-004  0.9118800E+02  0.7818608E-02  0.1130116E+00
         25   -1    0    0    0    0  0.00000000000E+00  0.00000000000E+00  0.99999998245E-14  0.12500000000E+03  0.12500000000E+03 0.  0.
        -13    1    3    3    0    0  0.98322821575E+01 -0.28795045492E+02  0.20681898140E+02  0.36791038202E+02  0.10566000000E+00 0. -1.
         23    2    1    0    0    0 -0.30454694050E+02  0.22190873659E+01 -0.54914479732E+01  0.93974708071E+02  0.88705563624E+02 0.  0.
         13    1    3    3    0    0 -0.40286976208E+02  0.31014132858E+02 -0.26173346113E+02  0.57183669869E+02  0.10566000000E+00 0.  1.
         22    1    1    0    0    0  0.30454694050E+02 -0.22190873659E+01  0.54914479732E+01  0.31025291929E+02  0.00000000000E+00 0. -1.
</event>
<event>
 5    1  0.1245610E-004  0.9118800E+02  0.7818608E-02  0.1130116E+00
         25   -1    0    0    0    0  0.00000000000E+00  0.00000000000E+00  0.99999998245E-14  0.12500000000E+03  0.12500000000E+03 0.  0.
        -13    1    3    3    0    0 -0.87842049541E+01  0.36621946776E+02  0.48643640961E+02  0.61518649305E+02  0.10566000000E+00 0.  1.
         23    2    1    0    0    0 -0.12211169032E+02  0.17579449293E+02  0.24232044011E+02  0.92668256411E+02  0.86845058021E+02 0.  0.
         13    1    3    3    0    0 -0.34269640778E+01 -0.19042497483E+02 -0.24411596950E+02  0.31149607106E+02  0.10566000000E+00 0. -1.
         22    1    1    0    0    0  0.12211169032E+02 -0.17579449293E+02 -0.24232044011E+02  0.32331743589E+02  0.00000000000E+00 0.  1.
</event>
<event>
 5    1  0.1245610E-004  0.9118800E+02  0.7818608E-02  0.1130116E+00
         25   -1    0    0    0    0  0.00000000000E+00  0.00000000000E+00  0.99999998245E-14  0.12500000000E+03  0.12500000000E+03 0.  0.
        -13    1    3    3    0    0  0.12167207956E+02 -0.34471147648E+02  0.29708312526E+02  0.47105158601E+02  0.10566000000E+00 0.  1.
         23    2    1    0    0    0 -0.25111726913E+02 -0.17889185986E+02  0.88806141422E+01  0.92914378433E+02  0.87198592926E+02 0.  0.
         13    1    3    3    0    0 -0.37278934870E+02  0.16581961663E+02 -0.20827698384E+02  0.45809219832E+02  0.10566000000E+00 0. -1.
         22    1    1    0    0    0  0.25111726913E+02  0.17889185986E+02 -0.88806141422E+01  0.32085621567E+02  0.00000000000E+00 0. -1.
</event>
<event>
 5    1  0.1245610E-004  0.9118800E+02  0.7818608E-02  0.1130116E+00
         25   -1    0    0    0    0  0.00000000000E+00  0.00000000000E+00  0.99999998245E-14  0.12500000000E+03  0.12500000000E+03 0.  0.
        -13    1    3    3    0    0 -0.26038074494E+02 -0.26889525325E+02 -0.25896254720E+02  0.45515437690E+02  0.10566000000E+00 0. -1.
         23    2    1    0    0    0 -0.25187196641E+02 -0.61838907734E+01  0.17573118201E+02  0.93671899786E+02  0.88277828170E+02 0.  0.
         13    1    3    3    0    0  0.85087785368E+00  0.20705634552E+02  0.43469372922E+02  0.48156462095E+02  0.10566000000E+00 0.  1.
         22    1    1    0    0    0  0.25187196641E+02  0.61838907734E+01 -0.17573118201E+02  0.31328100214E+02  0.00000000000E+00 0. -1.
</event>
<event>
 5    1  0.1245610E-004  0.9118800E+02  0.7818608E-02  0.1130116E+00
         25   -1    0    0    0    0  0.00000000000E+00  0.00000000000E+00  0.99999998245E-14  0.12500000000E+03  0.12500000000E+03 0.  0.
        -13    1    3    3    0    0  0.30097578084E+02 -0.37077656306E+02 -0.20585346541E+02  0.52003696599E+02  0.10566000000E+00 0. -1.
         23    2    1    0    0    0  0.28892925434E+02 -0.19819971372E+01  0.52074239158E+01  0.95574726567E+02  0.90932291523E+02 0.  0.
         13    1    3    3    0    0 -0.12046526502E+01  0.35095659169E+02  0.25792770457E+02  0.43571029967E+02  0.10566000000E+00 0.  1.
         22    1    1    0    0    0 -0.28892925434E+02  0.19819971372E+01 -0.52074239158E+01  0.29425273433E+02  0.00000000000E+00 0. -1.
</event>
<event>
 5    1  0.1245610E-004  0.9118800E+02  0.7818608E-02  0.1130116E+00
         25   -1    0    0    0    0  0.00000000000E+00  0.00000000000E+00  0.99999998245E-14  0.12500000000E+03  0.12500000000E+03 0.  0.
        -13    1    3    3    0    0  0.66823319713E+01  0.40362832181E+02  0.32709522063E+02  0.52380681361E+02  0.10566000000E+00 0. -1.
         23    2    1    0    0    0  0.12785198664E+02 -0.22226244345E+01  0.26026997326E+02  0.95917256765E+02  0.91401937569E+02 0.  0.
         13    1    3    3    0    0  0.61028666926E+01 -0.42585456616E+02 -0.66825247365E+01  0.43536575404E+02  0.10566000000E+00 0.  1.
         22    1    1    0    0    0 -0.12785198664E+02  0.22226244345E+01 -0.26026997326E+02  0.29082743235E+02  0.00000000000E+00 0. -1.
</event>
<event>
 5    1  0.1245610E-004  0.9118800E+02  0.7818608E-02  0.1130116E+00
         25   -1    0    0    0    0  0.00000000000E+00  0.00000000000E+00  0.99999998245E-14  0.12500000000E+03  0.12500000000E+03 0.  0.
        -13    1    3    3    0    0  0.37816215871E+02  0.92150194616E+01 -0.39587951611E+02  0.55517563376E+02  0.10566000000E+00 0. -1.
         23    2    1    0    0    0  0.42353659846E+01  0.20788934618E+02 -0.18670138028E+02  0.96738857391E+02  0.92518724309E+02 0.  0.
         13    1    3    3    0    0 -0.33580849886E+02  0.11573915157E+02  0.20917813583E+02  0.41221294015E+02  0.10566000000E+00 0.  1.
         22    1    1    0    0    0 -0.42353659846E+01 -0.20788934618E+02  0.18670138028E+02  0.28261142609E+02  0.00000000000E+00 0. -1.
</event>
<event>
 5    1  0.1245610E-004  0.9118800E+02  0.7818608E-02  0.1130116E+00
         25   -1    0    0    0    0  0.00000000000E+00  0.00000000000E+00  0.99999998245E-14  0.12500000000E+03  0.12500000000E+03 0.  0.
        -13    1    3    3    0    0 -0.34458162015E+02 -0.21646939432E+02  0.14462336162E+02  0.43187095845E+02  0.10566000000E+00 0.  1.
         23    2    1    0    0    0  0.14729401948E+02 -0.20033959428E+02 -0.10064682544E+02  0.98174403141E+02  0.94438343830E+02 0.  0.
         13    1    3    3    0    0  0.49187563963E+02  0.16129800035E+01 -0.24527018707E+02  0.54987307297E+02  0.10566000000E+00 0. -1.
         22    1    1    0    0    0 -0.14729401948E+02  0.20033959428E+02  0.10064682544E+02  0.26825596859E+02  0.00000000000E+00 0. -1.
</event>
<event>
 5    1  0.1245610E-004  0.9118800E+02  0.7818608E-02  0.1130116E+00
         25   -1    0    0    0    0  0.00000000000E+00  0.00000000000E+00  0.99999998245E-14  0.12500000000E+03  0.12500000000E+03 0.  0.
        -13    1    3    3    0    0  0.36310392627E+02 -0.91005557726E+01  0.28570045550E+02  0.47090587115E+02  0.10566000000E+00 0.  1.
         23    2    1    0    0    0  0.18358895295E+02  0.18245054364E+02 -0.96308027399E+01  0.97383276686E+02  0.93385326318E+02 0.  0.
         13    1    3    3    0    0 -0.17951497332E+02  0.27345610136E+02 -0.38200848290E+02  0.50292689571E+02  0.10566000000E+00 0. -1.
         22    1    1    0    0    0 -0.18358895295E+02 -0.18245054364E+02  0.96308027399E+01  0.27616723314E+02  0.00000000000E+00 0. -1.
</event>
<event>
 5    1  0.1245610E-004  0.9118800E+02  0.7818608E-02  0.1130116E+00
         25   -1    0    0    0    0  0.00000000000E+00  0.00000000000E+00  0.99999998245E-14  0.12500000000E+03  0.12500000000E+03 0.  0.
        -13    1    3    3    0    0  0.20093859082E+02 -0.48400331040E+02  0.13454304802E+02  0.54105311193E+02  0.10566000000E+00 0. -1.
         23    2    1    0    0    0  0.22905610512E+02 -0.35376419450E+01  0.11569508621E+02  0.99095648373E+02  0.95649945600E+02 0.  0.
         13    1    3    3    0    0  0.28117514298E+01  0.44862689095E+02 -0.18847961811E+01  0.44990337180E+02  0.10566000000E+00 0.  1.
         22    1    1    0    0    0 -0.22905610512E+02  0.35376419450E+01 -0.11569508621E+02  0.25904351627E+02  0.00000000000E+00 0. -1.
</event>
<event>
 5    1  0.1245610E-004  0.9118800E+02  0.7818608E-02  0.1130116E+00
         25   -1    0    0    0    0  0.00000000000E+00  0.00000000000E+00  0.99999998245E-14  0.12500000000E+03  0.12500000000E+03 0.  0.
        -13    1    3    3    0    0  0.16698237128E+02  0.25689973253E+02  0.18474453714E+02  0.35778798931E+02  0.10566000000E+00 0.  1.
         23    2    1    0    0    0 -0.14727162800E+02 -0.22567473683E+02 -0.43094864971E+01  0.97709857706E+02  0.93821449714E+02 0.  0.
         13    1    3    3    0    0 -0.31425399927E+02 -0.48257446935E+02 -0.22783940212E+02  0.61931058775E+02  0.10566000000E+00 0. -1.
         22    1    1    0    0    0  0.14727162800E+02  0.22567473683E+02  0.43094864971E+01  0.27290142294E+02  0.00000000000E+00 0. -1.
</event>
<event>
 5    1  0.1245610E-004  0.9118800E+02  0.7818608E-02  0.1130116E+00
         25   -1    0    0    0    0  0.00000000000E+00  0.00000000000E+00  0.99999998245E-14  0.12500000000E+03  0.12500000000E+03 0.  0.
        -13    1    3    3    0    0  0.23453936563E+02 -0.37248650297E+02 -0.33101591125E+02  0.55075181237E+02  0.10566000000E+00 0.  1.
         23    2    1    0    0    0 -0.24275754347E+01 -0.28615214976E+02 -0.23492761671E+01  0.96186066754E+02  0.91768821985E+02 0.  0.
         13    1    3    3    0    0 -0.25881511998E+02  0.86334353211E+01  0.30752314958E+02  0.41110885517E+02  0.10566000000E+00 0. -1.
         22    1    1    0    0    0  0.24275754347E+01  0.28615214976E+02  0.23492761671E+01  0.28813933246E+02  0.00000000000E+00 0. -1.
</event>
<event>
 5    1  0.1245610E-004  0.9118800E+02  0.7818608E-02  0.1130116E+00
         25   -1    0    0    0    0  0.00000000000E+00  0.00000000000E+00  0.99999998245E-14  0.12500000000E+03  0.12500000000E+03 0.  0.
        -13    1    3    3    0    0 -0.30540224560E+02 -0.10702091382E+01  0.46660330162E+02  0.55776771497E+02  0.10566000000E+00 0.  1.
         23    2    1    0    0    0 -0.16208843611E+02 -0.19600594123E+02  0.14007923290E+02  0.95963267813E+02  0.91464839984E+02 0.  0.
         13    1    3    3    0    0  0.14331380949E+02 -0.18530384985E+02 -0.32652406871E+02  0.40186496316E+02  0.10566000000E+00 0. -1.
         22    1    1    0    0    0  0.16208843611E+02  0.19600594123E+02 -0.14007923290E+02  0.29036732187E+02  0.00000000000E+00 0.  1.
</event>
<event>
 5    1  0.1245610E-004  0.9118800E+02  0.7818608E-02  0.1130116E+00
         25   -1    0    0    0    0  0.00000000000E+00  0.00000000000E+00  0.99999998245E-14  0.12500000000E+03  0.12500000000E+03 0.  0.
        -13    1    3    3    0    0  0.20148158495E+02 -0.86082385835E+01  0.33815504641E+02  0.40293294484E+02  0.10566000000E+00 0.  1.
         23    2    1    0    0    0  0.19697245456E+02  0.38881289513E+01 -0.20663412861E+02  0.96188966413E+02  0.91772771579E+02 0.  0.
         13    1    3    3    0    0 -0.45091303923E+00  0.12496367535E+02 -0.54478917502E+02  0.55895671929E+02  0.10566000000E+00 0. -1.
         22    1    1    0    0    0 -0.19697245456E+02 -0.38881289513E+01  0.20663412861E+02  0.28811033587E+02  0.00000000000E+00 0. -1.
</event>
<event>
 5    1  0.1245610E-004  0.9118800E+02  0.7818608E-02  0.1130116E+00
         25   -1    0    0    0    0  0.00000000000E+00  0.00000000000E+00  0.99999998245E-14  0.12500000000E+03  0.12500000000E+03 0.  0.
        -13    1    3    3    0    0 -0.42204209104E+02  0.25223474447E+02  0.24908983112E+02  0.55117034871E+02  0.10566000000E+00 0. -1.
         23    2    1    0    0    0 -0.38916411302E+02  0.57977533104E+01  0.16218059892E+01  0.85620674628E+02  0.76027420428E+02 0.  0.
         13    1    3    3    0    0  0.32877978013E+01 -0.19425721137E+02 -0.23287177122E+02  0.30503639757E+02  0.10566000000E+00 0.  1.
         22    1    1    0    0    0  0.38916411302E+02 -0.57977533104E+01 -0.16218059892E+01  0.39379325372E+02  0.00000000000E+00 0. -1.
</event>
<event>
 5    1  0.1245610E-004  0.9118800E+02  0.7818608E-02  0.1130116E+00
         25   -1    0    0    0    0  0.00000000000E+00  0.00000000000E+00  0.99999998245E-14  0.12500000000E+03  0.12500000000E+03 0.  0.
        -13    1    3    3    0    0  0.22220135087E+02 -0.24177593089E+02 -0.15692621177E+02  0.36394504177E+02  0.10566000000E+00 0. -1.
         23    2    1    0    0    0 -0.41099995135E+01  0.30758205117E+01  0.29319580872E+02  0.95234405931E+02  0.90463260402E+02 0.  0.
         13    1    3    3    0    0 -0.26330134601E+02  0.27253413600E+02  0.45012202049E+02  0.58839901753E+02  0.10566000000E+00 0.  1.
         22    1    1    0    0    0  0.41099995135E+01 -0.30758205117E+01 -0.29319580872E+02  0.29765594069E+02  0.00000000000E+00 0.  1.
</event>
<event>
 5    1  0.1245610E-004  0.9118800E+02  0.7818608E-02  0.1130116E+00
         25   -1    0    0    0    0  0.00000000000E+00  0.00000000000E+00  0.99999998245E-14  0.12500000000E+03  0.12500000000E+03 0.  0.
        -13    1    3    3    0    0  0.12468374181E+02 -0.47827955255E+01 -0.30765856825E+02  0.33539299306E+02  0.10566000000E+00 0.  1.
         23    2    1    0    0    0 -0.13251850450E+02 -0.72368494159E+01  0.25449775988E+02  0.95408199993E+02  0.90703087038E+02 0.  0.
         13    1    3    3    0    0 -0.25720224631E+02 -0.24540538904E+01  0.56215632813E+02  0.61868900687E+02  0.10566000000E+00 0. -1.
         22    1    1    0    0    0  0.13251850450E+02  0.72368494159E+01 -0.25449775988E+02  0.29591800007E+02  0.00000000000E+00 0. -1.
</event>
<event>
 5    1  0.1245610E-004  0.9118800E+02  0.7818608E-02  0.1130116E+00
         25   -1    0    0    0    0  0.00000000000E+00  0.00000000000E+00  0.99999998245E-14  0.12500000000E+03  0.12500000000E+03 0.  0.
        -13    1    3    3    0    0  0.32795317712E+02  0.78892426160E+01 -0.31669626402E+01  0.33879401253E+02  0.10566000000E+00 0.  1.
         23    2    1    0    0    0 -0.16755142784E+02  0.30789829234E+02 -0.90918584786E+01  0.88786600759E+02  0.81065715255E+02 0.  0.
         13    1    3    3    0    0 -0.49550460496E+02  0.22900586618E+02 -0.59248958384E+01  0.54907199506E+02  0.10566000000E+00 0. -1.
         22    1    1    0    0    0  0.16755142784E+02 -0.30789829234E+02  0.90918584786E+01  0.36213399241E+02  0.00000000000E+00 0. -1.
</event>
<event>
 5    1  0.1245610E-004  0.9118800E+02  0.7818608E-02  0.1130116E+00
         25   -1    0    0    0    0  0.00000000000E+00  0.00000000000E+00  0.99999998245E-14  0.12500000000E+03  0.12500000000E+03 0.  0.
        -13    1    3    3    0    0 -0.15657364213E+00 -0.19850511910E+02  0.32255440008E+02  0.37874686963E+02  0.10566000000E+00 0. -1.
         23    2    1    0    0    0 -0.27831270074E+02  0.73905185421E+01 -0.92897881124E+01  0.94742777368E+02  0.89781369682E+02 0.  0.
         13    1    3    3    0    0 -0.27674696432E+02  0.27241030452E+02 -0.41545228120E+02  0.56868090405E+02  0.10566000000E+00 0.  1.
         22    1    1    0    0    0  0.27831270074E+02 -0.73905185421E+01  0.92897881124E+01  0.30257222632E+02  0.00000000000E+00 0.  1.
</event>
<event>
 5    1  0.1245610E-004  0.9118800E+02  0.7818608E-02  0.1130116E+00
         25   -1    0    0    0    0  0.00000000000E+00  0.00000000000E+00  0.99999998245E-14  0.12500000000E+03  0.12500000000E+03 0.  0.
        -13    1    3    3    0    0  0.58923423291E+01 -0.17454142500E+02  0.46405186555E+02  0.49928141281E+02  0.10566000000E+00 0.  1.
         23    2    1    0    0    0 -0.18439541637E+02  0.10890007774E+02  0.20220731722E+02  0.95546868478E+02  0.90893988357E+02 0.  0.
         13    1    3    3    0    0 -0.24331883966E+02  0.28344150274E+02 -0.26184454833E+02  0.45618727197E+02  0.10566000000E+00 0. -1.
         22    1    1    0    0    0  0.18439541637E+02 -0.10890007774E+02 -0.20220731722E+02  0.29453131522E+02  0.00000000000E+00 0.  1.
</event>
<event>
 5    1  0.1245610E-004  0.9118800E+02  0.7818608E-02  0.1130116E+00
         25   -1    0    0    0    0  0.00000000000E+00  0.00000000000E+00  0.99999998245E-14  0.12500000000E+03  0.12500000000E+03 0.  0.
        -13    1    3    3    0    0  0.41867634190E+01 -0.29870123420E+02  0.22767038469E+02  0.37790242996E+02  0.10566000000E+00 0. -1.
         23    2    1    0    0    0 -0.23893797932E+02  0.16665464149E+02  0.26389902561E+01  0.95749093270E+02  0.91171669490E+02 0.  0.
         13    1    3    3    0    0 -0.28080561351E+02  0.46535587569E+02 -0.20128048212E+02  0.57958850274E+02  0.10566000000E+00 0.  1.
         22    1    1    0    0    0  0.23893797932E+02 -0.16665464149E+02 -0.26389902561E+01  0.29250906730E+02  0.00000000000E+00 0.  1.
</event>
<event>
 5    1  0.1245610E-004  0.9118800E+02  0.7818608E-02  0.1130116E+00
         25   -1    0    0    0    0  0.00000000000E+00  0.00000000000E+00  0.99999998245E-14  0.12500000000E+03  0.12500000000E+03 0.  0.
        -13    1    3    3    0    0  0.32949575972E+02 -0.26333271842E+02  0.10058678696E+01  0.42191689902E+02  0.10566000000E+00 0. -1.
         23    2    1    0    0    0  0.11061791689E+02  0.14979283051E+02 -0.23531410198E+02  0.94992177320E+02  0.90127933128E+02 0.  0.
         13    1    3    3    0    0 -0.21887784283E+02  0.41312554892E+02 -0.24537278068E+02  0.52800487418E+02  0.10566000000E+00 0.  1.
         22    1    1    0    0    0 -0.11061791689E+02 -0.14979283051E+02  0.23531410198E+02  0.30007822680E+02  0.00000000000E+00 0.  1.
</event>
<event>
 5    1  0.1245610E-004  0.9118800E+02  0.7818608E-02  0.1130116E+00
         25   -1    0    0    0    0  0.00000000000E+00  0.00000000000E+00  0.99999998245E-14  0.12500000000E+03  0.12500000000E+03 0.  0.
        -13    1    3    3    0    0 -0.10680516443E+02  0.13972845897E+02 -0.58208964919E+02  0.60807965062E+02  0.10566000000E+00 0. -1.
         23    2    1    0    0    0 -0.26252636269E+01  0.15804357257E+02 -0.23019599140E+02  0.96954115062E+02  0.92809098506E+02 0.  0.
         13    1    3    3    0    0  0.80552528156E+01  0.18315113603E+01  0.35189365780E+02  0.36146150000E+02  0.10566000000E+00 0.  1.
         22    1    1    0    0    0  0.26252636269E+01 -0.15804357257E+02  0.23019599140E+02  0.28045884938E+02  0.00000000000E+00 0. -1.
</event>
<event>
 5    1  0.1245610E-004  0.9118800E+02  0.7818608E-02  0.1130116E+00
         25   -1    0    0    0    0  0.00000000000E+00  0.00000000000E+00  0.99999998245E-14  0.12500000000E+03  0.12500000000E+03 0.  0.
        -13    1    3    3    0    0  0.97776854196E+01  0.40158008132E+02 -0.45137598745E+01  0.41577084331E+02  0.10566000000E+00 0.  1.
         23    2    1    0    0    0  0.17719961568E+02 -0.82431908913E+01 -0.23732220035E+02  0.94256455932E+02  0.89101705837E+02 0.  0.
         13    1    3    3    0    0  0.79422761488E+01 -0.48401199023E+02 -0.19218460161E+02  0.52679371601E+02  0.10566000000E+00 0. -1.
         22    1    1    0    0    0 -0.17719961568E+02  0.82431908913E+01  0.23732220035E+02  0.30743544068E+02  0.00000000000E+00 0. -1.
</event>
<event>
 5    1  0.1245610E-004  0.9118800E+02  0.7818608E-02  0.1130116E+00
         25   -1    0    0    0    0  0.00000000000E+00  0.00000000000E+00  0.99999998245E-14  0.12500000000E+03  0.12500000000E+03 0.  0.
        -13    1    3    3    0    0  0.28694664586E+02 -0.22917141341E+02  0.14270677466E+02  0.39398509392E+02  0.10566000000E+00 0. -1.
         23    2    1    0    0    0  0.22851242564E+01 -0.33001900978E+01 -0.30099241971E+02  0.94634272366E+02  0.89630174001E+02 0.  0.
         13    1    3    3    0    0 -0.26409540330E+02  0.19616951243E+02 -0.44369919436E+02  0.55235762974E+02  0.10566000000E+00 0.  1.
         22    1    1    0    0    0 -0.22851242564E+01  0.33001900978E+01  0.30099241971E+02  0.30365727634E+02  0.00000000000E+00 0.  1.
</event>
<event>
 5    1  0.1245610E-004  0.9118800E+02  0.7818608E-02  0.1130116E+00
         25   -1    0    0    0    0  0.00000000000E+00  0.00000000000E+00  0.99999998245E-14  0.12500000000E+03  0.12500000000E+03 0.  0.
        -13    1    3    3    0    0  0.76803073082E+01 -0.11047828592E+02  0.36796767695E+02  0.39179776847E+02  0.10566000000E+00 0. -1.
         23    2    1    0    0    0  0.17345310091E+02  0.23133052516E+02 -0.66824315584E+01  0.95324205278E+02  0.90587258042E+02 0.  0.
         13    1    3    3    0    0  0.96650027826E+01  0.34180881108E+02 -0.43479199254E+02  0.56144428431E+02  0.10566000000E+00 0.  1.
         22    1    1    0    0    0 -0.17345310091E+02 -0.23133052516E+02  0.66824315584E+01  0.29675794722E+02  0.00000000000E+00 0.  1.
</event>
<event>
 5    1  0.1245610E-004  0.9118800E+02  0.7818608E-02  0.1130116E+00
         25   -1    0    0    0    0  0.00000000000E+00  0.00000000000E+00  0.99999998245E-14  0.12500000000E+03  0.12500000000E+03 0.  0.
        -13    1    3    3    0    0 -0.30754469786E+02 -0.16999107490E+02  0.32309811138E+01  0.35288205824E+02  0.10566000000E+00 0.  1.
         23    2    1    0    0    0 -0.10897945335E+02  0.30288676659E+02 -0.14690196610E+02  0.89616797450E+02  0.82335893525E+02 0.  0.
         13    1    3    3    0    0  0.19856524452E+02  0.47287784149E+02 -0.17921177724E+02  0.54328591626E+02  0.10566000000E+00 0. -1.
         22    1    1    0    0    0  0.10897945335E+02 -0.30288676659E+02  0.14690196610E+02  0.35383202550E+02  0.00000000000E+00 0. -1.
</event>
<event>
 5    1  0.1245610E-004  0.9118800E+02  0.7818608E-02  0.1130116E+00
         25   -1    0    0    0    0  0.00000000000E+00  0.00000000000E+00  0.99999998245E-14  0.12500000000E+03  0.12500000000E+03 0.  0.
        -13    1    3    3    0    0 -0.48422086852E+02  0.22705445949E+02  0.12114831548E+02  0.54836266086E+02  0.10566000000E+00 0.  1.
         23    2    1    0    0    0 -0.16907263902E+02 -0.40476322075E+01  0.21623106460E+02  0.97254772805E+02  0.93213160022E+02 0.  0.
         13    1    3    3    0    0  0.31514822950E+02 -0.26753078157E+02  0.95082749114E+01  0.42418506719E+02  0.10566000000E+00 0. -1.
         22    1    1    0    0    0  0.16907263902E+02  0.40476322075E+01 -0.21623106460E+02  0.27745227195E+02  0.00000000000E+00 0.  1.
</event>
<event>
 5    1  0.1245610E-004  0.9118800E+02  0.7818608E-02  0.1130116E+00
         25   -1    0    0    0    0  0.00000000000E+00  0.00000000000E+00  0.99999998245E-14  0.12500000000E+03  0.12500000000E+03 0.  0.
        -13    1    3    3    0    0  0.27974257924E+02  0.28476345704E+02  0.42292651015E+02  0.58156176498E+02  0.10566000000E+00 0. -1.
         23    2    1    0    0    0  0.12749920422E+02  0.28171450857E+02  0.12438417643E+02  0.91669753262E+02  0.85395774576E+02 0.  0.
         13    1    3    3    0    0 -0.15224337502E+02 -0.30489484640E+00 -0.29854233372E+02  0.33513576763E+02  0.10566000000E+00 0.  1.
         22    1    1    0    0    0 -0.12749920422E+02 -0.28171450857E+02 -0.12438417643E+02  0.33330246738E+02  0.00000000000E+00 0. -1.
</event>
<event>
 5    1  0.1245610E-004  0.9118800E+02  0.7818608E-02  0.1130116E+00
         25   -1    0    0    0    0  0.00000000000E+00  0.00000000000E+00  0.99999998245E-14  0.12500000000E+03  0.12500000000E+03 0.  0.
        -13    1    3    3    0    0 -0.54906369465E+02  0.44103051218E+01  0.16060279738E+02  0.57376858997E+02  0.10566000000E+00 0.  1.
         23    2    1    0    0    0 -0.27537779143E+02  0.57926427231E+01 -0.99433399771E+01  0.95154497831E+02  0.90352777809E+02 0.  0.
         13    1    3    3    0    0  0.27368590323E+02  0.13823376013E+01 -0.26003619716E+02  0.37777638834E+02  0.10566000000E+00 0. -1.
         22    1    1    0    0    0  0.27537779143E+02 -0.57926427231E+01  0.99433399771E+01  0.29845502169E+02  0.00000000000E+00 0.  1.
</event>
<event>
 5    1  0.1245610E-004  0.9118800E+02  0.7818608E-02  0.1130116E+00
         25   -1    0    0    0    0  0.00000000000E+00  0.00000000000E+00  0.99999998245E-14  0.12500000000E+03  0.12500000000E+03 0.  0.
        -13    1    3    3    0    0  0.31042365443E+02  0.15444490714E+02  0.66578181175E+00  0.34678742411E+02  0.10566000000E+00 0. -1.
         23    2    1    0    0    0 -0.28114748670E+02  0.13162196439E+01  0.74726065481E+01  0.95879365125E+02  0.91350102798E+02 0.  0.
         13    1    3    3    0    0 -0.59157114113E+02 -0.14128271070E+02  0.68068247363E+01  0.61200622714E+02  0.10566000000E+00 0.  1.
         22    1    1    0    0    0  0.28114748670E+02 -0.13162196439E+01 -0.74726065481E+01  0.29120634875E+02  0.00000000000E+00 0.  1.
</event>
<event>
 5    1  0.1245610E-004  0.9118800E+02  0.7818608E-02  0.1130116E+00
         25   -1    0    0    0    0  0.00000000000E+00  0.00000000000E+00  0.99999998245E-14  0.12500000000E+03  0.12500000000E+03 0.  0.
        -13    1    3    3    0    0  0.13237733538E+02  0.38642267075E+01  0.47584882252E+02  0.49542931083E+02  0.10566000000E+00 0. -1.
         23    2    1    0    0    0  0.24380571095E+02  0.15472518124E+02  0.41941941192E+01  0.95821200704E+02  0.91270478119E+02 0.  0.
         13    1    3    3    0    0  0.11142837557E+02  0.11608291416E+02 -0.43390688133E+02  0.46278269621E+02  0.10566000000E+00 0.  1.
         22    1    1    0    0    0 -0.24380571095E+02 -0.15472518124E+02 -0.41941941192E+01  0.29178799296E+02  0.00000000000E+00 0. -1.
</event>
<event>
 5    1  0.1245610E-004  0.9118800E+02  0.7818608E-02  0.1130116E+00
         25   -1    0    0    0    0  0.00000000000E+00  0.00000000000E+00  0.99999998245E-14  0.12500000000E+03  0.12500000000E+03 0.  0.
        -13    1    3    3    0    0 -0.44793931335E+02  0.71777775823E+01 -0.89614113244E+01  0.46242132654E+02  0.10566000000E+00 0. -1.
         23    2    1    0    0    0 -0.35201021357E+01 -0.93406038858E+01 -0.28499674009E+02  0.94802824328E+02  0.89864932437E+02 0.  0.
         13    1    3    3    0    0  0.41273829199E+02 -0.16518381468E+02 -0.19538262684E+02  0.48560691674E+02  0.10566000000E+00 0.  1.
         22    1    1    0    0    0  0.35201021357E+01  0.93406038858E+01  0.28499674009E+02  0.30197175672E+02  0.00000000000E+00 0.  1.
</event>
<event>
 5    1  0.1245610E-004  0.9118800E+02  0.7818608E-02  0.1130116E+00
         25   -1    0    0    0    0  0.00000000000E+00  0.00000000000E+00  0.99999998245E-14  0.12500000000E+03  0.12500000000E+03 0.  0.
        -13    1    3    3    0    0  0.16659765365E+02  0.27211318495E+02  0.21511598403E+02  0.38480692121E+02  0.10566000000E+00 0.  1.
         23    2    1    0    0    0 -0.21512449950E+02 -0.14614368820E+02  0.13584066331E+02  0.95659036537E+02  0.91048114392E+02 0.  0.
         13    1    3    3    0    0 -0.38172215314E+02 -0.41825687315E+02 -0.79275320720E+01  0.57178344416E+02  0.10566000000E+00 0. -1.
         22    1    1    0    0    0  0.21512449950E+02  0.14614368820E+02 -0.13584066331E+02  0.29340963463E+02  0.00000000000E+00 0. -1.
</event>
<event>
 5    1  0.1245610E-004  0.9118800E+02  0.7818608E-02  0.1130116E+00
         25   -1    0    0    0    0  0.00000000000E+00  0.00000000000E+00  0.99999998245E-14  0.12500000000E+03  0.12500000000E+03 0.  0.
        -13    1    3    3    0    0 -0.27648856763E+02 -0.31851039831E+02  0.40409603197E+02  0.58411430502E+02  0.10566000000E+00 0.  1.
         23    2    1    0    0    0 -0.42916680743E+01 -0.26740630466E+02  0.12472745866E+02  0.95183073229E+02  0.90392302257E+02 0.  0.
         13    1    3    3    0    0  0.23357188689E+02  0.51104093652E+01 -0.27936857331E+02  0.36771642728E+02  0.10566000000E+00 0. -1.
         22    1    1    0    0    0  0.42916680743E+01  0.26740630466E+02 -0.12472745866E+02  0.29816926771E+02  0.00000000000E+00 0.  1.
</event>
<event>
 5    1  0.1245610E-004  0.9118800E+02  0.7818608E-02  0.1130116E+00
         25   -1    0    0    0    0  0.00000000000E+00  0.00000000000E+00  0.99999998245E-14  0.12500000000E+03  0.12500000000E+03 0.  0.
        -13    1    3    3    0    0 -0.19394326754E+02 -0.21430354541E+02  0.21811666908E+02  0.36209943156E+02  0.10566000000E+00 0.  1.
         23    2    1    0    0    0  0.17274133322E+02 -0.11462893960E+00 -0.21893421106E+02  0.97112176321E+02  0.93021739827E+02 0.  0.
         13    1    3    3    0    0  0.36668460076E+02  0.21315725601E+02 -0.43705088014E+02  0.60902233166E+02  0.10566000000E+00 0. -1.
         22    1    1    0    0    0 -0.17274133322E+02  0.11462893960E+00  0.21893421106E+02  0.27887823679E+02  0.00000000000E+00 0. -1.
</event>
<event>
 5    1  0.1245610E-004  0.9118800E+02  0.7818608E-02  0.1130116E+00
         25   -1    0    0    0    0  0.00000000000E+00  0.00000000000E+00  0.99999998245E-14  0.12500000000E+03  0.12500000000E+03 0.  0.
        -13    1    3    3    0    0  0.34961529192E+00 -0.82556709740E+01  0.24120570122E+02  0.25496890028E+02  0.10566000000E+00 0.  1.
         23    2    1    0    0    0 -0.99296467233E+01 -0.40656667051E+02 -0.17845133908E+02  0.79502623549E+02  0.65197054283E+02 0.  0.
         13    1    3    3    0    0 -0.10279262015E+02 -0.32400996077E+02 -0.41965704030E+02  0.54005733521E+02  0.10566000000E+00 0. -1.
         22    1    1    0    0    0  0.99296467233E+01  0.40656667051E+02  0.17845133908E+02  0.45497376451E+02  0.00000000000E+00 0. -1.
</event>
<event>
 5    1  0.1245610E-004  0.9118800E+02  0.7818608E-02  0.1130116E+00
         25   -1    0    0    0    0  0.00000000000E+00  0.00000000000E+00  0.99999998245E-14  0.12500000000E+03  0.12500000000E+03 0.  0.
        -13    1    3    3    0    0  0.13027355104E+02 -0.39051025414E+02 -0.42422588293E+02  0.59113295699E+02  0.10566000000E+00 0. -1.
         23    2    1    0    0    0 -0.47243270192E+01 -0.11495628304E+02 -0.26870978119E+02  0.95393949926E+02  0.90683446568E+02 0.  0.
         13    1    3    3    0    0 -0.17751682123E+02  0.27555397110E+02  0.15551610174E+02  0.36280654227E+02  0.10566000000E+00 0.  1.
         22    1    1    0    0    0  0.47243270192E+01  0.11495628304E+02  0.26870978119E+02  0.29606050074E+02  0.00000000000E+00 0. -1.
</event>
<event>
 5    1  0.1245610E-004  0.9118800E+02  0.7818608E-02  0.1130116E+00
         25   -1    0    0    0    0  0.00000000000E+00  0.00000000000E+00  0.99999998245E-14  0.12500000000E+03  0.12500000000E+03 0.  0.
        -13    1    3    3    0    0  0.33533892728E+02 -0.19082102188E+02  0.45129930122E+02  0.59374829197E+02  0.10566000000E+00 0.  1.
         23    2    1    0    0    0  0.25875418114E+02 -0.77724937196E+01  0.11567496785E+02  0.95610275553E+02  0.90981145785E+02 0.  0.
         13    1    3    3    0    0 -0.76584746140E+01  0.11309608468E+02 -0.33562433337E+02  0.36235446356E+02  0.10566000000E+00 0. -1.
         22    1    1    0    0    0 -0.25875418114E+02  0.77724937196E+01 -0.11567496785E+02  0.29389724447E+02  0.00000000000E+00 0.  1.
</event>
<event>
 5    1  0.1245610E-004  0.9118800E+02  0.7818608E-02  0.1130116E+00
         25   -1    0    0    0    0  0.00000000000E+00  0.00000000000E+00  0.99999998245E-14  0.12500000000E+03  0.12500000000E+03 0.  0.
        -13    1    3    3    0    0 -0.41289230670E+02  0.26027074674E+02 -0.24177623121E+01  0.48867841410E+02  0.10566000000E+00 0. -1.
         23    2    1    0    0    0 -0.35526498404E+01  0.19835033770E+02  0.22719996033E+02  0.94631461917E+02  0.89626254408E+02 0.  0.
         13    1    3    3    0    0  0.37736580830E+02 -0.61920409040E+01  0.25137758345E+02  0.45763620507E+02  0.10566000000E+00 0.  1.
         22    1    1    0    0    0  0.35526498404E+01 -0.19835033770E+02 -0.22719996033E+02  0.30368538083E+02  0.00000000000E+00 0. -1.
</event>
<event>
 5    1  0.1245610E-004  0.9118800E+02  0.7818608E-02  0.1130116E+00
         25   -1    0    0    0    0  0.00000000000E+00  0.00000000000E+00  0.99999998245E-14  0.12500000000E+03  0.12500000000E+03 0.  0.
        -13    1    3    3    0    0  0.57047572358E+01 -0.60495575655E+02 -0.38977086682E+01  0.60888933525E+02  0.10566000000E+00 0. -1.
         23    2    1    0    0    0  0.68030514522E-01 -0.28197958845E+02  0.78724633222E+01  0.95723641109E+02  0.91136766879E+02 0.  0.
         13    1    3    3    0    0 -0.56367267213E+01  0.32297616810E+02  0.11770171990E+02  0.34834707584E+02  0.10566000000E+00 0.  1.
         22    1    1    0    0    0 -0.68030514522E-01  0.28197958845E+02 -0.78724633222E+01  0.29276358891E+02  0.00000000000E+00 0. -1.
</event>
<event>
 5    1  0.1245610E-004  0.9118800E+02  0.7818608E-02  0.1130116E+00
         25   -1    0    0    0    0  0.00000000000E+00  0.00000000000E+00  0.99999998245E-14  0.12500000000E+03  0.12500000000E+03 0.  0.
        -13    1    3    3    0    0  0.16212263310E+02  0.29171728395E+01  0.46157705493E+02  0.49009104454E+02  0.10566000000E+00 0. -1.
         23    2    1    0    0    0  0.19800447214E+00 -0.26343045742E+02  0.14835717723E+02  0.94766016057E+02  0.89813718408E+02 0.  0.
         13    1    3    3    0    0 -0.16014258838E+02 -0.29260218581E+02 -0.31321987770E+02  0.45756911603E+02  0.10566000000E+00 0.  1.
         22    1    1    0    0    0 -0.19800447214E+00  0.26343045742E+02 -0.14835717723E+02  0.30233983943E+02  0.00000000000E+00 0. -1.
</event>
<event>
 5    1  0.1245610E-004  0.9118800E+02  0.7818608E-02  0.1130116E+00
         25   -1    0    0    0    0  0.00000000000E+00  0.00000000000E+00  0.99999998245E-14  0.12500000000E+03  0.12500000000E+03 0.  0.
        -13    1    3    3    0    0  0.14098784821E+02 -0.34068803974E+02  0.16442259932E+02  0.40371007089E+02  0.10566000000E+00 0.  1.
         23    2    1    0    0    0  0.14769965992E+02  0.26152297638E+01 -0.25077302568E+02  0.95779075542E+02  0.91212767118E+02 0.  0.
         13    1    3    3    0    0  0.67118117128E+00  0.36684033738E+02 -0.41519562500E+02  0.55408068453E+02  0.10566000000E+00 0. -1.
         22    1    1    0    0    0 -0.14769965992E+02 -0.26152297638E+01  0.25077302568E+02  0.29220924458E+02  0.00000000000E+00 0. -1.
</event>
<event>
 5    1  0.1245610E-004  0.9118800E+02  0.7818608E-02  0.1130116E+00
         25   -1    0    0    0    0  0.00000000000E+00  0.00000000000E+00  0.99999998245E-14  0.12500000000E+03  0.12500000000E+03 0.  0.
        -13    1    3    3    0    0 -0.47772826318E+01 -0.58877483264E+01  0.35026571042E+02  0.35837966637E+02  0.10566000000E+00 0.  1.
         23    2    1    0    0    0  0.19471395384E+02  0.21483624228E+02 -0.10438129654E+02  0.94183837052E+02  0.88999771140E+02 0.  0.
         13    1    3    3    0    0  0.24248678015E+02  0.27371372555E+02 -0.45464700696E+02  0.58345870415E+02  0.10566000000E+00 0. -1.
         22    1    1    0    0    0 -0.19471395384E+02 -0.21483624228E+02  0.10438129654E+02  0.30816162948E+02  0.00000000000E+00 0. -1.
</event>
<event>
 5    1  0.1245610E-004  0.9118800E+02  0.7818608E-02  0.1130116E+00
         25   -1    0    0    0    0  0.00000000000E+00  0.00000000000E+00  0.99999998245E-14  0.12500000000E+03  0.12500000000E+03 0.  0.
        -13    1    3    3    0    0  0.29905951284E+02 -0.98202390620E+01  0.18585843039E+02  0.36554722581E+02  0.10566000000E+00 0. -1.
         23    2    1    0    0    0 -0.70839148721E+01  0.27809431439E+02 -0.73875304925E+01  0.95366877761E+02  0.90646122036E+02 0.  0.
         13    1    3    3    0    0 -0.36989866156E+02  0.37629670501E+02 -0.25973373531E+02  0.58812155180E+02  0.10566000000E+00 0.  1.
         22    1    1    0    0    0  0.70839148721E+01 -0.27809431439E+02  0.73875304925E+01  0.29633122239E+02  0.00000000000E+00 0.  1.
</event>
<event>
 5    1  0.1245610E-004  0.9118800E+02  0.7818608E-02  0.1130116E+00
         25   -1    0    0    0    0  0.00000000000E+00  0.00000000000E+00  0.99999998245E-14  0.12500000000E+03  0.12500000000E+03 0.  0.
        -13    1    3    3    0    0  0.30564793534E+02 -0.38267849438E+01 -0.24864881674E+02  0.39586921975E+02  0.10566000000E+00 0.  1.
         23    2    1    0    0    0 -0.93441493573E+01  0.25128696633E+02  0.56894823667E+01  0.97593162691E+02  0.93665845818E+02 0.  0.
         13    1    3    3    0    0 -0.39908942891E+02  0.28955481576E+02  0.30554364041E+02  0.58006240716E+02  0.10566000000E+00 0. -1.
         22    1    1    0    0    0  0.93441493573E+01 -0.25128696633E+02 -0.56894823667E+01  0.27406837309E+02  0.00000000000E+00 0. -1.
</event>
<event>
 5    1  0.1245610E-004  0.9118800E+02  0.7818608E-02  0.1130116E+00
         25   -1    0    0    0    0  0.00000000000E+00  0.00000000000E+00  0.99999998245E-14  0.12500000000E+03  0.12500000000E+03 0.  0.
        -13    1    3    3    0    0  0.21281763730E+01 -0.41711733210E+02  0.14760352235E+02  0.44297595693E+02  0.10566000000E+00 0.  1.
         23    2    1    0    0    0 -0.30121263036E+02 -0.53111696316E+01  0.35125671201E+01  0.94213036241E+02  0.89040771898E+02 0.  0.
         13    1    3    3    0    0 -0.32249439409E+02  0.36400563578E+02 -0.11247785115E+02  0.49915440547E+02  0.10566000000E+00 0. -1.
         22    1    1    0    0    0  0.30121263036E+02  0.53111696316E+01 -0.35125671201E+01  0.30786963759E+02  0.00000000000E+00 0. -1.
</event>
<event>
 5    1  0.1245610E-004  0.9118800E+02  0.7818608E-02  0.1130116E+00
         25   -1    0    0    0    0  0.00000000000E+00  0.00000000000E+00  0.99999998245E-14  0.12500000000E+03  0.12500000000E+03 0.  0.
        -13    1    3    3    0    0  0.36840354131E+02  0.36426132177E+02  0.23694448237E+02  0.56969402657E+02  0.10566000000E+00 0.  1.
         23    2    1    0    0    0  0.29499762717E+01  0.28820558715E+02  0.92328631405E+01  0.94593212494E+02  0.89572892794E+02 0.  0.
         13    1    3    3    0    0 -0.33890377859E+02 -0.76055734619E+01 -0.14461585096E+02  0.37623809837E+02  0.10566000000E+00 0. -1.
         22    1    1    0    0    0 -0.29499762717E+01 -0.28820558715E+02 -0.92328631405E+01  0.30406787506E+02  0.00000000000E+00 0.  1.
</event>
<event>
 5    1  0.1245610E-004  0.9118800E+02  0.7818608E-02  0.1130116E+00
         25   -1    0    0    0    0  0.00000000000E+00  0.00000000000E+00  0.99999998245E-14  0.12500000000E+03  0.12500000000E+03 0.  0.
        -13    1    3    3    0    0  0.92488014519E+01 -0.27453904638E+02  0.45982281739E+02  0.54347388218E+02  0.10566000000E+00 0.  1.
         23    2    1    0    0    0 -0.29555030180E+01 -0.29810967368E+02  0.84655944278E+01  0.93869708280E+02  0.88557478906E+02 0.  0.
         13    1    3    3    0    0 -0.12204304470E+02 -0.23570627306E+01 -0.37516687311E+02  0.39522320063E+02  0.10566000000E+00 0. -1.
         22    1    1    0    0    0  0.29555030180E+01  0.29810967368E+02 -0.84655944278E+01  0.31130291720E+02  0.00000000000E+00 0.  1.
</event>
<event>
 5    1  0.1245610E-004  0.9118800E+02  0.7818608E-02  0.1130116E+00
         25   -1    0    0    0    0  0.00000000000E+00  0.00000000000E+00  0.99999998245E-14  0.12500000000E+03  0.12500000000E+03 0.  0.
        -13    1    3    3    0    0 -0.86769796698E+01  0.18610518170E+02  0.54471609584E+02  0.58213475909E+02  0.10566000000E+00 0. -1.
         23    2    1    0    0    0  0.93525989201E+01  0.17024419282E+02  0.20168413802E+02  0.96998805851E+02  0.92869270821E+02 0.  0.
         13    1    3    3    0    0  0.18029578590E+02 -0.15860988877E+01 -0.34303195782E+02  0.38785329942E+02  0.10566000000E+00 0.  1.
         22    1    1    0    0    0 -0.93525989201E+01 -0.17024419282E+02 -0.20168413802E+02  0.28001194149E+02  0.00000000000E+00 0. -1.
</event>
<event>
 5    1  0.1245610E-004  0.9118800E+02  0.7818608E-02  0.1130116E+00
         25   -1    0    0    0    0  0.00000000000E+00  0.00000000000E+00  0.99999998245E-14  0.12500000000E+03  0.12500000000E+03 0.  0.
        -13    1    3    3    0    0 -0.51361683342E+01  0.45254222547E+02 -0.27361141294E+00  0.45545701342E+02  0.10566000000E+00 0. -1.
         23    2    1    0    0    0  0.23497470589E+02  0.71229118891E+01  0.15724405615E+02  0.95843115224E+02  0.91300486341E+02 0.  0.
         13    1    3    3    0    0  0.28633638923E+02 -0.38131310657E+02  0.15998017028E+02  0.50297413883E+02  0.10566000000E+00 0.  1.
         22    1    1    0    0    0 -0.23497470589E+02 -0.71229118891E+01 -0.15724405615E+02  0.29156884776E+02  0.00000000000E+00 0. -1.
</event>
<event>
 5    1  0.1245610E-004  0.9118800E+02  0.7818608E-02  0.1130116E+00
         25   -1    0    0    0    0  0.00000000000E+00  0.00000000000E+00  0.99999998245E-14  0.12500000000E+03  0.12500000000E+03 0.  0.
        -13    1    3    3    0    0  0.15340542202E+02 -0.28080284471E+02  0.23540363840E+02  0.39723978965E+02  0.10566000000E+00 0.  1.
         23    2    1    0    0    0 -0.91493702193E+01 -0.15544290881E+02 -0.24195914735E+02  0.94820897226E+02  0.89890067897E+02 0.  0.
         13    1    3    3    0    0 -0.24489912421E+02  0.12535993590E+02 -0.47736278575E+02  0.55096918261E+02  0.10566000000E+00 0. -1.
         22    1    1    0    0    0  0.91493702193E+01  0.15544290881E+02  0.24195914735E+02  0.30179102774E+02  0.00000000000E+00 0. -1.
</event>
<event>
 5    1  0.1245610E-004  0.9118800E+02  0.7818608E-02  0.1130116E+00
         25   -1    0    0    0    0  0.00000000000E+00  0.00000000000E+00  0.99999998245E-14  0.12500000000E+03  0.12500000000E+03 0.  0.
        -13    1    3    3    0    0  0.41339285593E+01  0.28837129171E+02  0.48505226139E+02  0.56581246990E+02  0.10566000000E+00 0. -1.
         23    2    1    0    0    0  0.16603178819E+01 -0.44449411504E+01  0.29769656583E+02  0.94854575632E+02  0.89936888471E+02 0.  0.
         13    1    3    3    0    0 -0.24736106774E+01 -0.33282070321E+02 -0.18735569557E+02  0.38273328641E+02  0.10566000000E+00 0.  1.
         22    1    1    0    0    0 -0.16603178819E+01  0.44449411504E+01 -0.29769656583E+02  0.30145424368E+02  0.00000000000E+00 0. -1.
</event>
<event>
 5    1  0.1245610E-004  0.9118800E+02  0.7818608E-02  0.1130116E+00
         25   -1    0    0    0    0  0.00000000000E+00  0.00000000000E+00  0.99999998245E-14  0.12500000000E+03  0.12500000000E+03 0.  0.
        -13    1    3    3    0    0  0.22074682477E+02 -0.12317877586E+02  0.55097238729E+02  0.60619622188E+02  0.10566000000E+00 0.  1.
         23    2    1    0    0    0  0.12242584267E+02  0.50381776216E+01  0.24659584797E+02  0.97011444738E+02  0.92886280927E+02 0.  0.
         13    1    3    3    0    0 -0.98320982099E+01  0.17356055207E+02 -0.30437653932E+02  0.36391822549E+02  0.10566000000E+00 0. -1.
         22    1    1    0    0    0 -0.12242584267E+02 -0.50381776216E+01 -0.24659584797E+02  0.27988555262E+02  0.00000000000E+00 0.  1.
</event>
<event>
 5    1  0.1245610E-004  0.9118800E+02  0.7818608E-02  0.1130116E+00
         25   -1    0    0    0    0  0.00000000000E+00  0.00000000000E+00  0.99999998245E-14  0.12500000000E+03  0.12500000000E+03 0.  0.
        -13    1    3    3    0    0 -0.35130003433E+02 -0.23126187782E+02  0.14966645234E+02  0.44642461135E+02  0.10566000000E+00 0.  1.
         23    2    1    0    0    0 -0.92946256189E+01 -0.72868373970E+01 -0.26491198612E+02  0.95995316438E+02  0.91508628607E+02 0.  0.
         13    1    3    3    0    0  0.25835377815E+02  0.15839350385E+02 -0.41457843846E+02  0.51352855303E+02  0.10566000000E+00 0. -1.
         22    1    1    0    0    0  0.92946256189E+01  0.72868373970E+01  0.26491198612E+02  0.29004683562E+02  0.00000000000E+00 0.  1.
</event>
<event>
 5    1  0.1245610E-004  0.9118800E+02  0.7818608E-02  0.1130116E+00
         25   -1    0    0    0    0  0.00000000000E+00  0.00000000000E+00  0.99999998245E-14  0.12500000000E+03  0.12500000000E+03 0.  0.
        -13    1    3    3    0    0 -0.85448878406E+01  0.29211489154E+02  0.50988579202E+02  0.59381584518E+02  0.10566000000E+00 0.  1.
         23    2    1    0    0    0 -0.46736060481E+01  0.21946331501E+02  0.11372422155E+02  0.99844164782E+02  0.96623191810E+02 0.  0.
         13    1    3    3    0    0  0.38712817925E+01 -0.72651576535E+01 -0.39616157046E+02  0.40462580264E+02  0.10566000000E+00 0. -1.
         22    1    1    0    0    0  0.46736060481E+01 -0.21946331501E+02 -0.11372422155E+02  0.25155835218E+02  0.00000000000E+00 0.  1.
</event>
<event>
 5    1  0.1245610E-004  0.9118800E+02  0.7818608E-02  0.1130116E+00
         25   -1    0    0    0    0  0.00000000000E+00  0.00000000000E+00  0.99999998245E-14  0.12500000000E+03  0.12500000000E+03 0.  0.
        -13    1    3    3    0    0 -0.87282599192E+01  0.44159766235E+01  0.57687082248E+02  0.58510631454E+02  0.10566000000E+00 0. -1.
         23    2    1    0    0    0  0.84161076635E+01 -0.77619948644E+01  0.26579000863E+02  0.96060015215E+02  0.91596963945E+02 0.  0.
         13    1    3    3    0    0  0.17144367583E+02 -0.12177971488E+02 -0.31108081386E+02  0.37549383762E+02  0.10566000000E+00 0.  1.
         22    1    1    0    0    0 -0.84161076635E+01  0.77619948644E+01 -0.26579000863E+02  0.28939984785E+02  0.00000000000E+00 0. -1.
</event>
<event>
 5    1  0.1245610E-004  0.9118800E+02  0.7818608E-02  0.1130116E+00
         25   -1    0    0    0    0  0.00000000000E+00  0.00000000000E+00  0.99999998245E-14  0.12500000000E+03  0.12500000000E+03 0.  0.
        -13    1    3    3    0    0 -0.40182289008E+02 -0.34063509433E+02 -0.21443659870E+02  0.56875132856E+02  0.10566000000E+00 0.  1.
         23    2    1    0    0    0 -0.27522615956E+02  0.68150519726E+00 -0.11462142596E+02  0.95178203420E+02  0.90385567736E+02 0.  0.
         13    1    3    3    0    0  0.12659673052E+02  0.34745014630E+02  0.99815172738E+01  0.38303070563E+02  0.10566000000E+00 0. -1.
         22    1    1    0    0    0  0.27522615956E+02 -0.68150519726E+00  0.11462142596E+02  0.29821796580E+02  0.00000000000E+00 0.  1.
</event>
<event>
 5    1  0.1245610E-004  0.9118800E+02  0.7818608E-02  0.1130116E+00
         25   -1    0    0    0    0  0.00000000000E+00  0.00000000000E+00  0.99999998245E-14  0.12500000000E+03  0.12500000000E+03 0.  0.
        -13    1    3    3    0    0 -0.95625250301E+01  0.38125612014E+02 -0.36315766508E+02  0.53514953401E+02  0.10566000000E+00 0.  1.
         23    2    1    0    0    0 -0.10442565831E+02 -0.43725770071E+01 -0.25081466505E+02  0.97481886459E+02  0.93517226299E+02 0.  0.
         13    1    3    3    0    0 -0.88004080076E+00 -0.42498189022E+02  0.11234300003E+02  0.43966933058E+02  0.10566000000E+00 0. -1.
         22    1    1    0    0    0  0.10442565831E+02  0.43725770071E+01  0.25081466505E+02  0.27518113541E+02  0.00000000000E+00 0.  1.
</event>
<event>
 5    1  0.1245610E-004  0.9118800E+02  0.7818608E-02  0.1130116E+00
         25   -1    0    0    0    0  0.00000000000E+00  0.00000000000E+00  0.99999998245E-14  0.12500000000E+03  0.12500000000E+03 0.  0.
        -13    1    3    3    0    0  0.36105145830E+02  0.10238681076E+01 -0.15611865479E+02  0.39349350301E+02  0.10566000000E+00 0.  1.
         23    2    1    0    0    0 -0.10390727616E+02  0.28395692436E+02 -0.46241390788E+01  0.94411354533E+02  0.89318747378E+02 0.  0.
         13    1    3    3    0    0 -0.46495873446E+02  0.27371824328E+02  0.10987726401E+02  0.55062004232E+02  0.10566000000E+00 0. -1.
         22    1    1    0    0    0  0.10390727616E+02 -0.28395692436E+02  0.46241390788E+01  0.30588645467E+02  0.00000000000E+00 0. -1.
</event>
<event>
 5    1  0.1245610E-004  0.9118800E+02  0.7818608E-02  0.1130116E+00
         25   -1    0    0    0    0  0.00000000000E+00  0.00000000000E+00  0.99999998245E-14  0.12500000000E+03  0.12500000000E+03 0.  0.
        -13    1    3    3    0    0 -0.48747627401E+02 -0.32168600951E+02  0.19830978292E+02  0.61680052922E+02  0.10566000000E+00 0. -1.
         23    2    1    0    0    0 -0.19209619205E+02 -0.20299059579E+02  0.58595214488E+01  0.96444872941E+02  0.92120672138E+02 0.  0.
         13    1    3    3    0    0  0.29538008196E+02  0.11869541372E+02 -0.13971456843E+02  0.34764820019E+02  0.10566000000E+00 0.  1.
         22    1    1    0    0    0  0.19209619205E+02  0.20299059579E+02 -0.58595214488E+01  0.28555127059E+02  0.00000000000E+00 0. -1.
</event>
<event>
 5    1  0.1245610E-004  0.9118800E+02  0.7818608E-02  0.1130116E+00
         25   -1    0    0    0    0  0.00000000000E+00  0.00000000000E+00  0.99999998245E-14  0.12500000000E+03  0.12500000000E+03 0.  0.
        -13    1    3    3    0    0 -0.92292799511E+01  0.47364805858E+02  0.35168606080E+02  0.59711359556E+02  0.10566000000E+00 0.  1.
         23    2    1    0    0    0 -0.22458394183E+00  0.27775404929E+02  0.50234313788E+01  0.96773090503E+02  0.92564964353E+02 0.  0.
         13    1    3    3    0    0  0.90046960093E+01 -0.19589400929E+02 -0.30145174701E+02  0.37061730947E+02  0.10566000000E+00 0. -1.
         22    1    1    0    0    0  0.22458394183E+00 -0.27775404929E+02 -0.50234313788E+01  0.28226909497E+02  0.00000000000E+00 0.  1.
</event>
<event>
 5    1  0.1245610E-004  0.9118800E+02  0.7818608E-02  0.1130116E+00
         25   -1    0    0    0    0  0.00000000000E+00  0.00000000000E+00  0.99999998245E-14  0.12500000000E+03  0.12500000000E+03 0.  0.
        -13    1    3    3    0    0 -0.39914693557E+02  0.62521537221E+01  0.32992799305E+02  0.52161366527E+02  0.10566000000E+00 0.  1.
         23    2    1    0    0    0  0.34682255924E+01 -0.42201111151E+01  0.27307951288E+02  0.97151083860E+02  0.93074007999E+02 0.  0.
         13    1    3    3    0    0  0.43382919149E+02 -0.10472264837E+02 -0.56848480165E+01  0.44989717334E+02  0.10566000000E+00 0. -1.
         22    1    1    0    0    0 -0.34682255924E+01  0.42201111151E+01 -0.27307951288E+02  0.27848916140E+02  0.00000000000E+00 0.  1.
</event>
<event>
 5    1  0.1245610E-004  0.9118800E+02  0.7818608E-02  0.1130116E+00
         25   -1    0    0    0    0  0.00000000000E+00  0.00000000000E+00  0.99999998245E-14  0.12500000000E+03  0.12500000000E+03 0.  0.
        -13    1    3    3    0    0  0.87580316618E+01  0.38695470794E+02 -0.43703324373E+02  0.59025708838E+02  0.10566000000E+00 0. -1.
         23    2    1    0    0    0  0.17876164099E+02  0.12853826336E+02 -0.19760787094E+02  0.95415091669E+02  0.90712584118E+02 0.  0.
         13    1    3    3    0    0  0.91181324368E+01 -0.25841644458E+02  0.23942537279E+02  0.36389382831E+02  0.10566000000E+00 0.  1.
         22    1    1    0    0    0 -0.17876164099E+02 -0.12853826336E+02  0.19760787094E+02  0.29584908331E+02  0.00000000000E+00 0. -1.
</event>
<event>
 5    1  0.1245610E-004  0.9118800E+02  0.7818608E-02  0.1130116E+00
         25   -1    0    0    0    0  0.00000000000E+00  0.00000000000E+00  0.99999998245E-14  0.12500000000E+03  0.12500000000E+03 0.  0.
        -13    1    3    3    0    0  0.54058759458E+02  0.16784997031E+02  0.47980189291E+01  0.56807726140E+02  0.10566000000E+00 0.  1.
         23    2    1    0    0    0  0.23311163307E+02  0.15030496437E+02 -0.15046160328E+02  0.93445078063E+02  0.87956065826E+02 0.  0.
         13    1    3    3    0    0 -0.30747596152E+02 -0.17545005941E+01 -0.19844179257E+02  0.36637351922E+02  0.10566000000E+00 0. -1.
         22    1    1    0    0    0 -0.23311163307E+02 -0.15030496437E+02  0.15046160328E+02  0.31554921937E+02  0.00000000000E+00 0.  1.
</event>
<event>
 5    1  0.1245610E-004  0.9118800E+02  0.7818608E-02  0.1130116E+00
         25   -1    0    0    0    0  0.00000000000E+00  0.00000000000E+00  0.99999998245E-14  0.12500000000E+03  0.12500000000E+03 0.  0.
        -13    1    3    3    0    0  0.13074606934E+02  0.19754475401E+02 -0.54913016965E+02  0.59804976725E+02  0.10566000000E+00 0.  1.
         23    2    1    0    0    0 -0.25342455747E+01  0.18337521465E+02 -0.22084195891E+02  0.96183358935E+02  0.91765133541E+02 0.  0.
         13    1    3    3    0    0 -0.15608852509E+02 -0.14169539358E+01  0.32828821074E+02  0.36378382210E+02  0.10566000000E+00 0. -1.
         22    1    1    0    0    0  0.25342455747E+01 -0.18337521465E+02  0.22084195891E+02  0.28816641065E+02  0.00000000000E+00 0.  1.
</event>
<event>
 5    1  0.1245610E-004  0.9118800E+02  0.7818608E-02  0.1130116E+00
         25   -1    0    0    0    0  0.00000000000E+00  0.00000000000E+00  0.99999998245E-14  0.12500000000E+03  0.12500000000E+03 0.  0.
        -13    1    3    3    0    0 -0.13990720579E+02  0.37379632732E+02 -0.20018106645E+02  0.44651013014E+02  0.10566000000E+00 0.  1.
         23    2    1    0    0    0 -0.27773149159E+02 -0.12857518335E+01  0.99450467884E+01  0.95471963702E+02  0.90790918740E+02 0.  0.
         13    1    3    3    0    0 -0.13782428580E+02 -0.38665384566E+02  0.29963153433E+02  0.50820950688E+02  0.10566000000E+00 0. -1.
         22    1    1    0    0    0  0.27773149159E+02  0.12857518335E+01 -0.99450467884E+01  0.29528036298E+02  0.00000000000E+00 0.  1.
</event>
<event>
 5    1  0.1245610E-004  0.9118800E+02  0.7818608E-02  0.1130116E+00
         25   -1    0    0    0    0  0.00000000000E+00  0.00000000000E+00  0.99999998245E-14  0.12500000000E+03  0.12500000000E+03 0.  0.
        -13    1    3    3    0    0 -0.28007158109E+02  0.27701585794E+02  0.92902144997E+00  0.39403718171E+02  0.10566000000E+00 0.  1.
         23    2    1    0    0    0 -0.54569720837E+01 -0.24460810239E+02  0.11859518857E+02  0.97273515019E+02  0.93238290175E+02 0.  0.
         13    1    3    3    0    0  0.22550186025E+02 -0.52162396033E+02  0.10930497407E+02  0.57869796848E+02  0.10566000000E+00 0. -1.
         22    1    1    0    0    0  0.54569720837E+01  0.24460810239E+02 -0.11859518857E+02  0.27726484981E+02  0.00000000000E+00 0. -1.
</event>
<event>
 5    1  0.1245610E-004  0.9118800E+02  0.7818608E-02  0.1130116E+00
         25   -1    0    0    0    0  0.00000000000E+00  0.00000000000E+00  0.99999998245E-14  0.12500000000E+03  0.12500000000E+03 0.  0.
        -13    1    3    3    0    0  0.52412258343E+02 -0.77325859668E+01 -0.19794017739E+02  0.56556626602E+02  0.10566000000E+00 0. -1.
         23    2    1    0    0    0  0.13159725426E+02 -0.17227381942E+02 -0.17730620634E+02  0.96994001179E+02  0.92862803612E+02 0.  0.
         13    1    3    3    0    0 -0.39252532917E+02 -0.94947959757E+01  0.20633971041E+01  0.40437374577E+02  0.10566000000E+00 0.  1.
         22    1    1    0    0    0 -0.13159725426E+02  0.17227381942E+02  0.17730620634E+02  0.28005998821E+02  0.00000000000E+00 0. -1.
</event>
<event>
 5    1  0.1245610E-004  0.9118800E+02  0.7818608E-02  0.1130116E+00
         25   -1    0    0    0    0  0.00000000000E+00  0.00000000000E+00  0.99999998245E-14  0.12500000000E+03  0.12500000000E+03 0.  0.
        -13    1    3    3    0    0 -0.32827369931E+02  0.27890774461E+02 -0.37537830561E+02  0.57136953051E+02  0.10566000000E+00 0. -1.
         23    2    1    0    0    0 -0.16504945758E+02  0.17457996043E+02  0.17193458494E+01  0.10091367586E+03  0.97997035494E+02 0.  0.
         13    1    3    3    0    0  0.16322424173E+02 -0.10432778418E+02  0.39257176411E+02  0.43776722812E+02  0.10566000000E+00 0.  1.
         22    1    1    0    0    0  0.16504945758E+02 -0.17457996043E+02 -0.17193458494E+01  0.24086324137E+02  0.00000000000E+00 0. -1.
</event>
<event>
 5    1  0.1245610E-004  0.9118800E+02  0.7818608E-02  0.1130116E+00
         25   -1    0    0    0    0  0.00000000000E+00  0.00000000000E+00  0.99999998245E-14  0.12500000000E+03  0.12500000000E+03 0.  0.
        -13    1    3    3    0    0  0.32887496561E+02 -0.13995506344E+02  0.39388307824E+02  0.53187513433E+02  0.10566000000E+00 0.  1.
         23    2    1    0    0    0  0.11394029725E+02 -0.27743011112E+02  0.73924340647E+01  0.94110735516E+02  0.88897040890E+02 0.  0.
         13    1    3    3    0    0 -0.21493466836E+02 -0.13747504768E+02 -0.31995873759E+02  0.40923222083E+02  0.10566000000E+00 0. -1.
         22    1    1    0    0    0 -0.11394029725E+02  0.27743011112E+02 -0.73924340647E+01  0.30889264484E+02  0.00000000000E+00 0.  1.
</event>
<event>
 5    1  0.1245610E-004  0.9118800E+02  0.7818608E-02  0.1130116E+00
         25   -1    0    0    0    0  0.00000000000E+00  0.00000000000E+00  0.99999998245E-14  0.12500000000E+03  0.12500000000E+03 0.  0.
        -13    1    3    3    0    0 -0.38453494224E+02 -0.43665982284E+02 -0.11881122865E+02  0.59384858940E+02  0.10566000000E+00 0.  1.
         23    2    1    0    0    0 -0.53835581847E+01 -0.26936343266E+02 -0.51864854396E+01  0.97045592146E+02  0.92932222810E+02 0.  0.
         13    1    3    3    0    0  0.33069936039E+02  0.16729639018E+02  0.66946374250E+01  0.37660733205E+02  0.10566000000E+00 0. -1.
         22    1    1    0    0    0  0.53835581847E+01  0.26936343266E+02  0.51864854396E+01  0.27954407854E+02  0.00000000000E+00 0.  1.
</event>
<event>
 5    1  0.1245610E-004  0.9118800E+02  0.7818608E-02  0.1130116E+00
         25   -1    0    0    0    0  0.00000000000E+00  0.00000000000E+00  0.99999998245E-14  0.12500000000E+03  0.12500000000E+03 0.  0.
        -13    1    3    3    0    0 -0.27913430271E+01  0.39779101619E+02  0.22810792652E+01  0.39942245908E+02  0.10566000000E+00 0. -1.
         23    2    1    0    0    0 -0.25805899688E+01 -0.51648948290E+01 -0.29469275430E+02  0.94970451593E+02  0.90097796301E+02 0.  0.
         13    1    3    3    0    0  0.21075305831E+00 -0.44943996448E+02 -0.31750354695E+02  0.55028205685E+02  0.10566000000E+00 0.  1.
         22    1    1    0    0    0  0.25805899688E+01  0.51648948290E+01  0.29469275430E+02  0.30029548407E+02  0.00000000000E+00 0.  1.
</event>
<event>
 5    1  0.1245610E-004  0.9118800E+02  0.7818608E-02  0.1130116E+00
         25   -1    0    0    0    0  0.00000000000E+00  0.00000000000E+00  0.99999998245E-14  0.12500000000E+03  0.12500000000E+03 0.  0.
        -13    1    3    3    0    0  0.14775833889E+01 -0.17394246333E+02 -0.16179978951E+02  0.23802225549E+02  0.10566000000E+00 0. -1.
         23    2    1    0    0    0  0.41795994468E+01  0.33414573444E+02 -0.33451205370E+02  0.77534371271E+02  0.61307363487E+02 0.  0.
         13    1    3    3    0    0  0.27020160579E+01  0.50808819777E+02 -0.17271226418E+02  0.53732145722E+02  0.10566000000E+00 0.  1.
         22    1    1    0    0    0 -0.41795994468E+01 -0.33414573444E+02  0.33451205370E+02  0.47465628729E+02  0.00000000000E+00 0.  1.
</event>
<event>
 5    1  0.1245610E-004  0.9118800E+02  0.7818608E-02  0.1130116E+00
         25   -1    0    0    0    0  0.00000000000E+00  0.00000000000E+00  0.99999998245E-14  0.12500000000E+03  0.12500000000E+03 0.  0.
        -13    1    3    3    0    0  0.87317326384E+01 -0.35438791899E+01 -0.35930471077E+02  0.37145822786E+02  0.10566000000E+00 0.  1.
         23    2    1    0    0    0  0.31783149206E+01  0.14811871984E+02  0.22067978111E+02  0.98232689801E+02  0.94515461435E+02 0.  0.
         13    1    3    3    0    0 -0.55534177178E+01  0.18355751174E+02  0.57998449187E+02  0.61086867015E+02  0.10566000000E+00 0. -1.
         22    1    1    0    0    0 -0.31783149206E+01 -0.14811871984E+02 -0.22067978111E+02  0.26767310199E+02  0.00000000000E+00 0. -1.
</event>
<event>
 5    1  0.1245610E-004  0.9118800E+02  0.7818608E-02  0.1130116E+00
         25   -1    0    0    0    0  0.00000000000E+00  0.00000000000E+00  0.99999998245E-14  0.12500000000E+03  0.12500000000E+03 0.  0.
        -13    1    3    3    0    0 -0.20332284555E+02  0.16317225552E+02 -0.50430886726E+02  0.56770935742E+02  0.10566000000E+00 0.  1.
         23    2    1    0    0    0  0.73433218009E+01  0.16732404335E+02 -0.20493152618E+02  0.97543360837E+02  0.93599360090E+02 0.  0.
         13    1    3    3    0    0  0.27675606356E+02  0.41517878284E+00  0.29937734108E+02  0.40772425095E+02  0.10566000000E+00 0. -1.
         22    1    1    0    0    0 -0.73433218009E+01 -0.16732404335E+02  0.20493152618E+02  0.27456639163E+02  0.00000000000E+00 0.  1.
</event>
<event>
 5    1  0.1245610E-004  0.9118800E+02  0.7818608E-02  0.1130116E+00
         25   -1    0    0    0    0  0.00000000000E+00  0.00000000000E+00  0.99999998245E-14  0.12500000000E+03  0.12500000000E+03 0.  0.
        -13    1    3    3    0    0  0.49789723209E+01  0.45707347367E+02  0.17596670306E+02  0.49230130394E+02  0.10566000000E+00 0.  1.
         23    2    1    0    0    0  0.30516707377E+01  0.13743372213E+02 -0.21210057804E+02  0.99542986700E+02  0.96232773394E+02 0.  0.
         13    1    3    3    0    0 -0.19273015832E+01 -0.31963975154E+02 -0.38806728110E+02  0.50312856306E+02  0.10566000000E+00 0. -1.
         22    1    1    0    0    0 -0.30516707377E+01 -0.13743372213E+02  0.21210057804E+02  0.25457013300E+02  0.00000000000E+00 0.  1.
</event>
<event>
 5    1  0.1245610E-004  0.9118800E+02  0.7818608E-02  0.1130116E+00
         25   -1    0    0    0    0  0.00000000000E+00  0.00000000000E+00  0.99999998245E-14  0.12500000000E+03  0.12500000000E+03 0.  0.
        -13    1    3    3    0    0  0.31045302237E+02  0.39569453368E+02  0.30693378382E+02  0.58920684580E+02  0.10566000000E+00 0.  1.
         23    2    1    0    0    0  0.85695401703E+01  0.27835800536E+02  0.42307918587E+01  0.95569260798E+02  0.90924777698E+02 0.  0.
         13    1    3    3    0    0 -0.22475762066E+02 -0.11733652832E+02 -0.26462586524E+02  0.36648576218E+02  0.10566000000E+00 0. -1.
         22    1    1    0    0    0 -0.85695401703E+01 -0.27835800536E+02 -0.42307918587E+01  0.29430739202E+02  0.00000000000E+00 0.  1.
</event>
<event>
 5    1  0.1245610E-004  0.9118800E+02  0.7818608E-02  0.1130116E+00
         25   -1    0    0    0    0  0.00000000000E+00  0.00000000000E+00  0.99999998245E-14  0.12500000000E+03  0.12500000000E+03 0.  0.
        -13    1    3    3    0    0  0.41749382353E+02  0.41368136680E+02  0.11429312629E+02  0.59874652487E+02  0.10566000000E+00 0. -1.
         23    2    1    0    0    0  0.18243282283E+02  0.26194446761E+02 -0.55467576454E+01  0.92600418059E+02  0.86747360275E+02 0.  0.
         13    1    3    3    0    0 -0.23506100070E+02 -0.15173689919E+02 -0.16976070274E+02  0.32725765572E+02  0.10566000000E+00 0.  1.
         22    1    1    0    0    0 -0.18243282283E+02 -0.26194446761E+02  0.55467576454E+01  0.32399581941E+02  0.00000000000E+00 0. -1.
</event>
<event>
 5    1  0.1245610E-004  0.9118800E+02  0.7818608E-02  0.1130116E+00
         25   -1    0    0    0    0  0.00000000000E+00  0.00000000000E+00  0.99999998245E-14  0.12500000000E+03  0.12500000000E+03 0.  0.
        -13    1    3    3    0    0 -0.42657441594E+02 -0.40514998895E+02  0.15223440461E+02  0.60769126720E+02  0.10566000000E+00 0. -1.
         23    2    1    0    0    0 -0.23691137004E+02 -0.88193139759E+01  0.86163401748E+01  0.98292480655E+02  0.94594503877E+02 0.  0.
         13    1    3    3    0    0  0.18966304590E+02  0.31695684919E+02 -0.66071002863E+01  0.37523353935E+02  0.10566000000E+00 0.  1.
         22    1    1    0    0    0  0.23691137004E+02  0.88193139759E+01 -0.86163401748E+01  0.26707519345E+02  0.00000000000E+00 0. -1.
</event>
<event>
 5    1  0.1245610E-004  0.9118800E+02  0.7818608E-02  0.1130116E+00
         25   -1    0    0    0    0  0.00000000000E+00  0.00000000000E+00  0.99999998245E-14  0.12500000000E+03  0.12500000000E+03 0.  0.
        -13    1    3    3    0    0  0.30480194105E+02  0.15029130632E+02 -0.25842370433E+01  0.34082348002E+02  0.10566000000E+00 0. -1.
         23    2    1    0    0    0 -0.25998046913E+02 -0.10089978094E+02  0.59610765556E+01  0.96482627489E+02  0.92171887647E+02 0.  0.
         13    1    3    3    0    0 -0.56478241017E+02 -0.25119108725E+02  0.85453135989E+01  0.62400279487E+02  0.10566000000E+00 0.  1.
         22    1    1    0    0    0  0.25998046913E+02  0.10089978094E+02 -0.59610765556E+01  0.28517372511E+02  0.00000000000E+00 0.  1.
</event>
<event>
 5    1  0.1245610E-004  0.9118800E+02  0.7818608E-02  0.1130116E+00
         25   -1    0    0    0    0  0.00000000000E+00  0.00000000000E+00  0.99999998245E-14  0.12500000000E+03  0.12500000000E+03 0.  0.
        -13    1    3    3    0    0 -0.12841801032E+01  0.32709391451E+02 -0.13283025081E+02  0.35327090553E+02  0.10566000000E+00 0.  1.
         23    2    1    0    0    0  0.13920767626E+02 -0.13856955784E+02  0.21857470010E+02  0.95613744877E+02  0.90985912202E+02 0.  0.
         13    1    3    3    0    0  0.15204947730E+02 -0.46566347235E+02  0.35140495091E+02  0.60286654324E+02  0.10566000000E+00 0. -1.
         22    1    1    0    0    0 -0.13920767626E+02  0.13856955784E+02 -0.21857470010E+02  0.29386255123E+02  0.00000000000E+00 0. -1.
</event>
<event>
 5    1  0.1245610E-004  0.9118800E+02  0.7818608E-02  0.1130116E+00
         25   -1    0    0    0    0  0.00000000000E+00  0.00000000000E+00  0.99999998245E-14  0.12500000000E+03  0.12500000000E+03 0.  0.
        -13    1    3    3    0    0 -0.31260473785E+01 -0.13398217838E+02 -0.41653162949E+02  0.43866633803E+02  0.10566000000E+00 0. -1.
         23    2    1    0    0    0 -0.99185988714E+01  0.25829747196E+02 -0.74686327903E+01  0.96341058646E+02  0.91979697007E+02 0.  0.
         13    1    3    3    0    0 -0.67925514929E+01  0.39227965034E+02  0.34184530159E+02  0.52474424844E+02  0.10566000000E+00 0.  1.
         22    1    1    0    0    0  0.99185988714E+01 -0.25829747196E+02  0.74686327903E+01  0.28658941354E+02  0.00000000000E+00 0.  1.
</event>
<event>
 5    1  0.1245610E-004  0.9118800E+02  0.7818608E-02  0.1130116E+00
         25   -1    0    0    0    0  0.00000000000E+00  0.00000000000E+00  0.99999998245E-14  0.12500000000E+03  0.12500000000E+03 0.  0.
        -13    1    3    3    0    0  0.75949731455E+01  0.40445630980E+02  0.18449523743E+02  0.45099099468E+02  0.10566000000E+00 0. -1.
         23    2    1    0    0    0  0.33166044943E+02  0.50599672216E+01  0.34000594204E+01  0.91278342130E+02  0.84820902686E+02 0.  0.
         13    1    3    3    0    0  0.25571071797E+02 -0.35385663758E+02 -0.15049464322E+02  0.46179242663E+02  0.10566000000E+00 0.  1.
         22    1    1    0    0    0 -0.33166044943E+02 -0.50599672216E+01 -0.34000594204E+01  0.33721657870E+02  0.00000000000E+00 0.  1.
</event>
<event>
 5    1  0.1245610E-004  0.9118800E+02  0.7818608E-02  0.1130116E+00
         25   -1    0    0    0    0  0.00000000000E+00  0.00000000000E+00  0.99999998245E-14  0.12500000000E+03  0.12500000000E+03 0.  0.
        -13    1    3    3    0    0 -0.47337651014E+02  0.34921096382E+02  0.11706173198E+02  0.59978177957E+02  0.10566000000E+00 0.  1.
         23    2    1    0    0    0 -0.27580474638E+02  0.92982780352E+01 -0.34184068972E+01  0.95694265725E+02  0.91096467721E+02 0.  0.
         13    1    3    3    0    0  0.19757176375E+02 -0.25622818347E+02 -0.15124580096E+02  0.35716087768E+02  0.10566000000E+00 0. -1.
         22    1    1    0    0    0  0.27580474638E+02 -0.92982780352E+01  0.34184068972E+01  0.29305734275E+02  0.00000000000E+00 0.  1.
</event>
<event>
 5    1  0.1245610E-004  0.9118800E+02  0.7818608E-02  0.1130116E+00
         25   -1    0    0    0    0  0.00000000000E+00  0.00000000000E+00  0.99999998245E-14  0.12500000000E+03  0.12500000000E+03 0.  0.
        -13    1    3    3    0    0  0.28732003290E+01  0.25264595282E+02  0.41031489275E+02  0.48271620349E+02  0.10566000000E+00 0.  1.
         23    2    1    0    0    0 -0.17717548514E+02  0.23192735726E+02 -0.17145773240E+01  0.95763818799E+02  0.91191856544E+02 0.  0.
         13    1    3    3    0    0 -0.20590748843E+02 -0.20718595560E+01 -0.42746066599E+02  0.47492198451E+02  0.10566000000E+00 0. -1.
         22    1    1    0    0    0  0.17717548514E+02 -0.23192735726E+02  0.17145773240E+01  0.29236181201E+02  0.00000000000E+00 0.  1.
</event>
<event>
 5    1  0.1245610E-004  0.9118800E+02  0.7818608E-02  0.1130116E+00
         25   -1    0    0    0    0  0.00000000000E+00  0.00000000000E+00  0.99999998245E-14  0.12500000000E+03  0.12500000000E+03 0.  0.
        -13    1    3    3    0    0  0.23331817545E+02 -0.39235853949E+02  0.18317343215E+02  0.49187012224E+02  0.10566000000E+00 0. -1.
         23    2    1    0    0    0  0.20736177965E+02 -0.11358742875E+02 -0.18172015537E+02  0.95180002264E+02  0.90388055439E+02 0.  0.
         13    1    3    3    0    0 -0.25956395802E+01  0.27877111075E+02 -0.36489358751E+02  0.45992990040E+02  0.10566000000E+00 0.  1.
         22    1    1    0    0    0 -0.20736177965E+02  0.11358742875E+02  0.18172015537E+02  0.29819997736E+02  0.00000000000E+00 0. -1.
</event>
<event>
 5    1  0.1245610E-004  0.9118800E+02  0.7818608E-02  0.1130116E+00
         25   -1    0    0    0    0  0.00000000000E+00  0.00000000000E+00  0.99999998245E-14  0.12500000000E+03  0.12500000000E+03 0.  0.
        -13    1    3    3    0    0 -0.27767057683E+02  0.26143690803E+02 -0.57126543505E+01  0.38563553323E+02  0.10566000000E+00 0.  1.
         23    2    1    0    0    0 -0.57444812607E+01 -0.27462108758E+02 -0.48763270662E+01  0.96522903097E+02  0.92226491716E+02 0.  0.
         13    1    3    3    0    0  0.22022576422E+02 -0.53605799560E+02  0.83632728427E+00  0.57959349773E+02  0.10566000000E+00 0. -1.
         22    1    1    0    0    0  0.57444812607E+01  0.27462108758E+02  0.48763270662E+01  0.28477096903E+02  0.00000000000E+00 0. -1.
</event>
<event>
 5    1  0.1245610E-004  0.9118800E+02  0.7818608E-02  0.1130116E+00
         25   -1    0    0    0    0  0.00000000000E+00  0.00000000000E+00  0.99999998245E-14  0.12500000000E+03  0.12500000000E+03 0.  0.
        -13    1    3    3    0    0 -0.21039255833E+02  0.13655030131E+01  0.37247103353E+02  0.42800382670E+02  0.10566000000E+00 0.  1.
         23    2    1    0    0    0 -0.65648955460E+01  0.21572605740E+02 -0.13080323318E+02  0.98931435981E+02  0.95435103579E+02 0.  0.
         13    1    3    3    0    0  0.14474360287E+02  0.20207102727E+02 -0.50327426671E+02  0.56131053310E+02  0.10566000000E+00 0. -1.
         22    1    1    0    0    0  0.65648955460E+01 -0.21572605740E+02  0.13080323318E+02  0.26068564019E+02  0.00000000000E+00 0. -1.
</event>
<event>
 5    1  0.1245610E-004  0.9118800E+02  0.7818608E-02  0.1130116E+00
         25   -1    0    0    0    0  0.00000000000E+00  0.00000000000E+00  0.99999998245E-14  0.12500000000E+03  0.12500000000E+03 0.  0.
        -13    1    3    3    0    0  0.37538724996E+02  0.41275665893E+02 -0.24331201577E+02  0.60867520103E+02  0.10566000000E+00 0.  1.
         23    2    1    0    0    0  0.91111561655E+01  0.24864341812E+02 -0.98218219107E+01  0.96756118432E+02  0.92542042380E+02 0.  0.
         13    1    3    3    0    0 -0.28427568830E+02 -0.16411324082E+02  0.14509379666E+02  0.35888598329E+02  0.10566000000E+00 0. -1.
         22    1    1    0    0    0 -0.91111561655E+01 -0.24864341812E+02  0.98218219107E+01  0.28243881568E+02  0.00000000000E+00 0.  1.
</event>
<event>
 5    1  0.1245610E-004  0.9118800E+02  0.7818608E-02  0.1130116E+00
         25   -1    0    0    0    0  0.00000000000E+00  0.00000000000E+00  0.99999998245E-14  0.12500000000E+03  0.12500000000E+03 0.  0.
        -13    1    3    3    0    0 -0.56794754010E+02  0.53478282355E+01  0.81386936027E+01  0.57623717751E+02  0.10566000000E+00 0.  1.
         23    2    1    0    0    0 -0.22657030010E+02 -0.83523207059E+01 -0.10272395992E+02  0.98758346289E+02  0.95208122407E+02 0.  0.
         13    1    3    3    0    0  0.34137723999E+02 -0.13700148941E+02 -0.18411089595E+02  0.41134628538E+02  0.10566000000E+00 0. -1.
         22    1    1    0    0    0  0.22657030010E+02  0.83523207059E+01  0.10272395992E+02  0.26241653711E+02  0.00000000000E+00 0.  1.
</event>
<event>
 5    1  0.1245610E-004  0.9118800E+02  0.7818608E-02  0.1130116E+00
         25   -1    0    0    0    0  0.00000000000E+00  0.00000000000E+00  0.99999998245E-14  0.12500000000E+03  0.12500000000E+03 0.  0.
        -13    1    3    3    0    0 -0.16265994085E+02 -0.21366064850E+02 -0.32212806825E+02  0.41937660620E+02  0.10566000000E+00 0. -1.
         23    2    1    0    0    0  0.27887551593E+02 -0.50061283783E+01 -0.52934675565E+01  0.96176439256E+02  0.91755707256E+02 0.  0.
         13    1    3    3    0    0  0.44153545677E+02  0.16359936472E+02  0.26919339268E+02  0.54238778636E+02  0.10566000000E+00 0.  1.
         22    1    1    0    0    0 -0.27887551593E+02  0.50061283783E+01  0.52934675565E+01  0.28823560744E+02  0.00000000000E+00 0.  1.
</event>
<event>
 5    1  0.1245610E-004  0.9118800E+02  0.7818608E-02  0.1130116E+00
         25   -1    0    0    0    0  0.00000000000E+00  0.00000000000E+00  0.99999998245E-14  0.12500000000E+03  0.12500000000E+03 0.  0.
        -13    1    3    3    0    0 -0.68703565293E+01 -0.22818960731E+02  0.57383320680E+02  0.62135041837E+02  0.10566000000E+00 0. -1.
         23    2    1    0    0    0 -0.74052427944E+01 -0.84416457479E+01  0.27248056157E+02  0.95528733177E+02  0.90869044753E+02 0.  0.
         13    1    3    3    0    0 -0.53488626514E+00  0.14377314984E+02 -0.30135264523E+02  0.33393691341E+02  0.10566000000E+00 0.  1.
         22    1    1    0    0    0  0.74052427944E+01  0.84416457479E+01 -0.27248056157E+02  0.29471266823E+02  0.00000000000E+00 0. -1.
</event>
<event>
 5    1  0.1245610E-004  0.9118800E+02  0.7818608E-02  0.1130116E+00
         25   -1    0    0    0    0  0.00000000000E+00  0.00000000000E+00  0.99999998245E-14  0.12500000000E+03  0.12500000000E+03 0.  0.
        -13    1    3    3    0    0  0.17315024487E+02  0.52878389208E+01 -0.33469558969E+02  0.38052514438E+02  0.10566000000E+00 0.  1.
         23    2    1    0    0    0  0.10182178068E+02 -0.19897945082E+02  0.18331879119E+02  0.96092167831E+02  0.91640831280E+02 0.  0.
         13    1    3    3    0    0 -0.71328464191E+01 -0.25185784003E+02  0.51801438088E+02  0.58039653392E+02  0.10566000000E+00 0. -1.
         22    1    1    0    0    0 -0.10182178068E+02  0.19897945082E+02 -0.18331879119E+02  0.28907832169E+02  0.00000000000E+00 0. -1.
</event>
<event>
 5    1  0.1245610E-004  0.9118800E+02  0.7818608E-02  0.1130116E+00
         25   -1    0    0    0    0  0.00000000000E+00  0.00000000000E+00  0.99999998245E-14  0.12500000000E+03  0.12500000000E+03 0.  0.
        -13    1    3    3    0    0 -0.19223862569E+02 -0.44112656261E+02  0.45191199236E+01  0.48331324660E+02  0.10566000000E+00 0.  1.
         23    2    1    0    0    0 -0.33070362294E+02 -0.34295979105E+01  0.54071042105E+01  0.91315466754E+02  0.84875595364E+02 0.  0.
         13    1    3    3    0    0 -0.13846499725E+02  0.40683058351E+02  0.88798428690E+00  0.42984142093E+02  0.10566000000E+00 0. -1.
         22    1    1    0    0    0  0.33070362294E+02  0.34295979105E+01 -0.54071042105E+01  0.33684533246E+02  0.00000000000E+00 0. -1.
</event>
<event>
 5    1  0.1245610E-004  0.9118800E+02  0.7818608E-02  0.1130116E+00
         25   -1    0    0    0    0  0.00000000000E+00  0.00000000000E+00  0.99999998245E-14  0.12500000000E+03  0.12500000000E+03 0.  0.
        -13    1    3    3    0    0 -0.90240933224E+01 -0.27304537481E+02  0.45211913987E+02  0.53582649783E+02  0.10566000000E+00 0. -1.
         23    2    1    0    0    0  0.84577736196E+01  0.60925496336E+01  0.28191611626E+02  0.94943053021E+02  0.90059776011E+02 0.  0.
         13    1    3    3    0    0  0.17481866942E+02  0.33397087114E+02 -0.17020302361E+02  0.41360403238E+02  0.10566000000E+00 0.  1.
         22    1    1    0    0    0 -0.84577736196E+01 -0.60925496336E+01 -0.28191611626E+02  0.30056946979E+02  0.00000000000E+00 0. -1.
</event>
<event>
 5    1  0.1245610E-004  0.9118800E+02  0.7818608E-02  0.1130116E+00
         25   -1    0    0    0    0  0.00000000000E+00  0.00000000000E+00  0.99999998245E-14  0.12500000000E+03  0.12500000000E+03 0.  0.
        -13    1    3    3    0    0 -0.17261361814E+02  0.29453950299E+02  0.63943915776E+01  0.34733113992E+02  0.10566000000E+00 0.  1.
         23    2    1    0    0    0  0.20778599846E+02 -0.10984981203E+02 -0.18020349948E+02  0.95383230496E+02  0.90668669473E+02 0.  0.
         13    1    3    3    0    0  0.38039961660E+02 -0.40438931502E+02 -0.24414741526E+02  0.60650116504E+02  0.10566000000E+00 0. -1.
         22    1    1    0    0    0 -0.20778599846E+02  0.10984981203E+02  0.18020349948E+02  0.29616769504E+02  0.00000000000E+00 0. -1.
</event>
<event>
 5    1  0.1245610E-004  0.9118800E+02  0.7818608E-02  0.1130116E+00
         25   -1    0    0    0    0  0.00000000000E+00  0.00000000000E+00  0.99999998245E-14  0.12500000000E+03  0.12500000000E+03 0.  0.
        -13    1    3    3    0    0 -0.59542536286E+01 -0.96089776113E+01 -0.37644626702E+02  0.39305402562E+02  0.10566000000E+00 0.  1.
         23    2    1    0    0    0 -0.40933113492E+01  0.28526486625E+02  0.41155226208E+01  0.95888951180E+02  0.91363219049E+02 0.  0.
         13    1    3    3    0    0  0.18609422794E+01  0.38135464236E+02  0.41760149323E+02  0.56583548618E+02  0.10566000000E+00 0. -1.
         22    1    1    0    0    0  0.40933113492E+01 -0.28526486625E+02 -0.41155226208E+01  0.29111048820E+02  0.00000000000E+00 0. -1.
</event>
<event>
 5    1  0.1245610E-004  0.9118800E+02  0.7818608E-02  0.1130116E+00
         25   -1    0    0    0    0  0.00000000000E+00  0.00000000000E+00  0.99999998245E-14  0.12500000000E+03  0.12500000000E+03 0.  0.
        -13    1    3    3    0    0 -0.46192585516E+02 -0.23972870492E+02  0.15336992873E+02  0.54255764586E+02  0.10566000000E+00 0.  1.
         23    2    1    0    0    0 -0.18722763646E+02 -0.17052791908E+02 -0.14841377847E+02  0.95646872623E+02  0.91031413017E+02 0.  0.
         13    1    3    3    0    0  0.27469821870E+02  0.69200785845E+01 -0.30178370720E+02  0.41391108038E+02  0.10566000000E+00 0. -1.
         22    1    1    0    0    0  0.18722763646E+02  0.17052791908E+02  0.14841377847E+02  0.29353127377E+02  0.00000000000E+00 0.  1.
</event>
<event>
 5    1  0.1245610E-004  0.9118800E+02  0.7818608E-02  0.1130116E+00
         25   -1    0    0    0    0  0.00000000000E+00  0.00000000000E+00  0.99999998245E-14  0.12500000000E+03  0.12500000000E+03 0.  0.
        -13    1    3    3    0    0 -0.28230616884E+02 -0.44992242047E+02  0.21346276604E+02  0.57244600295E+02  0.10566000000E+00 0.  1.
         23    2    1    0    0    0 -0.93109896438E+01 -0.12897415758E+02  0.25721544046E+02  0.94757055542E+02  0.89801246570E+02 0.  0.
         13    1    3    3    0    0  0.18919627241E+02  0.32094826289E+02  0.43752674422E+01  0.37512455247E+02  0.10566000000E+00 0. -1.
         22    1    1    0    0    0  0.93109896438E+01  0.12897415758E+02 -0.25721544046E+02  0.30242944458E+02  0.00000000000E+00 0.  1.
</event>
<event>
 5    1  0.1245610E-004  0.9118800E+02  0.7818608E-02  0.1130116E+00
         25   -1    0    0    0    0  0.00000000000E+00  0.00000000000E+00  0.99999998245E-14  0.12500000000E+03  0.12500000000E+03 0.  0.
        -13    1    3    3    0    0 -0.45013340355E+02  0.12132408311E+02  0.13161707111E+02  0.48442108124E+02  0.10566000000E+00 0.  1.
         23    2    1    0    0    0 -0.33104602517E+02 -0.40627634098E+00 -0.20340131699E+02  0.86143845716E+02  0.76882777193E+02 0.  0.
         13    1    3    3    0    0  0.11908737839E+02 -0.12538684652E+02 -0.33501838810E+02  0.37701737591E+02  0.10566000000E+00 0. -1.
         22    1    1    0    0    0  0.33104602517E+02  0.40627634098E+00  0.20340131699E+02  0.38856154284E+02  0.00000000000E+00 0. -1.
</event>
<event>
 5    1  0.1245610E-004  0.9118800E+02  0.7818608E-02  0.1130116E+00
         25   -1    0    0    0    0  0.00000000000E+00  0.00000000000E+00  0.99999998245E-14  0.12500000000E+03  0.12500000000E+03 0.  0.
        -13    1    3    3    0    0  0.41975869340E+02  0.69127510628E+01  0.40944497228E+02  0.59044244016E+02  0.10566000000E+00 0. -1.
         23    2    1    0    0    0  0.20258278125E+02  0.16742407487E+02  0.13308915096E+02  0.95540990137E+02  0.90885903936E+02 0.  0.
         13    1    3    3    0    0 -0.21717591216E+02  0.98296564245E+01 -0.27635582132E+02  0.36496746121E+02  0.10566000000E+00 0.  1.
         22    1    1    0    0    0 -0.20258278125E+02 -0.16742407487E+02 -0.13308915096E+02  0.29459009863E+02  0.00000000000E+00 0. -1.
</event>
<event>
 5    1  0.1245610E-004  0.9118800E+02  0.7818608E-02  0.1130116E+00
         25   -1    0    0    0    0  0.00000000000E+00  0.00000000000E+00  0.99999998245E-14  0.12500000000E+03  0.12500000000E+03 0.  0.
        -13    1    3    3    0    0 -0.20636212216E+02  0.22540644745E+02 -0.22395232435E+02  0.37887880911E+02  0.10566000000E+00 0. -1.
         23    2    1    0    0    0  0.64518423907E+01 -0.25397615049E+02  0.31866558253E+01  0.98602653623E+02  0.95003491545E+02 0.  0.
         13    1    3    3    0    0  0.27088054606E+02 -0.47938259794E+02  0.25581888260E+02  0.60714772711E+02  0.10566000000E+00 0.  1.
         22    1    1    0    0    0 -0.64518423907E+01  0.25397615049E+02 -0.31866558253E+01  0.26397346377E+02  0.00000000000E+00 0.  1.
</event>
<event>
 5    1  0.1245610E-004  0.9118800E+02  0.7818608E-02  0.1130116E+00
         25   -1    0    0    0    0  0.00000000000E+00  0.00000000000E+00  0.99999998245E-14  0.12500000000E+03  0.12500000000E+03 0.  0.
        -13    1    3    3    0    0  0.78492015427E+01 -0.22850350544E+02 -0.38106651067E+02  0.45120688209E+02  0.10566000000E+00 0. -1.
         23    2    1    0    0    0 -0.32408463314E+01  0.20603533865E+02 -0.26182394454E+02  0.91525734183E+02  0.85184702533E+02 0.  0.
         13    1    3    3    0    0 -0.11090047874E+02  0.43453884408E+02  0.11924256613E+02  0.46405045974E+02  0.10566000000E+00 0.  1.
         22    1    1    0    0    0  0.32408463314E+01 -0.20603533865E+02  0.26182394454E+02  0.33474265817E+02  0.00000000000E+00 0.  1.
</event>
<event>
 5    1  0.1245610E-004  0.9118800E+02  0.7818608E-02  0.1130116E+00
         25   -1    0    0    0    0  0.00000000000E+00  0.00000000000E+00  0.99999998245E-14  0.12500000000E+03  0.12500000000E+03 0.  0.
        -13    1    3    3    0    0  0.38234096636E+02 -0.63869182250E+01  0.28646969262E+02  0.48200610805E+02  0.10566000000E+00 0.  1.
         23    2    1    0    0    0  0.23028433411E+02  0.11651654702E+02 -0.13027681387E+02  0.96089962211E+02  0.91637822719E+02 0.  0.
         13    1    3    3    0    0 -0.15205663225E+02  0.18038572927E+02 -0.41674650649E+02  0.47889351406E+02  0.10566000000E+00 0. -1.
         22    1    1    0    0    0 -0.23028433411E+02 -0.11651654702E+02  0.13027681387E+02  0.28910037789E+02  0.00000000000E+00 0. -1.
</event>
<event>
 5    1  0.1245610E-004  0.9118800E+02  0.7818608E-02  0.1130116E+00
         25   -1    0    0    0    0  0.00000000000E+00  0.00000000000E+00  0.99999998245E-14  0.12500000000E+03  0.12500000000E+03 0.  0.
        -13    1    3    3    0    0 -0.25906366248E+02 -0.10055883347E+02  0.15919238890E+02  0.32026456765E+02  0.10566000000E+00 0.  1.
         23    2    1    0    0    0  0.19963694866E+02 -0.30544277461E+02 -0.79620875118E+01  0.87651682289E+02  0.79296409580E+02 0.  0.
         13    1    3    3    0    0  0.45870061113E+02 -0.20488394114E+02 -0.23881326401E+02  0.55625225524E+02  0.10566000000E+00 0. -1.
         22    1    1    0    0    0 -0.19963694866E+02  0.30544277461E+02  0.79620875118E+01  0.37348317711E+02  0.00000000000E+00 0. -1.
</event>
<event>
 5    1  0.1245610E-004  0.9118800E+02  0.7818608E-02  0.1130116E+00
         25   -1    0    0    0    0  0.00000000000E+00  0.00000000000E+00  0.99999998245E-14  0.12500000000E+03  0.12500000000E+03 0.  0.
        -13    1    3    3    0    0 -0.29176989551E+02  0.27996422473E+02 -0.24715114515E+02  0.47391396267E+02  0.10566000000E+00 0. -1.
         23    2    1    0    0    0 -0.26146451051E+02  0.29948497980E+01  0.15215424297E+02  0.94600737436E+02  0.89583393322E+02 0.  0.
         13    1    3    3    0    0  0.30305385004E+01 -0.25001572675E+02  0.39930538812E+02  0.47209341170E+02  0.10566000000E+00 0.  1.
         22    1    1    0    0    0  0.26146451051E+02 -0.29948497980E+01 -0.15215424297E+02  0.30399262564E+02  0.00000000000E+00 0.  1.
</event>
<event>
 5    1  0.1245610E-004  0.9118800E+02  0.7818608E-02  0.1130116E+00
         25   -1    0    0    0    0  0.00000000000E+00  0.00000000000E+00  0.99999998245E-14  0.12500000000E+03  0.12500000000E+03 0.  0.
        -13    1    3    3    0    0 -0.46833771135E+02 -0.39111939354E+02  0.56968110756E+00  0.61020337752E+02  0.10566000000E+00 0. -1.
         23    2    1    0    0    0 -0.23529499315E+02 -0.16870465635E+02  0.96352596875E+01  0.94486262471E+02  0.89423518259E+02 0.  0.
         13    1    3    3    0    0  0.23304271820E+02  0.22241473719E+02  0.90655785800E+01  0.33465924719E+02  0.10566000000E+00 0.  1.
         22    1    1    0    0    0  0.23529499315E+02  0.16870465635E+02 -0.96352596875E+01  0.30513737529E+02  0.00000000000E+00 0. -1.
</event>
<event>
 5    1  0.1245610E-004  0.9118800E+02  0.7818608E-02  0.1130116E+00
         25   -1    0    0    0    0  0.00000000000E+00  0.00000000000E+00  0.99999998245E-14  0.12500000000E+03  0.12500000000E+03 0.  0.
        -13    1    3    3    0    0 -0.95571323477E+01 -0.16168968207E+02  0.90983069446E+01  0.20870186029E+02  0.10566000000E+00 0.  1.
         23    2    1    0    0    0 -0.81136350893E+01  0.28299282312E+02 -0.32055804191E+02  0.81476959710E+02  0.68878443127E+02 0.  0.
         13    1    3    3    0    0  0.14434972584E+01  0.44468250520E+02 -0.41154111136E+02  0.60606773681E+02  0.10566000000E+00 0. -1.
         22    1    1    0    0    0  0.81136350893E+01 -0.28299282312E+02  0.32055804191E+02  0.43523040290E+02  0.00000000000E+00 0. -1.
</event>
<event>
 5    1  0.1245610E-004  0.9118800E+02  0.7818608E-02  0.1130116E+00
         25   -1    0    0    0    0  0.00000000000E+00  0.00000000000E+00  0.99999998245E-14  0.12500000000E+03  0.12500000000E+03 0.  0.
        -13    1    3    3    0    0  0.17505131098E+01  0.22544631034E+02 -0.48882441216E+02  0.53859343738E+02  0.10566000000E+00 0. -1.
         23    2    1    0    0    0 -0.18461663008E+02  0.15739447583E+02 -0.89291310260E+01  0.99148644288E+02  0.95719178183E+02 0.  0.
         13    1    3    3    0    0 -0.20212176118E+02 -0.68051834507E+01  0.39953310190E+02  0.45289300551E+02  0.10566000000E+00 0.  1.
         22    1    1    0    0    0  0.18461663008E+02 -0.15739447583E+02  0.89291310260E+01  0.25851355712E+02  0.00000000000E+00 0. -1.
</event>
<event>
 5    1  0.1245610E-004  0.9118800E+02  0.7818608E-02  0.1130116E+00
         25   -1    0    0    0    0  0.00000000000E+00  0.00000000000E+00  0.99999998245E-14  0.12500000000E+03  0.12500000000E+03 0.  0.
        -13    1    3    3    0    0 -0.44329361384E+02 -0.22786355933E+02 -0.70345187517E+01  0.50336923978E+02  0.10566000000E+00 0. -1.
         23    2    1    0    0    0 -0.94928551122E+01 -0.24063346631E+01 -0.27656910381E+02  0.95660445871E+02  0.91050049246E+02 0.  0.
         13    1    3    3    0    0  0.34836506272E+02  0.20380021270E+02 -0.20622391629E+02  0.45323521893E+02  0.10566000000E+00 0.  1.
         22    1    1    0    0    0  0.94928551122E+01  0.24063346631E+01  0.27656910381E+02  0.29339554129E+02  0.00000000000E+00 0. -1.
</event>
<event>
 5    1  0.1245610E-004  0.9118800E+02  0.7818608E-02  0.1130116E+00
         25   -1    0    0    0    0  0.00000000000E+00  0.00000000000E+00  0.99999998245E-14  0.12500000000E+03  0.12500000000E+03 0.  0.
        -13    1    3    3    0    0 -0.66230510782E+00 -0.36470375260E+01  0.41877607667E+02  0.42041464279E+02  0.10566000000E+00 0.  1.
         23    2    1    0    0    0  0.19833113389E+02 -0.22399810111E+02 -0.31156314063E+01  0.94919922893E+02  0.90027666432E+02 0.  0.
         13    1    3    3    0    0  0.20495418497E+02 -0.18752772585E+02 -0.44993239073E+02  0.52878458614E+02  0.10566000000E+00 0. -1.
         22    1    1    0    0    0 -0.19833113389E+02  0.22399810111E+02  0.31156314063E+01  0.30080077107E+02  0.00000000000E+00 0. -1.
</event>
<event>
 5    1  0.1245610E-004  0.9118800E+02  0.7818608E-02  0.1130116E+00
         25   -1    0    0    0    0  0.00000000000E+00  0.00000000000E+00  0.99999998245E-14  0.12500000000E+03  0.12500000000E+03 0.  0.
        -13    1    3    3    0    0  0.36008882723E+01  0.37120030823E+02 -0.42311423678E+00  0.37296826599E+02  0.10566000000E+00 0.  1.
         23    2    1    0    0    0 -0.20502472200E+02 -0.12074083358E+02  0.18077287510E+02  0.95118179791E+02  0.90302519056E+02 0.  0.
         13    1    3    3    0    0 -0.24103360473E+02 -0.49194114182E+02  0.18500401746E+02  0.57821353192E+02  0.10566000000E+00 0. -1.
         22    1    1    0    0    0  0.20502472200E+02  0.12074083358E+02 -0.18077287510E+02  0.29881820209E+02  0.00000000000E+00 0. -1.
</event>
<event>
 5    1  0.1245610E-004  0.9118800E+02  0.7818608E-02  0.1130116E+00
         25   -1    0    0    0    0  0.00000000000E+00  0.00000000000E+00  0.99999998245E-14  0.12500000000E+03  0.12500000000E+03 0.  0.
        -13    1    3    3    0    0  0.35415380059E+02 -0.21379730546E+02  0.27632612603E+00  0.41369427638E+02  0.10566000000E+00 0. -1.
         23    2    1    0    0    0 -0.14652663124E+02 -0.13830328309E+02 -0.20641994706E+02  0.96154368386E+02  0.91725634893E+02 0.  0.
         13    1    3    3    0    0 -0.50068043182E+02  0.75494022371E+01 -0.20918320832E+02  0.54784940748E+02  0.10566000000E+00 0.  1.
         22    1    1    0    0    0  0.14652663124E+02  0.13830328309E+02  0.20641994706E+02  0.28845631614E+02  0.00000000000E+00 0.  1.
</event>
<event>
 5    1  0.1245610E-004  0.9118800E+02  0.7818608E-02  0.1130116E+00
         25   -1    0    0    0    0  0.00000000000E+00  0.00000000000E+00  0.99999998245E-14  0.12500000000E+03  0.12500000000E+03 0.  0.
        -13    1    3    3    0    0  0.76305679391E+01  0.37462343746E+02  0.90738168217E+00  0.38242479935E+02  0.10566000000E+00 0. -1.
         23    2    1    0    0    0 -0.11054723179E+02 -0.94663178150E+01  0.26423616604E+02  0.94833369562E+02  0.89907410098E+02 0.  0.
         13    1    3    3    0    0 -0.18685291118E+02 -0.46928661561E+02  0.25516234922E+02  0.56590889627E+02  0.10566000000E+00 0.  1.
         22    1    1    0    0    0  0.11054723179E+02  0.94663178150E+01 -0.26423616604E+02  0.30166630438E+02  0.00000000000E+00 0.  1.
</event>
<event>
 5    1  0.1245610E-004  0.9118800E+02  0.7818608E-02  0.1130116E+00
         25   -1    0    0    0    0  0.00000000000E+00  0.00000000000E+00  0.99999998245E-14  0.12500000000E+03  0.12500000000E+03 0.  0.
        -13    1    3    3    0    0  0.38163942548E+02  0.38839568599E+02 -0.12362368764E+02  0.55837603147E+02  0.10566000000E+00 0.  1.
         23    2    1    0    0    0  0.13084249513E+02  0.23279974758E+02  0.13497018771E+02  0.95078029381E+02  0.90246924297E+02 0.  0.
         13    1    3    3    0    0 -0.25079693035E+02 -0.15559593841E+02  0.25859387535E+02  0.39240426233E+02  0.10566000000E+00 0. -1.
         22    1    1    0    0    0 -0.13084249513E+02 -0.23279974758E+02 -0.13497018771E+02  0.29921970619E+02  0.00000000000E+00 0.  1.
</event>
<event>
 5    1  0.1245610E-004  0.9118800E+02  0.7818608E-02  0.1130116E+00
         25   -1    0    0    0    0  0.00000000000E+00  0.00000000000E+00  0.99999998245E-14  0.12500000000E+03  0.12500000000E+03 0.  0.
        -13    1    3    3    0    0  0.94872194240E+00 -0.29869617194E+02 -0.49668778309E+02  0.57966307519E+02  0.10566000000E+00 0. -1.
         23    2    1    0    0    0 -0.16293543253E+02 -0.13463385853E+02 -0.25361466198E+02  0.91985665567E+02  0.85856953077E+02 0.  0.
         13    1    3    3    0    0 -0.17242265196E+02  0.16406231341E+02  0.24307312111E+02  0.34019358048E+02  0.10566000000E+00 0.  1.
         22    1    1    0    0    0  0.16293543253E+02  0.13463385853E+02  0.25361466198E+02  0.33014334433E+02  0.00000000000E+00 0. -1.
</event>
<event>
 5    1  0.1245610E-004  0.9118800E+02  0.7818608E-02  0.1130116E+00
         25   -1    0    0    0    0  0.00000000000E+00  0.00000000000E+00  0.99999998245E-14  0.12500000000E+03  0.12500000000E+03 0.  0.
        -13    1    3    3    0    0  0.21149007578E+02  0.48046496920E+02 -0.36828606772E+01  0.52624338615E+02  0.10566000000E+00 0. -1.
         23    2    1    0    0    0  0.12502309905E+02  0.15338336966E+02  0.22229069058E+02  0.95239223043E+02  0.90469916331E+02 0.  0.
         13    1    3    3    0    0 -0.86466976723E+01 -0.32708159954E+02  0.25911929736E+02  0.42614884429E+02  0.10566000000E+00 0.  1.
         22    1    1    0    0    0 -0.12502309905E+02 -0.15338336966E+02 -0.22229069058E+02  0.29760776957E+02  0.00000000000E+00 0. -1.
</event>
<event>
 5    1  0.1245610E-004  0.9118800E+02  0.7818608E-02  0.1130116E+00
         25   -1    0    0    0    0  0.00000000000E+00  0.00000000000E+00  0.99999998245E-14  0.12500000000E+03  0.12500000000E+03 0.  0.
        -13    1    3    3    0    0  0.21888109976E+02 -0.40925871024E+02  0.39279376041E+02  0.60802111999E+02  0.10566000000E+00 0.  1.
         23    2    1    0    0    0  0.17026239680E+02 -0.16389957927E+02  0.99269566645E+01  0.99366661803E+02  0.96003465827E+02 0.  0.
         13    1    3    3    0    0 -0.48618702959E+01  0.24535913097E+02 -0.29352419376E+02  0.38564549804E+02  0.10566000000E+00 0. -1.
         22    1    1    0    0    0 -0.17026239680E+02  0.16389957927E+02 -0.99269566645E+01  0.25633338197E+02  0.00000000000E+00 0.  1.
</event>
<event>
 5    1  0.1245610E-004  0.9118800E+02  0.7818608E-02  0.1130116E+00
         25   -1    0    0    0    0  0.00000000000E+00  0.00000000000E+00  0.99999998245E-14  0.12500000000E+03  0.12500000000E+03 0.  0.
        -13    1    3    3    0    0 -0.47098517676E+02  0.36816229535E+02  0.54537268942E+01  0.60028821624E+02  0.10566000000E+00 0.  1.
         23    2    1    0    0    0 -0.15815473023E+02  0.26695809996E+02 -0.25436150785E+01  0.93866971944E+02  0.88553616448E+02 0.  0.
         13    1    3    3    0    0  0.31283044653E+02 -0.10120419540E+02 -0.79973419727E+01  0.33838150320E+02  0.10566000000E+00 0. -1.
         22    1    1    0    0    0  0.15815473023E+02 -0.26695809996E+02  0.25436150785E+01  0.31133028056E+02  0.00000000000E+00 0.  1.
</event>
<event>
 5    1  0.1245610E-004  0.9118800E+02  0.7818608E-02  0.1130116E+00
         25   -1    0    0    0    0  0.00000000000E+00  0.00000000000E+00  0.99999998245E-14  0.12500000000E+03  0.12500000000E+03 0.  0.
        -13    1    3    3    0    0 -0.22879181157E+02  0.18115376084E+02 -0.17300332423E+02  0.33925454264E+02  0.10566000000E+00 0. -1.
         23    2    1    0    0    0  0.21963588040E+02 -0.70514773989E+01  0.17524602947E+02  0.96030460109E+02  0.91556621973E+02 0.  0.
         13    1    3    3    0    0  0.44842769196E+02 -0.25166853482E+02  0.34824935370E+02  0.62105005844E+02  0.10566000000E+00 0.  1.
         22    1    1    0    0    0 -0.21963588040E+02  0.70514773989E+01 -0.17524602947E+02  0.28969539891E+02  0.00000000000E+00 0.  1.
</event>
<event>
 5    1  0.1245610E-004  0.9118800E+02  0.7818608E-02  0.1130116E+00
         25   -1    0    0    0    0  0.00000000000E+00  0.00000000000E+00  0.99999998245E-14  0.12500000000E+03  0.12500000000E+03 0.  0.
        -13    1    3    3    0    0 -0.46029938068E+02  0.23937612803E+02  0.25845283478E+01  0.51946659720E+02  0.10566000000E+00 0. -1.
         23    2    1    0    0    0 -0.13294914835E+02  0.22306064373E+02  0.22789942522E+02  0.90450083235E+02  0.83591391954E+02 0.  0.
         13    1    3    3    0    0  0.32735023234E+02 -0.16315484298E+01  0.20205414174E+02  0.38503423515E+02  0.10566000000E+00 0.  1.
         22    1    1    0    0    0  0.13294914835E+02 -0.22306064373E+02 -0.22789942522E+02  0.34549916765E+02  0.00000000000E+00 0. -1.
</event>
<event>
 5    1  0.1245610E-004  0.9118800E+02  0.7818608E-02  0.1130116E+00
         25   -1    0    0    0    0  0.00000000000E+00  0.00000000000E+00  0.99999998245E-14  0.12500000000E+03  0.12500000000E+03 0.  0.
        -13    1    3    3    0    0  0.31389732053E+02  0.31040639532E+02 -0.34946468523E+02  0.56303671347E+02  0.10566000000E+00 0.  1.
         23    2    1    0    0    0  0.72908869880E+00  0.71814464289E+01 -0.28394186600E+02  0.95702652410E+02  0.91107974967E+02 0.  0.
         13    1    3    3    0    0 -0.30660643354E+02 -0.23859193103E+02  0.65522819230E+01  0.39398981063E+02  0.10566000000E+00 0. -1.
         22    1    1    0    0    0 -0.72908869880E+00 -0.71814464289E+01  0.28394186600E+02  0.29297347590E+02  0.00000000000E+00 0.  1.
</event>
<event>
 5    1  0.1245610E-004  0.9118800E+02  0.7818608E-02  0.1130116E+00
         25   -1    0    0    0    0  0.00000000000E+00  0.00000000000E+00  0.99999998245E-14  0.12500000000E+03  0.12500000000E+03 0.  0.
        -13    1    3    3    0    0 -0.55187158808E+02 -0.37513624971E+00  0.10023899614E+02  0.56091469512E+02  0.10566000000E+00 0.  1.
         23    2    1    0    0    0 -0.18364109692E+02 -0.15672812076E+02  0.15455080855E+02  0.96334043058E+02  0.91970162360E+02 0.  0.
         13    1    3    3    0    0  0.36823049116E+02 -0.15297675827E+02  0.54311812413E+01  0.40242573546E+02  0.10566000000E+00 0. -1.
         22    1    1    0    0    0  0.18364109692E+02  0.15672812076E+02 -0.15455080855E+02  0.28665956942E+02  0.00000000000E+00 0.  1.
</event>
<event>
 5    1  0.1245610E-004  0.9118800E+02  0.7818608E-02  0.1130116E+00
         25   -1    0    0    0    0  0.00000000000E+00  0.00000000000E+00  0.99999998245E-14  0.12500000000E+03  0.12500000000E+03 0.  0.
        -13    1    3    3    0    0 -0.13912748977E+02  0.24084084260E+02  0.24946344281E+02  0.37362266470E+02  0.10566000000E+00 0.  1.
         23    2    1    0    0    0  0.29910836886E+01  0.96888713222E+01 -0.28238773905E+02  0.94995847608E+02  0.90133023371E+02 0.  0.
         13    1    3    3    0    0  0.16903832666E+02 -0.14395212938E+02 -0.53185118185E+02  0.57633581138E+02  0.10566000000E+00 0. -1.
         22    1    1    0    0    0 -0.29910836886E+01 -0.96888713222E+01  0.28238773905E+02  0.30004152392E+02  0.00000000000E+00 0. -1.
</event>
<event>
 5    1  0.1245610E-004  0.9118800E+02  0.7818608E-02  0.1130116E+00
         25   -1    0    0    0    0  0.00000000000E+00  0.00000000000E+00  0.99999998245E-14  0.12500000000E+03  0.12500000000E+03 0.  0.
        -13    1    3    3    0    0  0.23422670670E+02  0.43483204522E+02  0.15097431383E+02  0.51646434293E+02  0.10566000000E+00 0.  1.
         23    2    1    0    0    0  0.53784843931E+01  0.23232776915E+02 -0.18494436781E+02  0.94821626793E+02  0.89891082418E+02 0.  0.
         13    1    3    3    0    0 -0.18044186276E+02 -0.20250427607E+02 -0.33591868164E+02  0.43175192500E+02  0.10566000000E+00 0. -1.
         22    1    1    0    0    0 -0.53784843931E+01 -0.23232776915E+02  0.18494436781E+02  0.30178373207E+02  0.00000000000E+00 0.  1.
</event>
<event>
 5    1  0.1245610E-004  0.9118800E+02  0.7818608E-02  0.1130116E+00
         25   -1    0    0    0    0  0.00000000000E+00  0.00000000000E+00  0.99999998245E-14  0.12500000000E+03  0.12500000000E+03 0.  0.
        -13    1    3    3    0    0  0.70526539112E+01 -0.21239948719E+02  0.34767208173E+02  0.41347856982E+02  0.10566000000E+00 0.  1.
         23    2    1    0    0    0  0.25250078576E+02  0.11166155454E+02 -0.62435196701E+01  0.96693975313E+02  0.92458065242E+02 0.  0.
         13    1    3    3    0    0  0.18197424664E+02  0.32406104173E+02 -0.41010727843E+02  0.55346118332E+02  0.10566000000E+00 0. -1.
         22    1    1    0    0    0 -0.25250078576E+02 -0.11166155454E+02  0.62435196701E+01  0.28306024687E+02  0.00000000000E+00 0. -1.
</event>
<event>
 5    1  0.1245610E-004  0.9118800E+02  0.7818608E-02  0.1130116E+00
         25   -1    0    0    0    0  0.00000000000E+00  0.00000000000E+00  0.99999998245E-14  0.12500000000E+03  0.12500000000E+03 0.  0.
        -13    1    3    3    0    0  0.11778742631E+01  0.37930177556E+01 -0.50857075433E+02  0.51012034434E+02  0.10566000000E+00 0.  1.
         23    2    1    0    0    0 -0.24218114367E+02  0.64136498879E+01 -0.12728804270E+02  0.96898853644E+02  0.92734639758E+02 0.  0.
         13    1    3    3    0    0 -0.25395988630E+02  0.26206321323E+01  0.38128271164E+02  0.45886819210E+02  0.10566000000E+00 0. -1.
         22    1    1    0    0    0  0.24218114367E+02 -0.64136498879E+01  0.12728804270E+02  0.28101146356E+02  0.00000000000E+00 0.  1.
</event>
<event>
 5    1  0.1245610E-004  0.9118800E+02  0.7818608E-02  0.1130116E+00
         25   -1    0    0    0    0  0.00000000000E+00  0.00000000000E+00  0.99999998245E-14  0.12500000000E+03  0.12500000000E+03 0.  0.
        -13    1    3    3    0    0  0.24192147388E+02 -0.38225959240E+02  0.18482653943E+02  0.48868227059E+02  0.10566000000E+00 0. -1.
         23    2    1    0    0    0  0.98603511153E+01  0.66982747708E+01  0.25792190405E+02  0.96586438186E+02  0.92312564403E+02 0.  0.
         13    1    3    3    0    0 -0.14331796272E+02  0.44924234011E+02  0.73095364628E+01  0.47718211128E+02  0.10566000000E+00 0.  1.
         22    1    1    0    0    0 -0.98603511153E+01 -0.66982747708E+01 -0.25792190405E+02  0.28413561814E+02  0.00000000000E+00 0. -1.
</event>
<event>
 5    1  0.1245610E-004  0.9118800E+02  0.7818608E-02  0.1130116E+00
         25   -1    0    0    0    0  0.00000000000E+00  0.00000000000E+00  0.99999998245E-14  0.12500000000E+03  0.12500000000E+03 0.  0.
        -13    1    3    3    0    0  0.45096794515E+02 -0.32556712588E+02 -0.14557030554E+02  0.57494162422E+02  0.10566000000E+00 0.  1.
         23    2    1    0    0    0  0.23127662208E+02 -0.30854081556E+01 -0.19510268040E+02  0.94585216396E+02  0.89561733452E+02 0.  0.
         13    1    3    3    0    0 -0.21969132307E+02  0.29471304432E+02 -0.49532374858E+01  0.37091053973E+02  0.10566000000E+00 0. -1.
         22    1    1    0    0    0 -0.23127662208E+02  0.30854081556E+01  0.19510268040E+02  0.30414783604E+02  0.00000000000E+00 0.  1.
</event>
<event>
 5    1  0.1245610E-004  0.9118800E+02  0.7818608E-02  0.1130116E+00
         25   -1    0    0    0    0  0.00000000000E+00  0.00000000000E+00  0.99999998245E-14  0.12500000000E+03  0.12500000000E+03 0.  0.
        -13    1    3    3    0    0 -0.87214085782E+01  0.26784665519E+02  0.17868415305E+02  0.33358247917E+02  0.10566000000E+00 0.  1.
         23    2    1    0    0    0  0.17342066903E+02 -0.20281861319E+02 -0.12925841479E+02  0.95349054636E+02  0.90621540811E+02 0.  0.
         13    1    3    3    0    0  0.26063475482E+02 -0.47066526838E+02 -0.30794256784E+02  0.61990806719E+02  0.10566000000E+00 0. -1.
         22    1    1    0    0    0 -0.17342066903E+02  0.20281861319E+02  0.12925841479E+02  0.29650945364E+02  0.00000000000E+00 0. -1.
</event>
<event>
 5    1  0.1245610E-004  0.9118800E+02  0.7818608E-02  0.1130116E+00
         25   -1    0    0    0    0  0.00000000000E+00  0.00000000000E+00  0.99999998245E-14  0.12500000000E+03  0.12500000000E+03 0.  0.
        -13    1    3    3    0    0 -0.19982147139E+01  0.89638809378E+01 -0.41835725329E+02  0.42832033589E+02  0.10566000000E+00 0. -1.
         23    2    1    0    0    0 -0.55589788586E+00  0.28065595016E+02  0.76575165150E+01  0.95903192525E+02  0.91382701488E+02 0.  0.
         13    1    3    3    0    0  0.14423168281E+01  0.19101714078E+02  0.49493241844E+02  0.53071158936E+02  0.10566000000E+00 0.  1.
         22    1    1    0    0    0  0.55589788586E+00 -0.28065595016E+02 -0.76575165150E+01  0.29096807475E+02  0.00000000000E+00 0.  1.
</event>
<event>
 5    1  0.1245610E-004  0.9118800E+02  0.7818608E-02  0.1130116E+00
         25   -1    0    0    0    0  0.00000000000E+00  0.00000000000E+00  0.99999998245E-14  0.12500000000E+03  0.12500000000E+03 0.  0.
        -13    1    3    3    0    0  0.41279613078E+02  0.36624872674E+02  0.24081836495E+02  0.60210744616E+02  0.10566000000E+00 0. -1.
         23    2    1    0    0    0  0.26787086943E+02  0.82264765383E+01  0.83693708169E+01  0.95755012207E+02  0.91179784227E+02 0.  0.
         13    1    3    3    0    0 -0.14492526135E+02 -0.28398396136E+02 -0.15712465678E+02  0.35544267591E+02  0.10566000000E+00 0.  1.
         22    1    1    0    0    0 -0.26787086943E+02 -0.82264765383E+01 -0.83693708169E+01  0.29244987793E+02  0.00000000000E+00 0. -1.
</event>
<event>
 5    1  0.1245610E-004  0.9118800E+02  0.7818608E-02  0.1130116E+00
         25   -1    0    0    0    0  0.00000000000E+00  0.00000000000E+00  0.99999998245E-14  0.12500000000E+03  0.12500000000E+03 0.  0.
        -13    1    3    3    0    0 -0.19351133303E+02 -0.16783038586E+02 -0.53371593523E+02  0.59200294792E+02  0.10566000000E+00 0. -1.
         23    2    1    0    0    0 -0.16937707006E+02 -0.16591373879E+02 -0.16588312585E+02  0.96063315321E+02  0.91601467402E+02 0.  0.
         13    1    3    3    0    0  0.24134262966E+01  0.19166470649E+00  0.36783280938E+02  0.36863020528E+02  0.10566000000E+00 0.  1.
         22    1    1    0    0    0  0.16937707006E+02  0.16591373879E+02  0.16588312585E+02  0.28936684679E+02  0.00000000000E+00 0. -1.
</event>
<event>
 5    1  0.1245610E-004  0.9118800E+02  0.7818608E-02  0.1130116E+00
         25   -1    0    0    0    0  0.00000000000E+00  0.00000000000E+00  0.99999998245E-14  0.12500000000E+03  0.12500000000E+03 0.  0.
        -13    1    3    3    0    0 -0.46372704101E+01 -0.44830413922E+02  0.94682153101E+01  0.46053540086E+02  0.10566000000E+00 0.  1.
         23    2    1    0    0    0  0.20720973896E+02 -0.45103346622E+01  0.21100189441E+02  0.95084788612E+02  0.90256285947E+02 0.  0.
         13    1    3    3    0    0  0.25358244306E+02  0.40320079259E+02  0.11631974131E+02  0.49031248526E+02  0.10566000000E+00 0. -1.
         22    1    1    0    0    0 -0.20720973896E+02  0.45103346622E+01 -0.21100189441E+02  0.29915211388E+02  0.00000000000E+00 0.  1.
</event>
<event>
 5    1  0.1245610E-004  0.9118800E+02  0.7818608E-02  0.1130116E+00
         25   -1    0    0    0    0  0.00000000000E+00  0.00000000000E+00  0.99999998245E-14  0.12500000000E+03  0.12500000000E+03 0.  0.
        -13    1    3    3    0    0 -0.98296403768E+01 -0.55979776842E+02 -0.14388806603E+02  0.58629396762E+02  0.10566000000E+00 0.  1.
         23    2    1    0    0    0  0.15934445919E+01 -0.21856738169E+02 -0.20337645528E+02  0.95102242648E+02  0.90280455593E+02 0.  0.
         13    1    3    3    0    0  0.11423084969E+02  0.34123038673E+02 -0.59488389245E+01  0.36472845886E+02  0.10566000000E+00 0. -1.
         22    1    1    0    0    0 -0.15934445919E+01  0.21856738169E+02  0.20337645528E+02  0.29897757352E+02  0.00000000000E+00 0.  1.
</event>
<event>
 5    1  0.1245610E-004  0.9118800E+02  0.7818608E-02  0.1130116E+00
         25   -1    0    0    0    0  0.00000000000E+00  0.00000000000E+00  0.99999998245E-14  0.12500000000E+03  0.12500000000E+03 0.  0.
        -13    1    3    3    0    0 -0.39346498201E+02 -0.19931552588E+02  0.18871817670E+02  0.47974684735E+02  0.10566000000E+00 0. -1.
         23    2    1    0    0    0 -0.77414957293E-01 -0.30043991971E+02 -0.42545117981E+01  0.94656165086E+02  0.89660700820E+02 0.  0.
         13    1    3    3    0    0  0.39269083244E+02 -0.10112439383E+02 -0.23126329468E+02  0.46681480351E+02  0.10566000000E+00 0.  1.
         22    1    1    0    0    0  0.77414957293E-01  0.30043991971E+02  0.42545117981E+01  0.30343834914E+02  0.00000000000E+00 0.  1.
</event>
<event>
 5    1  0.1245610E-004  0.9118800E+02  0.7818608E-02  0.1130116E+00
         25   -1    0    0    0    0  0.00000000000E+00  0.00000000000E+00  0.99999998245E-14  0.12500000000E+03  0.12500000000E+03 0.  0.
        -13    1    3    3    0    0  0.38715349283E+02 -0.41043579080E+02 -0.20008362055E+02  0.59864842520E+02  0.10566000000E+00 0.  1.
         23    2    1    0    0    0  0.25770613011E+02 -0.10825928266E+02 -0.29735456565E+01  0.96890087308E+02  0.92722822579E+02 0.  0.
         13    1    3    3    0    0 -0.12944736272E+02  0.30217650814E+02  0.17034816399E+02  0.37025244788E+02  0.10566000000E+00 0. -1.
         22    1    1    0    0    0 -0.25770613011E+02  0.10825928266E+02  0.29735456565E+01  0.28109912692E+02  0.00000000000E+00 0.  1.
</event>
<event>
 5    1  0.1245610E-004  0.9118800E+02  0.7818608E-02  0.1130116E+00
         25   -1    0    0    0    0  0.00000000000E+00  0.00000000000E+00  0.99999998245E-14  0.12500000000E+03  0.12500000000E+03 0.  0.
        -13    1    3    3    0    0  0.23721161555E+02  0.28575377018E+02 -0.45451063674E+02  0.58694599669E+02  0.10566000000E+00 0. -1.
         23    2    1    0    0    0  0.16224428557E+00  0.23882328309E+02 -0.18555917135E+02  0.94755761055E+02  0.89799444674E+02 0.  0.
         13    1    3    3    0    0 -0.23558917269E+02 -0.46930487090E+01  0.26895146539E+02  0.36061161386E+02  0.10566000000E+00 0.  1.
         22    1    1    0    0    0 -0.16224428557E+00 -0.23882328309E+02  0.18555917135E+02  0.30244238945E+02  0.00000000000E+00 0. -1.
</event>
<event>
 5    1  0.1245610E-004  0.9118800E+02  0.7818608E-02  0.1130116E+00
         25   -1    0    0    0    0  0.00000000000E+00  0.00000000000E+00  0.99999998245E-14  0.12500000000E+03  0.12500000000E+03 0.  0.
        -13    1    3    3    0    0  0.26910118750E+02  0.28502144806E+02  0.42715707878E+01  0.39430752348E+02  0.10566000000E+00 0.  1.
         23    2    1    0    0    0 -0.16492059730E+02 -0.12771122170E+02  0.13675183420E+02  0.10005806268E+03  0.96899513261E+02 0.  0.
         13    1    3    3    0    0 -0.43402178480E+02 -0.41273266976E+02  0.94036126326E+01  0.60627310334E+02  0.10566000000E+00 0. -1.
         22    1    1    0    0    0  0.16492059730E+02  0.12771122170E+02 -0.13675183420E+02  0.24941937319E+02  0.00000000000E+00 0. -1.
</event>
<event>
 5    1  0.1245610E-004  0.9118800E+02  0.7818608E-02  0.1130116E+00
         25   -1    0    0    0    0  0.00000000000E+00  0.00000000000E+00  0.99999998245E-14  0.12500000000E+03  0.12500000000E+03 0.  0.
        -13    1    3    3    0    0  0.32488330053E+02 -0.83675416903E+01  0.11213917977E+02  0.35373301571E+02  0.10566000000E+00 0.  1.
         23    2    1    0    0    0 -0.23575018477E+02  0.14861603215E+02 -0.24258062761E+00  0.97130525810E+02  0.93046394086E+02 0.  0.
         13    1    3    3    0    0 -0.56063348530E+02  0.23229144905E+02 -0.11456498605E+02  0.61757224239E+02  0.10566000000E+00 0. -1.
         22    1    1    0    0    0  0.23575018477E+02 -0.14861603215E+02  0.24258062761E+00  0.27869474190E+02  0.00000000000E+00 0. -1.
</event>
<event>
 5    1  0.1245610E-004  0.9118800E+02  0.7818608E-02  0.1130116E+00
         25   -1    0    0    0    0  0.00000000000E+00  0.00000000000E+00  0.99999998245E-14  0.12500000000E+03  0.12500000000E+03 0.  0.
        -13    1    3    3    0    0  0.20163116967E+02  0.40906627628E+02 -0.87222014347E+01  0.46432654799E+02  0.10566000000E+00 0. -1.
         23    2    1    0    0    0  0.46643205612E+01  0.94625526177E+01  0.26713477654E+02  0.96278828772E+02  0.91895087970E+02 0.  0.
         13    1    3    3    0    0 -0.15498796406E+02 -0.31444075010E+02  0.35435679089E+02  0.49846173974E+02  0.10566000000E+00 0.  1.
         22    1    1    0    0    0 -0.46643205612E+01 -0.94625526177E+01 -0.26713477654E+02  0.28721171228E+02  0.00000000000E+00 0. -1.
</event>
<event>
 5    1  0.1245610E-004  0.9118800E+02  0.7818608E-02  0.1130116E+00
         25   -1    0    0    0    0  0.00000000000E+00  0.00000000000E+00  0.99999998245E-14  0.12500000000E+03  0.12500000000E+03 0.  0.
        -13    1    3    3    0    0 -0.12064432939E+02  0.37455119915E+02 -0.41548508809E+01  0.39569059881E+02  0.10566000000E+00 0. -1.
         23    2    1    0    0    0  0.23976068931E+02 -0.60342776486E+01 -0.13517617997E+02  0.96822165015E+02  0.92631211013E+02 0.  0.
         13    1    3    3    0    0  0.36040501870E+02 -0.43489397563E+02 -0.93627671158E+01  0.57253105135E+02  0.10566000000E+00 0.  1.
         22    1    1    0    0    0 -0.23976068931E+02  0.60342776486E+01  0.13517617997E+02  0.28177834985E+02  0.00000000000E+00 0.  1.
</event>
<event>
 5    1  0.1245610E-004  0.9118800E+02  0.7818608E-02  0.1130116E+00
         25   -1    0    0    0    0  0.00000000000E+00  0.00000000000E+00  0.99999998245E-14  0.12500000000E+03  0.12500000000E+03 0.  0.
        -13    1    3    3    0    0  0.15245590317E+02  0.11951596823E+02 -0.31073326574E+02  0.36617365814E+02  0.10566000000E+00 0. -1.
         23    2    1    0    0    0 -0.27655708846E+02 -0.55112388790E+01  0.62658906982E+01  0.96112747240E+02  0.91668897725E+02 0.  0.
         13    1    3    3    0    0 -0.42901299163E+02 -0.17462835702E+02  0.37339217272E+02  0.59495381427E+02  0.10566000000E+00 0.  1.
         22    1    1    0    0    0  0.27655708846E+02  0.55112388790E+01 -0.62658906982E+01  0.28887252760E+02  0.00000000000E+00 0. -1.
</event>
<event>
 5    1  0.1245610E-004  0.9118800E+02  0.7818608E-02  0.1130116E+00
         25   -1    0    0    0    0  0.00000000000E+00  0.00000000000E+00  0.99999998245E-14  0.12500000000E+03  0.12500000000E+03 0.  0.
        -13    1    3    3    0    0 -0.18369613224E+02  0.10468115593E+02 -0.25820438607E+02  0.33372598759E+02  0.10566000000E+00 0. -1.
         23    2    1    0    0    0  0.25979307156E+02 -0.20929210412E+02 -0.67278352502E+01  0.90967368366E+02  0.84361377962E+02 0.  0.
         13    1    3    3    0    0  0.44348920380E+02 -0.31397326005E+02  0.19092603357E+02  0.57594769607E+02  0.10566000000E+00 0.  1.
         22    1    1    0    0    0 -0.25979307156E+02  0.20929210412E+02  0.67278352502E+01  0.34032631634E+02  0.00000000000E+00 0.  1.
</event>
<event>
 5    1  0.1245610E-004  0.9118800E+02  0.7818608E-02  0.1130116E+00
         25   -1    0    0    0    0  0.00000000000E+00  0.00000000000E+00  0.99999998245E-14  0.12500000000E+03  0.12500000000E+03 0.  0.
        -13    1    3    3    0    0  0.25304103657E+02 -0.42175373453E+02 -0.13131485140E+02  0.50906844862E+02  0.10566000000E+00 0.  1.
         23    2    1    0    0    0  0.22682020167E+02  0.12353714976E+01 -0.19751926217E+02  0.94897861025E+02  0.89997029153E+02 0.  0.
         13    1    3    3    0    0 -0.26220834899E+01  0.43410744951E+02 -0.66204410768E+01  0.43991016163E+02  0.10566000000E+00 0. -1.
         22    1    1    0    0    0 -0.22682020167E+02 -0.12353714976E+01  0.19751926217E+02  0.30102138975E+02  0.00000000000E+00 0.  1.
</event>
<event>
 5    1  0.1245610E-004  0.9118800E+02  0.7818608E-02  0.1130116E+00
         25   -1    0    0    0    0  0.00000000000E+00  0.00000000000E+00  0.99999998245E-14  0.12500000000E+03  0.12500000000E+03 0.  0.
        -13    1    3    3    0    0 -0.14162679307E+02  0.44221412598E+02  0.44312081791E+01  0.46645059624E+02  0.10566000000E+00 0.  1.
         23    2    1    0    0    0 -0.20110548973E+02 -0.22748777705E+01  0.20494851115E+02  0.96196386145E+02  0.91782877141E+02 0.  0.
         13    1    3    3    0    0 -0.59478696659E+01 -0.46496290369E+02  0.16063642936E+02  0.49551326521E+02  0.10566000000E+00 0. -1.
         22    1    1    0    0    0  0.20110548973E+02  0.22748777705E+01 -0.20494851115E+02  0.28803613855E+02  0.00000000000E+00 0.  1.
</event>
<event>
 5    1  0.1245610E-004  0.9118800E+02  0.7818608E-02  0.1130116E+00
         25   -1    0    0    0    0  0.00000000000E+00  0.00000000000E+00  0.99999998245E-14  0.12500000000E+03  0.12500000000E+03 0.  0.
        -13    1    3    3    0    0 -0.29184260312E+02 -0.47436686681E+02  0.22378079711E+02  0.60022911533E+02  0.10566000000E+00 0.  1.
         23    2    1    0    0    0 -0.69883181990E+01 -0.28420735834E+02  0.19784290813E+01  0.95665907237E+02  0.91057546690E+02 0.  0.
         13    1    3    3    0    0  0.22195942113E+02  0.19015950847E+02 -0.20399650630E+02  0.35642995704E+02  0.10566000000E+00 0. -1.
         22    1    1    0    0    0  0.69883181990E+01  0.28420735834E+02 -0.19784290813E+01  0.29334092763E+02  0.00000000000E+00 0.  1.
</event>
<event>
 5    1  0.1245610E-004  0.9118800E+02  0.7818608E-02  0.1130116E+00
         25   -1    0    0    0    0  0.00000000000E+00  0.00000000000E+00  0.99999998245E-14  0.12500000000E+03  0.12500000000E+03 0.  0.
        -13    1    3    3    0    0  0.36114362221E+02 -0.31385382575E+02  0.45015175222E+01  0.48057925695E+02  0.10566000000E+00 0.  1.
         23    2    1    0    0    0  0.70602080708E+00 -0.12714695715E+02 -0.24431484905E+02  0.97448967221E+02  0.93473214373E+02 0.  0.
         13    1    3    3    0    0 -0.35408341414E+02  0.18670686861E+02 -0.28933002428E+02  0.49391041526E+02  0.10566000000E+00 0. -1.
         22    1    1    0    0    0 -0.70602080708E+00  0.12714695715E+02  0.24431484905E+02  0.27551032779E+02  0.00000000000E+00 0. -1.
</event>
<event>
 5    1  0.1245610E-004  0.9118800E+02  0.7818608E-02  0.1130116E+00
         25   -1    0    0    0    0  0.00000000000E+00  0.00000000000E+00  0.99999998245E-14  0.12500000000E+03  0.12500000000E+03 0.  0.
        -13    1    3    3    0    0 -0.34319554497E+02  0.17860286269E+02  0.91883575304E+01  0.39765044004E+02  0.10566000000E+00 0.  1.
         23    2    1    0    0    0 -0.54059857033E+01 -0.17393722114E+02 -0.23062051708E+02  0.95612511516E+02  0.90984217747E+02 0.  0.
         13    1    3    3    0    0  0.28913568794E+02 -0.35254008383E+02 -0.32250409239E+02  0.55847467512E+02  0.10566000000E+00 0. -1.
         22    1    1    0    0    0  0.54059857033E+01  0.17393722114E+02  0.23062051708E+02  0.29387488484E+02  0.00000000000E+00 0. -1.
</event>
<event>
 5    1  0.1245610E-004  0.9118800E+02  0.7818608E-02  0.1130116E+00
         25   -1    0    0    0    0  0.00000000000E+00  0.00000000000E+00  0.99999998245E-14  0.12500000000E+03  0.12500000000E+03 0.  0.
        -13    1    3    3    0    0  0.12219692429E+02 -0.50716990147E+01 -0.30166768671E+02  0.32940675616E+02  0.10566000000E+00 0. -1.
         23    2    1    0    0    0 -0.17310073870E+02 -0.42981113916E+01  0.24273083291E+02  0.94878662192E+02  0.89970359274E+02 0.  0.
         13    1    3    3    0    0 -0.29529766299E+02  0.77358762305E+00  0.54439851961E+02  0.61937986576E+02  0.10566000000E+00 0.  1.
         22    1    1    0    0    0  0.17310073870E+02  0.42981113916E+01 -0.24273083291E+02  0.30121337808E+02  0.00000000000E+00 0.  1.
</event>
<event>
 5    1  0.1245610E-004  0.9118800E+02  0.7818608E-02  0.1130116E+00
         25   -1    0    0    0    0  0.00000000000E+00  0.00000000000E+00  0.99999998245E-14  0.12500000000E+03  0.12500000000E+03 0.  0.
        -13    1    3    3    0    0 -0.31370394117E+02 -0.39182683070E+01 -0.15971174015E+02  0.35419542869E+02  0.10566000000E+00 0. -1.
         23    2    1    0    0    0  0.27386894283E+02  0.64312906676E+01 -0.14093050580E+01  0.96832827283E+02  0.92645597957E+02 0.  0.
         13    1    3    3    0    0  0.58757288399E+02  0.10349558975E+02  0.14561868957E+02  0.61413284415E+02  0.10566000000E+00 0.  1.
         22    1    1    0    0    0 -0.27386894283E+02 -0.64312906676E+01  0.14093050580E+01  0.28167172717E+02  0.00000000000E+00 0.  1.
</event>
<event>
 5    1  0.1245610E-004  0.9118800E+02  0.7818608E-02  0.1130116E+00
         25   -1    0    0    0    0  0.00000000000E+00  0.00000000000E+00  0.99999998245E-14  0.12500000000E+03  0.12500000000E+03 0.  0.
        -13    1    3    3    0    0 -0.18022743774E+02 -0.24562543387E+02 -0.14469492485E+02  0.33727069359E+02  0.10566000000E+00 0. -1.
         23    2    1    0    0    0  0.16324114173E+01 -0.39782554750E+01  0.34427954632E+02  0.90304534247E+02  0.83373458377E+02 0.  0.
         13    1    3    3    0    0  0.19655155191E+02  0.20584287912E+02  0.48897447118E+02  0.56577464887E+02  0.10566000000E+00 0.  1.
         22    1    1    0    0    0 -0.16324114173E+01  0.39782554750E+01 -0.34427954632E+02  0.34695465753E+02  0.00000000000E+00 0.  1.
</event>
<event>
 5    1  0.1245610E-004  0.9118800E+02  0.7818608E-02  0.1130116E+00
         25   -1    0    0    0    0  0.00000000000E+00  0.00000000000E+00  0.99999998245E-14  0.12500000000E+03  0.12500000000E+03 0.  0.
        -13    1    3    3    0    0 -0.21930325720E+02 -0.11713966004E+02 -0.39437726020E+02  0.46620827785E+02  0.10566000000E+00 0. -1.
         23    2    1    0    0    0 -0.27191862586E+02  0.11250029966E+02  0.32658900479E+01  0.95392119242E+02  0.90680923080E+02 0.  0.
         13    1    3    3    0    0 -0.52615368661E+01  0.22963995969E+02  0.42703616068E+02  0.48771291457E+02  0.10566000000E+00 0.  1.
         22    1    1    0    0    0  0.27191862586E+02 -0.11250029966E+02 -0.32658900479E+01  0.29607880758E+02  0.00000000000E+00 0. -1.
</event>
<event>
 5    1  0.1245610E-004  0.9118800E+02  0.7818608E-02  0.1130116E+00
         25   -1    0    0    0    0  0.00000000000E+00  0.00000000000E+00  0.99999998245E-14  0.12500000000E+03  0.12500000000E+03 0.  0.
        -13    1    3    3    0    0 -0.30604436906E+02 -0.17054050254E+02  0.15212878876E+02  0.38195746309E+02  0.10566000000E+00 0. -1.
         23    2    1    0    0    0  0.18360634250E+02 -0.22996959638E+02 -0.10418921181E+02  0.93782585610E+02  0.88434418653E+02 0.  0.
         13    1    3    3    0    0  0.48965071156E+02 -0.59429093832E+01 -0.25631800057E+02  0.55586839300E+02  0.10566000000E+00 0.  1.
         22    1    1    0    0    0 -0.18360634250E+02  0.22996959638E+02  0.10418921181E+02  0.31217414390E+02  0.00000000000E+00 0.  1.
</event>
<event>
 5    1  0.1245610E-004  0.9118800E+02  0.7818608E-02  0.1130116E+00
         25   -1    0    0    0    0  0.00000000000E+00  0.00000000000E+00  0.99999998245E-14  0.12500000000E+03  0.12500000000E+03 0.  0.
        -13    1    3    3    0    0  0.26862927776E+02 -0.82449673873E+01  0.11890313828E+02  0.30512081261E+02  0.10566000000E+00 0.  1.
         23    2    1    0    0    0 -0.28475815428E+02 -0.21900900728E+02  0.10673978151E+02  0.87523936619E+02  0.79094779567E+02 0.  0.
         13    1    3    3    0    0 -0.55338743204E+02 -0.13655933341E+02 -0.12163356769E+01  0.57011855358E+02  0.10566000000E+00 0. -1.
         22    1    1    0    0    0  0.28475815428E+02  0.21900900728E+02 -0.10673978151E+02  0.37476063381E+02  0.00000000000E+00 0. -1.
</event>
<event>
 5    1  0.1245610E-004  0.9118800E+02  0.7818608E-02  0.1130116E+00
         25   -1    0    0    0    0  0.00000000000E+00  0.00000000000E+00  0.99999998245E-14  0.12500000000E+03  0.12500000000E+03 0.  0.
        -13    1    3    3    0    0  0.58625193007E+02 -0.12811919710E+02  0.39337291962E+01  0.60137708064E+02  0.10566000000E+00 0.  1.
         23    2    1    0    0    0  0.26355044320E+02 -0.86988951999E+01 -0.99621638041E+01  0.95512649382E+02  0.90846917095E+02 0.  0.
         13    1    3    3    0    0 -0.32270148688E+02  0.41130245102E+01 -0.13895893000E+02  0.35374941318E+02  0.10566000000E+00 0. -1.
         22    1    1    0    0    0 -0.26355044320E+02  0.86988951999E+01  0.99621638041E+01  0.29487350618E+02  0.00000000000E+00 0.  1.
</event>
<event>
 5    1  0.1245610E-004  0.9118800E+02  0.7818608E-02  0.1130116E+00
         25   -1    0    0    0    0  0.00000000000E+00  0.00000000000E+00  0.99999998245E-14  0.12500000000E+03  0.12500000000E+03 0.  0.
        -13    1    3    3    0    0 -0.26000423242E+02 -0.37439302429E+02 -0.16321575629E+02  0.48416199460E+02  0.10566000000E+00 0.  1.
         23    2    1    0    0    0  0.17380540336E+02 -0.23551522688E+02 -0.59949626311E+01  0.95121964920E+02  0.90307758415E+02 0.  0.
         13    1    3    3    0    0  0.43380963579E+02  0.13887779741E+02  0.10326612998E+02  0.46705765460E+02  0.10566000000E+00 0. -1.
         22    1    1    0    0    0 -0.17380540336E+02  0.23551522688E+02  0.59949626311E+01  0.29878035080E+02  0.00000000000E+00 0. -1.
</event>
<event>
 5    1  0.1245610E-004  0.9118800E+02  0.7818608E-02  0.1130116E+00
         25   -1    0    0    0    0  0.00000000000E+00  0.00000000000E+00  0.99999998245E-14  0.12500000000E+03  0.12500000000E+03 0.  0.
        -13    1    3    3    0    0 -0.35027317556E+02 -0.41623082239E+02 -0.27481792027E+02  0.60947961470E+02  0.10566000000E+00 0.  1.
         23    2    1    0    0    0 -0.12960345566E+02 -0.14889952469E+02 -0.20936089957E+02  0.96224991670E+02  0.91821827021E+02 0.  0.
         13    1    3    3    0    0  0.22066971989E+02  0.26733129771E+02  0.65457020709E+01  0.35277030200E+02  0.10566000000E+00 0. -1.
         22    1    1    0    0    0  0.12960345566E+02  0.14889952469E+02  0.20936089957E+02  0.28775008330E+02  0.00000000000E+00 0.  1.
</event>
<event>
 5    1  0.1245610E-004  0.9118800E+02  0.7818608E-02  0.1130116E+00
         25   -1    0    0    0    0  0.00000000000E+00  0.00000000000E+00  0.99999998245E-14  0.12500000000E+03  0.12500000000E+03 0.  0.
        -13    1    3    3    0    0 -0.17942212332E+02  0.48964447607E+02  0.54385856563E+00  0.52151194224E+02  0.10566000000E+00 0.  1.
         23    2    1    0    0    0 -0.26683027676E+02  0.69302381059E+01  0.91775238821E+01  0.95944206932E+02  0.91438786809E+02 0.  0.
         13    1    3    3    0    0 -0.87408153446E+01 -0.42034209501E+02  0.86336653164E+01  0.43793012709E+02  0.10566000000E+00 0. -1.
         22    1    1    0    0    0  0.26683027676E+02 -0.69302381059E+01 -0.91775238821E+01  0.29055793068E+02  0.00000000000E+00 0.  1.
</event>
<event>
 5    1  0.1245610E-004  0.9118800E+02  0.7818608E-02  0.1130116E+00
         25   -1    0    0    0    0  0.00000000000E+00  0.00000000000E+00  0.99999998245E-14  0.12500000000E+03  0.12500000000E+03 0.  0.
        -13    1    3    3    0    0 -0.23764438364E+02  0.91866655098E+01  0.56173257918E+02  0.61681353934E+02  0.10566000000E+00 0. -1.
         23    2    1    0    0    0 -0.38656450421E+01  0.59797871519E+01  0.26552315642E+02  0.97509519249E+02  0.93554154436E+02 0.  0.
         13    1    3    3    0    0  0.19898793322E+02 -0.32068783579E+01 -0.29620942277E+02  0.35828165315E+02  0.10566000000E+00 0.  1.
         22    1    1    0    0    0  0.38656450421E+01 -0.59797871519E+01 -0.26552315642E+02  0.27490480751E+02  0.00000000000E+00 0. -1.
</event>
<event>
 5    1  0.1245610E-004  0.9118800E+02  0.7818608E-02  0.1130116E+00
         25   -1    0    0    0    0  0.00000000000E+00  0.00000000000E+00  0.99999998245E-14  0.12500000000E+03  0.12500000000E+03 0.  0.
        -13    1    3    3    0    0 -0.44166394805E+02  0.34379939779E+02 -0.25272418387E+02  0.61411375041E+02  0.10566000000E+00 0. -1.
         23    2    1    0    0    0 -0.19069650446E+02  0.24601373333E+02 -0.10385631024E+02  0.92186276197E+02  0.86148529003E+02 0.  0.
         13    1    3    3    0    0  0.25096744359E+02 -0.97785664463E+01  0.14886787362E+02  0.30774901156E+02  0.10566000000E+00 0.  1.
         22    1    1    0    0    0  0.19069650446E+02 -0.24601373333E+02  0.10385631024E+02  0.32813723803E+02  0.00000000000E+00 0. -1.
</event>
<event>
 5    1  0.1245610E-004  0.9118800E+02  0.7818608E-02  0.1130116E+00
         25   -1    0    0    0    0  0.00000000000E+00  0.00000000000E+00  0.99999998245E-14  0.12500000000E+03  0.12500000000E+03 0.  0.
        -13    1    3    3    0    0 -0.22544931962E+02 -0.31308361772E+02 -0.44017438806E+02  0.58532329162E+02  0.10566000000E+00 0.  1.
         23    2    1    0    0    0 -0.22968472400E+02 -0.10343622834E+02 -0.11303250199E+02  0.97390133597E+02  0.93394504117E+02 0.  0.
         13    1    3    3    0    0 -0.42354043800E+00  0.20964738938E+02  0.32714188607E+02  0.38857804435E+02  0.10566000000E+00 0. -1.
         22    1    1    0    0    0  0.22968472400E+02  0.10343622834E+02  0.11303250199E+02  0.27609866403E+02  0.00000000000E+00 0.  1.
</event>
<event>
 5    1  0.1245610E-004  0.9118800E+02  0.7818608E-02  0.1130116E+00
         25   -1    0    0    0    0  0.00000000000E+00  0.00000000000E+00  0.99999998245E-14  0.12500000000E+03  0.12500000000E+03 0.  0.
        -13    1    3    3    0    0 -0.22774115122E+02  0.36995972994E+02  0.35125852328E+02  0.55867691944E+02  0.10566000000E+00 0.  1.
         23    2    1    0    0    0 -0.38726515753E+01  0.28895370580E+02  0.85655311175E+00  0.95833691450E+02  0.91287583288E+02 0.  0.
         13    1    3    3    0    0  0.18901463547E+02 -0.81006024143E+01 -0.34269299216E+02  0.39965999506E+02  0.10566000000E+00 0. -1.
         22    1    1    0    0    0  0.38726515753E+01 -0.28895370580E+02 -0.85655311175E+00  0.29166308550E+02  0.00000000000E+00 0.  1.
</event>
<event>
 5    1  0.1245610E-004  0.9118800E+02  0.7818608E-02  0.1130116E+00
         25   -1    0    0    0    0  0.00000000000E+00  0.00000000000E+00  0.99999998245E-14  0.12500000000E+03  0.12500000000E+03 0.  0.
        -13    1    3    3    0    0 -0.39071834887E+01  0.10762207201E+02 -0.36287516948E+02  0.38051100339E+02  0.10566000000E+00 0. -1.
         23    2    1    0    0    0  0.20341730825E+02  0.12277901872E+02  0.16439860168E+02  0.96107061595E+02  0.91661144432E+02 0.  0.
         13    1    3    3    0    0  0.24248914314E+02  0.15156946706E+01  0.52727377117E+02  0.58055961256E+02  0.10566000000E+00 0.  1.
         22    1    1    0    0    0 -0.20341730825E+02 -0.12277901872E+02 -0.16439860168E+02  0.28892938405E+02  0.00000000000E+00 0.  1.
</event>
<event>
 5    1  0.1245610E-004  0.9118800E+02  0.7818608E-02  0.1130116E+00
         25   -1    0    0    0    0  0.00000000000E+00  0.00000000000E+00  0.99999998245E-14  0.12500000000E+03  0.12500000000E+03 0.  0.
        -13    1    3    3    0    0 -0.28917461751E+02  0.48926937307E+02  0.11348914951E+02  0.57955791971E+02  0.10566000000E+00 0.  1.
         23    2    1    0    0    0 -0.10506331349E+02  0.26025005949E+02 -0.10981053778E+02  0.94862523743E+02  0.89947934583E+02 0.  0.
         13    1    3    3    0    0  0.18411130402E+02 -0.22901931358E+02 -0.22329968730E+02  0.36906731772E+02  0.10566000000E+00 0. -1.
         22    1    1    0    0    0  0.10506331349E+02 -0.26025005949E+02  0.10981053778E+02  0.30137476257E+02  0.00000000000E+00 0.  1.
</event>
<event>
 5    1  0.1245610E-004  0.9118800E+02  0.7818608E-02  0.1130116E+00
         25   -1    0    0    0    0  0.00000000000E+00  0.00000000000E+00  0.99999998245E-14  0.12500000000E+03  0.12500000000E+03 0.  0.
        -13    1    3    3    0    0 -0.31202803352E+02 -0.20228141243E+02 -0.45989316224E+02  0.59142379102E+02  0.10566000000E+00 0. -1.
         23    2    1    0    0    0 -0.87389444998E+01 -0.21956034094E+02 -0.16847637402E+02  0.95977948554E+02  0.91484901150E+02 0.  0.
         13    1    3    3    0    0  0.22463858852E+02 -0.17278928515E+01  0.29141678822E+02  0.36835569452E+02  0.10566000000E+00 0.  1.
         22    1    1    0    0    0  0.87389444998E+01  0.21956034094E+02  0.16847637402E+02  0.29022051446E+02  0.00000000000E+00 0. -1.
</event>
<event>
 5    1  0.1245610E-004  0.9118800E+02  0.7818608E-02  0.1130116E+00
         25   -1    0    0    0    0  0.00000000000E+00  0.00000000000E+00  0.99999998245E-14  0.12500000000E+03  0.12500000000E+03 0.  0.
        -13    1    3    3    0    0 -0.29950462324E+02 -0.94389389517E+01 -0.20339119604E+02  0.37414097774E+02  0.10566000000E+00 0.  1.
         23    2    1    0    0    0  0.67524623249E+00  0.15001064626E+02  0.24065260181E+02  0.96634093616E+02  0.92377071853E+02 0.  0.
         13    1    3    3    0    0  0.30625708556E+02  0.24440003577E+02  0.44404379785E+02  0.59219995842E+02  0.10566000000E+00 0. -1.
         22    1    1    0    0    0 -0.67524623249E+00 -0.15001064626E+02 -0.24065260181E+02  0.28365906384E+02  0.00000000000E+00 0. -1.
</event>
<event>
 5    1  0.1245610E-004  0.9118800E+02  0.7818608E-02  0.1130116E+00
         25   -1    0    0    0    0  0.00000000000E+00  0.00000000000E+00  0.99999998245E-14  0.12500000000E+03  0.12500000000E+03 0.  0.
        -13    1    3    3    0    0  0.21415565354E+02 -0.21917364963E+02  0.35200251593E+02  0.46669756831E+02  0.10566000000E+00 0. -1.
         23    2    1    0    0    0 -0.14219216358E+02  0.40426202395E+01  0.30623882011E+02  0.90994838015E+02  0.84402070494E+02 0.  0.
         13    1    3    3    0    0 -0.35634781712E+02  0.25959985203E+02 -0.45763695828E+01  0.44325081184E+02  0.10566000000E+00 0.  1.
         22    1    1    0    0    0  0.14219216358E+02 -0.40426202395E+01 -0.30623882011E+02  0.34005161985E+02  0.00000000000E+00 0.  1.
</event>
<event>
 5    1  0.1245610E-004  0.9118800E+02  0.7818608E-02  0.1130116E+00
         25   -1    0    0    0    0  0.00000000000E+00  0.00000000000E+00  0.99999998245E-14  0.12500000000E+03  0.12500000000E+03 0.  0.
        -13    1    3    3    0    0  0.32333788808E+02  0.21482898028E+02  0.30701145813E+02  0.49493033092E+02  0.10566000000E+00 0.  1.
         23    2    1    0    0    0 -0.93878251609E+01  0.24623530664E+02  0.63869554426E+01  0.97884640452E+02  0.94054027628E+02 0.  0.
         13    1    3    3    0    0 -0.41721613969E+02  0.31406326358E+01 -0.24314190370E+02  0.48391607360E+02  0.10566000000E+00 0. -1.
         22    1    1    0    0    0  0.93878251609E+01 -0.24623530664E+02 -0.63869554426E+01  0.27115359548E+02  0.00000000000E+00 0. -1.
</event>
<event>
 5    1  0.1245610E-004  0.9118800E+02  0.7818608E-02  0.1130116E+00
         25   -1    0    0    0    0  0.00000000000E+00  0.00000000000E+00  0.99999998245E-14  0.12500000000E+03  0.12500000000E+03 0.  0.
        -13    1    3    3    0    0 -0.23178682173E+00  0.11802428582E+02 -0.52401854018E+02  0.53715142317E+02  0.10566000000E+00 0.  1.
         23    2    1    0    0    0  0.12135607403E+02 -0.11959134923E+02 -0.36121086358E+02  0.85062213947E+02  0.75103618333E+02 0.  0.
         13    1    3    3    0    0  0.12367394224E+02 -0.23761563505E+02  0.16280767660E+02  0.31347071630E+02  0.10566000000E+00 0. -1.
         22    1    1    0    0    0 -0.12135607403E+02  0.11959134923E+02  0.36121086358E+02  0.39937786053E+02  0.00000000000E+00 0.  1.
</event>
<event>
 5    1  0.1245610E-004  0.9118800E+02  0.7818608E-02  0.1130116E+00
         25   -1    0    0    0    0  0.00000000000E+00  0.00000000000E+00  0.99999998245E-14  0.12500000000E+03  0.12500000000E+03 0.  0.
        -13    1    3    3    0    0 -0.25652515820E+02 -0.19919239125E+02 -0.44651795497E+02  0.55214324775E+02  0.10566000000E+00 0.  1.
         23    2    1    0    0    0  0.28882007614E+01 -0.69531106215E+00 -0.33472277615E+02  0.91396153050E+02  0.84994342532E+02 0.  0.
         13    1    3    3    0    0  0.28540716582E+02  0.19223928063E+02  0.11179517882E+02  0.36181828274E+02  0.10566000000E+00 0. -1.
         22    1    1    0    0    0 -0.28882007614E+01  0.69531106215E+00  0.33472277615E+02  0.33603846950E+02  0.00000000000E+00 0.  1.
</event>
<event>
 5    1  0.1245610E-004  0.9118800E+02  0.7818608E-02  0.1130116E+00
         25   -1    0    0    0    0  0.00000000000E+00  0.00000000000E+00  0.99999998245E-14  0.12500000000E+03  0.12500000000E+03 0.  0.
        -13    1    3    3    0    0 -0.90096200810E+01  0.42186813347E+02 -0.52057491857E+01  0.43451253871E+02  0.10566000000E+00 0. -1.
         23    2    1    0    0    0 -0.18097156951E+02 -0.89633556668E+01 -0.19073365779E+02  0.97221553019E+02  0.93168601228E+02 0.  0.
         13    1    3    3    0    0 -0.90875368698E+01 -0.51150169013E+02 -0.13867616594E+02  0.53770299148E+02  0.10566000000E+00 0.  1.
         22    1    1    0    0    0  0.18097156951E+02  0.89633556668E+01  0.19073365779E+02  0.27778446981E+02  0.00000000000E+00 0.  1.
</event>
<event>
 5    1  0.1245610E-004  0.9118800E+02  0.7818608E-02  0.1130116E+00
         25   -1    0    0    0    0  0.00000000000E+00  0.00000000000E+00  0.99999998245E-14  0.12500000000E+03  0.12500000000E+03 0.  0.
        -13    1    3    3    0    0  0.28025364992E+02 -0.56988844286E+01 -0.31987632833E+02  0.42908253110E+02  0.10566000000E+00 0.  1.
         23    2    1    0    0    0 -0.45881693001E+00  0.28702108972E+02 -0.30358281608E+01  0.96134140840E+02  0.91698065464E+02 0.  0.
         13    1    3    3    0    0 -0.28484181922E+02  0.34400993401E+02  0.28951804672E+02  0.53225887729E+02  0.10566000000E+00 0. -1.
         22    1    1    0    0    0  0.45881693001E+00 -0.28702108972E+02  0.30358281608E+01  0.28865859160E+02  0.00000000000E+00 0.  1.
</event>
<event>
 5    1  0.1245610E-004  0.9118800E+02  0.7818608E-02  0.1130116E+00
         25   -1    0    0    0    0  0.00000000000E+00  0.00000000000E+00  0.99999998245E-14  0.12500000000E+03  0.12500000000E+03 0.  0.
        -13    1    3    3    0    0 -0.22325993983E+01  0.15944244102E+02 -0.32722030175E+02  0.36468422544E+02  0.10566000000E+00 0.  1.
         23    2    1    0    0    0  0.21759708681E+02  0.47160419650E+01  0.19743502421E+02  0.95242112617E+02  0.90473908693E+02 0.  0.
         13    1    3    3    0    0  0.23992308079E+02 -0.11228202137E+02  0.52465532595E+02  0.58773690073E+02  0.10566000000E+00 0. -1.
         22    1    1    0    0    0 -0.21759708681E+02 -0.47160419650E+01 -0.19743502421E+02  0.29757887383E+02  0.00000000000E+00 0. -1.
</event>
<event>
 5    1  0.1245610E-004  0.9118800E+02  0.7818608E-02  0.1130116E+00
         25   -1    0    0    0    0  0.00000000000E+00  0.00000000000E+00  0.99999998245E-14  0.12500000000E+03  0.12500000000E+03 0.  0.
        -13    1    3    3    0    0  0.16137595213E+01  0.30761668357E+02 -0.29823165527E+01  0.30948179849E+02  0.10566000000E+00 0.  1.
         23    2    1    0    0    0  0.34309193410E+02 -0.15132443246E+02 -0.38526231560E+01  0.87304452567E+02  0.78747146881E+02 0.  0.
         13    1    3    3    0    0  0.32695433889E+02 -0.45894111603E+02 -0.87030660325E+00  0.56356272718E+02  0.10566000000E+00 0. -1.
         22    1    1    0    0    0 -0.34309193410E+02  0.15132443246E+02  0.38526231560E+01  0.37695547433E+02  0.00000000000E+00 0. -1.
</event>
<event>
 5    1  0.1245610E-004  0.9118800E+02  0.7818608E-02  0.1130116E+00
         25   -1    0    0    0    0  0.00000000000E+00  0.00000000000E+00  0.99999998245E-14  0.12500000000E+03  0.12500000000E+03 0.  0.
        -13    1    3    3    0    0 -0.30346620196E+02  0.66876874375E+01  0.14401436971E+02  0.34249891554E+02  0.10566000000E+00 0. -1.
         23    2    1    0    0    0  0.16982599900E+02 -0.11700011815E+02 -0.20545430397E+02  0.95889629236E+02  0.91364146737E+02 0.  0.
         13    1    3    3    0    0  0.47329220096E+02 -0.18387699252E+02 -0.34946867367E+02  0.61639737682E+02  0.10566000000E+00 0.  1.
         22    1    1    0    0    0 -0.16982599900E+02  0.11700011815E+02  0.20545430397E+02  0.29110370764E+02  0.00000000000E+00 0.  1.
</event>
<event>
 5    1  0.1245610E-004  0.9118800E+02  0.7818608E-02  0.1130116E+00
         25   -1    0    0    0    0  0.00000000000E+00  0.00000000000E+00  0.99999998245E-14  0.12500000000E+03  0.12500000000E+03 0.  0.
        -13    1    3    3    0    0 -0.17768510767E+02  0.32259364085E+02  0.20190222353E+02  0.42000509387E+02  0.10566000000E+00 0.  1.
         23    2    1    0    0    0 -0.12353867124E+02 -0.21993391279E+02  0.11749342806E+02  0.97172417474E+02  0.93102655002E+02 0.  0.
         13    1    3    3    0    0  0.54146436436E+01 -0.54252755364E+02 -0.84408795472E+01  0.55171908087E+02  0.10566000000E+00 0. -1.
         22    1    1    0    0    0  0.12353867124E+02  0.21993391279E+02 -0.11749342806E+02  0.27827582526E+02  0.00000000000E+00 0. -1.
</event>
<event>
 5    1  0.1245610E-004  0.9118800E+02  0.7818608E-02  0.1130116E+00
         25   -1    0    0    0    0  0.00000000000E+00  0.00000000000E+00  0.99999998245E-14  0.12500000000E+03  0.12500000000E+03 0.  0.
        -13    1    3    3    0    0  0.23306861574E+02 -0.35935347254E+02  0.28934103074E+02  0.51688997509E+02  0.10566000000E+00 0. -1.
         23    2    1    0    0    0 -0.14250790211E+02 -0.12951395424E+02  0.21136940379E+02  0.96406400827E+02  0.92068453917E+02 0.  0.
         13    1    3    3    0    0 -0.37557651786E+02  0.22983951830E+02 -0.77971626944E+01  0.44717403318E+02  0.10566000000E+00 0.  1.
         22    1    1    0    0    0  0.14250790211E+02  0.12951395424E+02 -0.21136940379E+02  0.28593599173E+02  0.00000000000E+00 0.  1.
</event>
<event>
 5    1  0.1245610E-004  0.9118800E+02  0.7818608E-02  0.1130116E+00
         25   -1    0    0    0    0  0.00000000000E+00  0.00000000000E+00  0.99999998245E-14  0.12500000000E+03  0.12500000000E+03 0.  0.
        -13    1    3    3    0    0  0.46176000748E+02 -0.11129803477E+02  0.23136889563E+02  0.52833913287E+02  0.10566000000E+00 0.  1.
         23    2    1    0    0    0  0.76016240717E+01 -0.25587659693E+02  0.13253402120E+02  0.95197891269E+02  0.90412791225E+02 0.  0.
         13    1    3    3    0    0 -0.38574376677E+02 -0.14457856216E+02 -0.98834874433E+01  0.42363977982E+02  0.10566000000E+00 0. -1.
         22    1    1    0    0    0 -0.76016240717E+01  0.25587659693E+02 -0.13253402120E+02  0.29802108731E+02  0.00000000000E+00 0.  1.
</event>
<event>
 5    1  0.1245610E-004  0.9118800E+02  0.7818608E-02  0.1130116E+00
         25   -1    0    0    0    0  0.00000000000E+00  0.00000000000E+00  0.99999998245E-14  0.12500000000E+03  0.12500000000E+03 0.  0.
        -13    1    3    3    0    0  0.43002568269E+02  0.58710790079E+01  0.14370828082E+02  0.45718949138E+02  0.10566000000E+00 0. -1.
         23    2    1    0    0    0 -0.39123161712E+01 -0.32230506467E+01  0.28893519057E+02  0.95665213197E+02  0.91056593936E+02 0.  0.
         13    1    3    3    0    0 -0.46914884441E+02 -0.90941296546E+01  0.14522690975E+02  0.49946264059E+02  0.10566000000E+00 0.  1.
         22    1    1    0    0    0  0.39123161712E+01  0.32230506467E+01 -0.28893519057E+02  0.29334786803E+02  0.00000000000E+00 0.  1.
</event>
<event>
 5    1  0.1245610E-004  0.9118800E+02  0.7818608E-02  0.1130116E+00
         25   -1    0    0    0    0  0.00000000000E+00  0.00000000000E+00  0.99999998245E-14  0.12500000000E+03  0.12500000000E+03 0.  0.
        -13    1    3    3    0    0  0.28567399671E+02  0.69780268664E+01  0.31850916721E+02  0.43350677537E+02  0.10566000000E+00 0. -1.
         23    2    1    0    0    0  0.16289828368E+02 -0.23549228219E+02 -0.82288480408E+01  0.95206735694E+02  0.90425018238E+02 0.  0.
         13    1    3    3    0    0 -0.12277571304E+02 -0.30527255085E+02 -0.40079764762E+02  0.51856058157E+02  0.10566000000E+00 0.  1.
         22    1    1    0    0    0 -0.16289828368E+02  0.23549228219E+02  0.82288480408E+01  0.29793264306E+02  0.00000000000E+00 0. -1.
</event>
<event>
 5    1  0.1245610E-004  0.9118800E+02  0.7818608E-02  0.1130116E+00
         25   -1    0    0    0    0  0.00000000000E+00  0.00000000000E+00  0.99999998245E-14  0.12500000000E+03  0.12500000000E+03 0.  0.
        -13    1    3    3    0    0  0.15162994726E+02  0.54329973102E+02 -0.21302628196E+02  0.60294904581E+02  0.10566000000E+00 0.  1.
         23    2    1    0    0    0 -0.30704021918E+01  0.24502947920E+02 -0.15798112965E+02  0.95684437586E+02  0.91082980828E+02 0.  0.
         13    1    3    3    0    0 -0.18233396918E+02 -0.29827025182E+02  0.55045152318E+01  0.35389533005E+02  0.10566000000E+00 0. -1.
         22    1    1    0    0    0  0.30704021918E+01 -0.24502947920E+02  0.15798112965E+02  0.29315562414E+02  0.00000000000E+00 0.  1.
</event>
<event>
 5    1  0.1245610E-004  0.9118800E+02  0.7818608E-02  0.1130116E+00
         25   -1    0    0    0    0  0.00000000000E+00  0.00000000000E+00  0.99999998245E-14  0.12500000000E+03  0.12500000000E+03 0.  0.
        -13    1    3    3    0    0  0.46465335074E+01 -0.48505693449E+01  0.35658975923E+02  0.36286251177E+02  0.10566000000E+00 0.  1.
         23    2    1    0    0    0  0.66460477709E+01  0.12401182944E+02 -0.23317323290E+02  0.97766622413E+02  0.93897047894E+02 0.  0.
         13    1    3    3    0    0  0.19995142635E+01  0.17251752289E+02 -0.58976299213E+02  0.61480371235E+02  0.10566000000E+00 0. -1.
         22    1    1    0    0    0 -0.66460477709E+01 -0.12401182944E+02  0.23317323290E+02  0.27233377587E+02  0.00000000000E+00 0. -1.
</event>
<event>
 5    1  0.1245610E-004  0.9118800E+02  0.7818608E-02  0.1130116E+00
         25   -1    0    0    0    0  0.00000000000E+00  0.00000000000E+00  0.99999998245E-14  0.12500000000E+03  0.12500000000E+03 0.  0.
        -13    1    3    3    0    0 -0.12934046051E+02 -0.38945579039E+01 -0.44162487471E+02  0.46182178296E+02  0.10566000000E+00 0.  1.
         23    2    1    0    0    0  0.17748646928E+02  0.19531876480E+02 -0.14334158459E+02  0.94967071982E+02  0.90093107370E+02 0.  0.
         13    1    3    3    0    0  0.30682692978E+02  0.23426434383E+02  0.29828329012E+02  0.48784893686E+02  0.10566000000E+00 0. -1.
         22    1    1    0    0    0 -0.17748646928E+02 -0.19531876480E+02  0.14334158459E+02  0.30032928018E+02  0.00000000000E+00 0.  1.
</event>
<event>
 5    1  0.1245610E-004  0.9118800E+02  0.7818608E-02  0.1130116E+00
         25   -1    0    0    0    0  0.00000000000E+00  0.00000000000E+00  0.99999998245E-14  0.12500000000E+03  0.12500000000E+03 0.  0.
        -13    1    3    3    0    0  0.17907633527E+02 -0.23706252356E+02  0.28045074800E+02  0.40855931317E+02  0.10566000000E+00 0.  1.
         23    2    1    0    0    0  0.20784813685E+02  0.11171550075E+02 -0.15535026482E+02  0.96748468027E+02  0.92531708115E+02 0.  0.
         13    1    3    3    0    0  0.28771801585E+01  0.34877802431E+02 -0.43580101282E+02  0.55892536710E+02  0.10566000000E+00 0. -1.
         22    1    1    0    0    0 -0.20784813685E+02 -0.11171550075E+02  0.15535026482E+02  0.28251531973E+02  0.00000000000E+00 0. -1.
</event>
<event>
 5    1  0.1245610E-004  0.9118800E+02  0.7818608E-02  0.1130116E+00
         25   -1    0    0    0    0  0.00000000000E+00  0.00000000000E+00  0.99999998245E-14  0.12500000000E+03  0.12500000000E+03 0.  0.
        -13    1    3    3    0    0  0.11907880342E+02  0.20891225930E+02 -0.38121128198E+02  0.45071859449E+02  0.10566000000E+00 0. -1.
         23    2    1    0    0    0  0.31804962215E+02  0.49746230652E+01  0.21606231686E+01  0.92735921079E+02  0.86942396273E+02 0.  0.
         13    1    3    3    0    0  0.19897081873E+02 -0.15916602864E+02  0.40281751367E+02  0.47664061629E+02  0.10566000000E+00 0.  1.
         22    1    1    0    0    0 -0.31804962215E+02 -0.49746230652E+01 -0.21606231686E+01  0.32264078921E+02  0.00000000000E+00 0. -1.
</event>
<event>
 5    1  0.1245610E-004  0.9118800E+02  0.7818608E-02  0.1130116E+00
         25   -1    0    0    0    0  0.00000000000E+00  0.00000000000E+00  0.99999998245E-14  0.12500000000E+03  0.12500000000E+03 0.  0.
        -13    1    3    3    0    0  0.41706572462E+02 -0.63600668537E+01  0.44516532008E+02  0.61332058688E+02  0.10566000000E+00 0.  1.
         23    2    1    0    0    0  0.21805157964E+02  0.48141360420E+01  0.18003375134E+02  0.96316165949E+02  0.91945861718E+02 0.  0.
         13    1    3    3    0    0 -0.19901414498E+02  0.11174202896E+02 -0.26513156873E+02  0.34984107260E+02  0.10566000000E+00 0. -1.
         22    1    1    0    0    0 -0.21805157964E+02 -0.48141360420E+01 -0.18003375134E+02  0.28683834051E+02  0.00000000000E+00 0.  1.
</event>
<event>
 5    1  0.1245610E-004  0.9118800E+02  0.7818608E-02  0.1130116E+00
         25   -1    0    0    0    0  0.00000000000E+00  0.00000000000E+00  0.99999998245E-14  0.12500000000E+03  0.12500000000E+03 0.  0.
        -13    1    3    3    0    0 -0.73231210584E+01  0.39559732732E+02 -0.14012530979E+02  0.42602379562E+02  0.10566000000E+00 0. -1.
         23    2    1    0    0    0  0.13128681569E+02 -0.72263670389E+01 -0.25943923258E+02  0.95038861598E+02  0.90192657126E+02 0.  0.
         13    1    3    3    0    0  0.20451802628E+02 -0.46786099771E+02 -0.11931392279E+02  0.52436482036E+02  0.10566000000E+00 0.  1.
         22    1    1    0    0    0 -0.13128681569E+02  0.72263670389E+01  0.25943923258E+02  0.29961138402E+02  0.00000000000E+00 0.  1.
</event>
<event>
 5    1  0.1245610E-004  0.9118800E+02  0.7818608E-02  0.1130116E+00
         25   -1    0    0    0    0  0.00000000000E+00  0.00000000000E+00  0.99999998245E-14  0.12500000000E+03  0.12500000000E+03 0.  0.
        -13    1    3    3    0    0  0.11260804015E+02  0.48095854927E+02  0.24291460792E+02  0.55046373175E+02  0.10566000000E+00 0.  1.
         23    2    1    0    0    0  0.20324066819E+02  0.89424565289E+01  0.19367754027E+02  0.95535697584E+02  0.90878624528E+02 0.  0.
         13    1    3    3    0    0  0.90632628041E+01 -0.39153398398E+02 -0.49237067659E+01  0.40489324409E+02  0.10566000000E+00 0. -1.
         22    1    1    0    0    0 -0.20324066819E+02 -0.89424565289E+01 -0.19367754027E+02  0.29464302416E+02  0.00000000000E+00 0.  1.
</event>
<event>
 5    1  0.1245610E-004  0.9118800E+02  0.7818608E-02  0.1130116E+00
         25   -1    0    0    0    0  0.00000000000E+00  0.00000000000E+00  0.99999998245E-14  0.12500000000E+03  0.12500000000E+03 0.  0.
        -13    1    3    3    0    0  0.68704560199E+01  0.52462153704E+02 -0.12925290119E+02  0.54466090605E+02  0.10566000000E+00 0.  1.
         23    2    1    0    0    0 -0.11848008635E+02  0.44444885764E+02  0.75277506271E+00  0.78996849570E+02  0.64220031085E+02 0.  0.
         13    1    3    3    0    0 -0.18718464655E+02 -0.80172679399E+01  0.13678065182E+02  0.24530758965E+02  0.10566000000E+00 0. -1.
         22    1    1    0    0    0  0.11848008635E+02 -0.44444885764E+02 -0.75277506271E+00  0.46003150430E+02  0.00000000000E+00 0.  1.
</event>
<event>
 5    1  0.1245610E-004  0.9118800E+02  0.7818608E-02  0.1130116E+00
         25   -1    0    0    0    0  0.00000000000E+00  0.00000000000E+00  0.99999998245E-14  0.12500000000E+03  0.12500000000E+03 0.  0.
        -13    1    3    3    0    0 -0.61358343703E+01 -0.47001432672E+02 -0.14911870235E+02  0.49690624615E+02  0.10566000000E+00 0. -1.
         23    2    1    0    0    0  0.97632309216E+01 -0.22050829876E+02  0.18710890285E+02  0.94476940004E+02  0.89410485968E+02 0.  0.
         13    1    3    3    0    0  0.15899065292E+02  0.24950602796E+02  0.33622760521E+02  0.44786315389E+02  0.10566000000E+00 0.  1.
         22    1    1    0    0    0 -0.97632309216E+01  0.22050829876E+02 -0.18710890285E+02  0.30523059996E+02  0.00000000000E+00 0. -1.
</event>
<event>
 5    1  0.1245610E-004  0.9118800E+02  0.7818608E-02  0.1130116E+00
         25   -1    0    0    0    0  0.00000000000E+00  0.00000000000E+00  0.99999998245E-14  0.12500000000E+03  0.12500000000E+03 0.  0.
        -13    1    3    3    0    0  0.40536592277E+02 -0.18510876258E+02  0.28250162227E+02  0.52763156493E+02  0.10566000000E+00 0.  1.
         23    2    1    0    0    0  0.27120636397E+01 -0.62991249879E+01  0.31612408234E+02  0.92652223892E+02  0.86821978628E+02 0.  0.
         13    1    3    3    0    0 -0.37824528637E+02  0.12211751270E+02  0.33622460074E+01  0.39889067399E+02  0.10566000000E+00 0. -1.
         22    1    1    0    0    0 -0.27120636397E+01  0.62991249879E+01 -0.31612408234E+02  0.32347776108E+02  0.00000000000E+00 0.  1.
</event>
<event>
 5    1  0.1245610E-004  0.9118800E+02  0.7818608E-02  0.1130116E+00
         25   -1    0    0    0    0  0.00000000000E+00  0.00000000000E+00  0.99999998245E-14  0.12500000000E+03  0.12500000000E+03 0.  0.
        -13    1    3    3    0    0 -0.95566027551E+01  0.39534596016E+02  0.46912026992E+02  0.62089148640E+02  0.10566000000E+00 0.  1.
         23    2    1    0    0    0 -0.44787848799E+01  0.22710110706E+02  0.19094317830E+02  0.94993307152E+02  0.90129500099E+02 0.  0.
         13    1    3    3    0    0  0.50778178752E+01 -0.16824485311E+02 -0.27817709162E+02  0.32904158512E+02  0.10566000000E+00 0. -1.
         22    1    1    0    0    0  0.44787848799E+01 -0.22710110706E+02 -0.19094317830E+02  0.30006692848E+02  0.00000000000E+00 0.  1.
</event>
<event>
 5    1  0.1245610E-004  0.9118800E+02  0.7818608E-02  0.1130116E+00
         25   -1    0    0    0    0  0.00000000000E+00  0.00000000000E+00  0.99999998245E-14  0.12500000000E+03  0.12500000000E+03 0.  0.
        -13    1    3    3    0    0  0.28036340959E+02 -0.13284553383E+02 -0.16869664502E+02  0.35314480279E+02  0.10566000000E+00 0.  1.
         23    2    1    0    0    0 -0.14869045027E+02  0.25016042171E+02  0.19616919694E+01  0.95832567798E+02  0.91286044659E+02 0.  0.
         13    1    3    3    0    0 -0.42905385985E+02  0.38300595554E+02  0.18831356472E+02  0.60518087519E+02  0.10566000000E+00 0. -1.
         22    1    1    0    0    0  0.14869045027E+02 -0.25016042171E+02 -0.19616919694E+01  0.29167432202E+02  0.00000000000E+00 0. -1.
</event>
<event>
 5    1  0.1245610E-004  0.9118800E+02  0.7818608E-02  0.1130116E+00
         25   -1    0    0    0    0  0.00000000000E+00  0.00000000000E+00  0.99999998245E-14  0.12500000000E+03  0.12500000000E+03 0.  0.
        -13    1    3    3    0    0  0.38347796390E+01 -0.21928610150E+02 -0.56163907221E+02  0.60414941169E+02  0.10566000000E+00 0.  1.
         23    2    1    0    0    0  0.86073294098E+01 -0.12218523140E+01 -0.27905648669E+02  0.95771516114E+02  0.91202406922E+02 0.  0.
         13    1    3    3    0    0  0.47725497708E+01  0.20706757836E+02  0.28258258552E+02  0.35356574945E+02  0.10566000000E+00 0. -1.
         22    1    1    0    0    0 -0.86073294098E+01  0.12218523140E+01  0.27905648669E+02  0.29228483886E+02  0.00000000000E+00 0.  1.
</event>
<event>
 5    1  0.1245610E-004  0.9118800E+02  0.7818608E-02  0.1130116E+00
         25   -1    0    0    0    0  0.00000000000E+00  0.00000000000E+00  0.99999998245E-14  0.12500000000E+03  0.12500000000E+03 0.  0.
        -13    1    3    3    0    0 -0.22207682473E+02 -0.17160461067E+02  0.22091492832E+02  0.35717052012E+02  0.10566000000E+00 0. -1.
         23    2    1    0    0    0  0.60402874222E+01  0.27390768820E+02 -0.71808932655E+01  0.96046511147E+02  0.91578533438E+02 0.  0.
         13    1    3    3    0    0  0.28247969896E+02  0.44551229887E+02 -0.29272386097E+02  0.60329459135E+02  0.10566000000E+00 0.  1.
         22    1    1    0    0    0 -0.60402874222E+01 -0.27390768820E+02  0.71808932655E+01  0.28953488853E+02  0.00000000000E+00 0.  1.
</event>
<event>
 5    1  0.1245610E-004  0.9118800E+02  0.7818608E-02  0.1130116E+00
         25   -1    0    0    0    0  0.00000000000E+00  0.00000000000E+00  0.99999998245E-14  0.12500000000E+03  0.12500000000E+03 0.  0.
        -13    1    3    3    0    0  0.53481740810E+02  0.13547430768E+02  0.16684411958E+02  0.57638617670E+02  0.10566000000E+00 0.  1.
         23    2    1    0    0    0  0.22825487929E+02 -0.94831266268E+01  0.15142941467E+02  0.96013084571E+02  0.91532896505E+02 0.  0.
         13    1    3    3    0    0 -0.30656252881E+02 -0.23030557395E+02 -0.15414704906E+01  0.38374466901E+02  0.10566000000E+00 0. -1.
         22    1    1    0    0    0 -0.22825487929E+02  0.94831266268E+01 -0.15142941467E+02  0.28986915429E+02  0.00000000000E+00 0.  1.
</event>
<event>
 5    1  0.1245610E-004  0.9118800E+02  0.7818608E-02  0.1130116E+00
         25   -1    0    0    0    0  0.00000000000E+00  0.00000000000E+00  0.99999998245E-14  0.12500000000E+03  0.12500000000E+03 0.  0.
        -13    1    3    3    0    0 -0.18392875352E+02  0.42403549394E+02  0.30186536467E+01  0.46319351235E+02  0.10566000000E+00 0. -1.
         23    2    1    0    0    0 -0.12772604628E+02 -0.10171982510E+01 -0.24018343490E+02  0.97777675609E+02  0.93911761256E+02 0.  0.
         13    1    3    3    0    0  0.56202707243E+01 -0.43420747645E+02 -0.27036997137E+02  0.51458324373E+02  0.10566000000E+00 0.  1.
         22    1    1    0    0    0  0.12772604628E+02  0.10171982510E+01  0.24018343490E+02  0.27222324391E+02  0.00000000000E+00 0.  1.
</event>
<event>
 5    1  0.1245610E-004  0.9118800E+02  0.7818608E-02  0.1130116E+00
         25   -1    0    0    0    0  0.00000000000E+00  0.00000000000E+00  0.99999998245E-14  0.12500000000E+03  0.12500000000E+03 0.  0.
        -13    1    3    3    0    0  0.32720483580E+02  0.37817257273E+02  0.37294331725E+02  0.62383117397E+02  0.10566000000E+00 0.  1.
         23    2    1    0    0    0  0.18029742698E+02  0.17494358276E+02  0.16689502704E+02  0.94839368479E+02  0.89915750120E+02 0.  0.
         13    1    3    3    0    0 -0.14690740882E+02 -0.20322898996E+02 -0.20604829021E+02  0.32456251082E+02  0.10566000000E+00 0. -1.
         22    1    1    0    0    0 -0.18029742698E+02 -0.17494358276E+02 -0.16689502704E+02  0.30160631521E+02  0.00000000000E+00 0.  1.
</event>
<event>
 5    1  0.1245610E-004  0.9118800E+02  0.7818608E-02  0.1130116E+00
         25   -1    0    0    0    0  0.00000000000E+00  0.00000000000E+00  0.99999998245E-14  0.12500000000E+03  0.12500000000E+03 0.  0.
        -13    1    3    3    0    0 -0.46179681777E+02  0.12460539978E+01  0.57496463254E+00  0.46200188397E+02  0.10566000000E+00 0. -1.
         23    2    1    0    0    0 -0.54736800261E+01 -0.10068917467E+01  0.28723583488E+02  0.95742193308E+02  0.91162208875E+02 0.  0.
         13    1    3    3    0    0  0.40706001751E+02 -0.22529457445E+01  0.28148618856E+02  0.49542004911E+02  0.10566000000E+00 0.  1.
         22    1    1    0    0    0  0.54736800261E+01  0.10068917467E+01 -0.28723583488E+02  0.29257806692E+02  0.00000000000E+00 0.  1.
</event>
<event>
 5    1  0.1245610E-004  0.9118800E+02  0.7818608E-02  0.1130116E+00
         25   -1    0    0    0    0  0.00000000000E+00  0.00000000000E+00  0.99999998245E-14  0.12500000000E+03  0.12500000000E+03 0.  0.
        -13    1    3    3    0    0 -0.36547199786E+02 -0.21378994069E+02 -0.19675609712E+02  0.46689399024E+02  0.10566000000E+00 0. -1.
         23    2    1    0    0    0  0.14500357283E+02  0.14899397433E+01  0.71943253699E+01  0.10874458246E+03  0.10752276790E+03 0.  0.
         13    1    3    3    0    0  0.51047557068E+02  0.22868933813E+02  0.26869935082E+02  0.62055183440E+02  0.10566000000E+00 0.  1.
         22    1    1    0    0    0 -0.14500357283E+02 -0.14899397433E+01 -0.71943253699E+01  0.16255417537E+02  0.00000000000E+00 0.  1.
</event>
<event>
 5    1  0.1245610E-004  0.9118800E+02  0.7818608E-02  0.1130116E+00
         25   -1    0    0    0    0  0.00000000000E+00  0.00000000000E+00  0.99999998245E-14  0.12500000000E+03  0.12500000000E+03 0.  0.
        -13    1    3    3    0    0 -0.37214477879E+02 -0.38594641063E+02 -0.95729610200E+01  0.54462064130E+02  0.10566000000E+00 0. -1.
         23    2    1    0    0    0 -0.92643638099E+01  0.91565253683E+00 -0.19067035592E+02  0.10378164232E+03  0.10158942159E+03 0.  0.
         13    1    3    3    0    0  0.27950114069E+02  0.39510293600E+02 -0.94940745720E+01  0.49319578190E+02  0.10566000000E+00 0.  1.
         22    1    1    0    0    0  0.92643638099E+01 -0.91565253683E+00  0.19067035592E+02  0.21218357680E+02  0.00000000000E+00 0. -1.
</event>
<event>
 5    1  0.1245610E-004  0.9118800E+02  0.7818608E-02  0.1130116E+00
         25   -1    0    0    0    0  0.00000000000E+00  0.00000000000E+00  0.99999998245E-14  0.12500000000E+03  0.12500000000E+03 0.  0.
        -13    1    3    3    0    0 -0.19233992394E+02 -0.34268488144E+02  0.14158561638E+02  0.41770225936E+02  0.10566000000E+00 0. -1.
         23    2    1    0    0    0  0.48197141466E+01  0.12529014581E+02  0.26031863340E+02  0.95710688643E+02  0.91118999998E+02 0.  0.
         13    1    3    3    0    0  0.24053706540E+02  0.46797502725E+02  0.11873301702E+02  0.53940462707E+02  0.10566000000E+00 0.  1.
         22    1    1    0    0    0 -0.48197141466E+01 -0.12529014581E+02 -0.26031863340E+02  0.29289311357E+02  0.00000000000E+00 0.  1.
</event>
<event>
 5    1  0.1245610E-004  0.9118800E+02  0.7818608E-02  0.1130116E+00
         25   -1    0    0    0    0  0.00000000000E+00  0.00000000000E+00  0.99999998245E-14  0.12500000000E+03  0.12500000000E+03 0.  0.
        -13    1    3    3    0    0  0.39426689220E+02  0.44841031710E+02  0.14085733813E+02  0.61348194829E+02  0.10566000000E+00 0.  1.
         23    2    1    0    0    0  0.12448231962E+02  0.26628109911E+02  0.46396696478E+01  0.95241954855E+02  0.90473690727E+02 0.  0.
         13    1    3    3    0    0 -0.26978457258E+02 -0.18212921799E+02 -0.94460641655E+01  0.33893760026E+02  0.10566000000E+00 0. -1.
         22    1    1    0    0    0 -0.12448231962E+02 -0.26628109911E+02 -0.46396696478E+01  0.29758045145E+02  0.00000000000E+00 0.  1.
</event>
<event>
 5    1  0.1245610E-004  0.9118800E+02  0.7818608E-02  0.1130116E+00
         25   -1    0    0    0    0  0.00000000000E+00  0.00000000000E+00  0.99999998245E-14  0.12500000000E+03  0.12500000000E+03 0.  0.
        -13    1    3    3    0    0 -0.88356808284E+01 -0.41617213475E+02 -0.93086362632E+01  0.43551390176E+02  0.10566000000E+00 0.  1.
         23    2    1    0    0    0  0.15682287638E+02 -0.20098971942E+02  0.23866528104E+02  0.90078459621E+02  0.83033817841E+02 0.  0.
         13    1    3    3    0    0  0.24517968467E+02  0.21518241533E+02  0.33175164367E+02  0.46527069446E+02  0.10566000000E+00 0. -1.
         22    1    1    0    0    0 -0.15682287638E+02  0.20098971942E+02 -0.23866528104E+02  0.34921540379E+02  0.00000000000E+00 0.  1.
</event>
<event>
 5    1  0.1245610E-004  0.9118800E+02  0.7818608E-02  0.1130116E+00
         25   -1    0    0    0    0  0.00000000000E+00  0.00000000000E+00  0.99999998245E-14  0.12500000000E+03  0.12500000000E+03 0.  0.
        -13    1    3    3    0    0  0.15407196345E+02 -0.38796951323E+02  0.46315268414E+02  0.62351426475E+02  0.10566000000E+00 0.  1.
         23    2    1    0    0    0  0.77477764634E+01 -0.14875410307E+02  0.14973294196E+02  0.10251655251E+03  0.10002068850E+03 0.  0.
         13    1    3    3    0    0 -0.76594198820E+01  0.23921541016E+02 -0.31341974218E+02  0.40165126035E+02  0.10566000000E+00 0. -1.
         22    1    1    0    0    0 -0.77477764634E+01  0.14875410307E+02 -0.14973294196E+02  0.22483447489E+02  0.00000000000E+00 0.  1.
</event>
<event>
 5    1  0.1245610E-004  0.9118800E+02  0.7818608E-02  0.1130116E+00
         25   -1    0    0    0    0  0.00000000000E+00  0.00000000000E+00  0.99999998245E-14  0.12500000000E+03  0.12500000000E+03 0.  0.
        -13    1    3    3    0    0 -0.35967742963E+02 -0.14858679633E+02  0.15984658150E+02  0.42071122572E+02  0.10566000000E+00 0.  1.
         23    2    1    0    0    0 -0.94928081233E+01  0.56500220995E+01 -0.26571093972E+02  0.96223982370E+02  0.91820453018E+02 0.  0.
         13    1    3    3    0    0  0.26474934839E+02  0.20508701733E+02 -0.42555752122E+02  0.54152859797E+02  0.10566000000E+00 0. -1.
         22    1    1    0    0    0  0.94928081233E+01 -0.56500220995E+01  0.26571093972E+02  0.28776017630E+02  0.00000000000E+00 0.  1.
</event>
<event>
 5    1  0.1245610E-004  0.9118800E+02  0.7818608E-02  0.1130116E+00
         25   -1    0    0    0    0  0.00000000000E+00  0.00000000000E+00  0.99999998245E-14  0.12500000000E+03  0.12500000000E+03 0.  0.
        -13    1    3    3    0    0 -0.33346261380E+02  0.46284222845E+02 -0.18133192370E+02  0.59858385060E+02  0.10566000000E+00 0.  1.
         23    2    1    0    0    0 -0.16621815205E+02  0.27619787073E+02  0.29785302526E+01  0.92627032556E+02  0.86785702388E+02 0.  0.
         13    1    3    3    0    0  0.16724446176E+02 -0.18664435772E+02  0.21111722622E+02  0.32768647496E+02  0.10566000000E+00 0. -1.
         22    1    1    0    0    0  0.16621815205E+02 -0.27619787073E+02 -0.29785302526E+01  0.32372967444E+02  0.00000000000E+00 0.  1.
</event>
<event>
 5    1  0.1245610E-004  0.9118800E+02  0.7818608E-02  0.1130116E+00
         25   -1    0    0    0    0  0.00000000000E+00  0.00000000000E+00  0.99999998245E-14  0.12500000000E+03  0.12500000000E+03 0.  0.
        -13    1    3    3    0    0  0.29670252468E+02 -0.17805830699E+02 -0.44013779961E+02  0.55987458228E+02  0.10566000000E+00 0. -1.
         23    2    1    0    0    0 -0.11162572238E+01 -0.21973178762E+02 -0.20199972923E+02  0.95131864451E+02  0.90321459868E+02 0.  0.
         13    1    3    3    0    0 -0.30786509692E+02 -0.41673480621E+01  0.23813807037E+02  0.39144406222E+02  0.10566000000E+00 0.  1.
         22    1    1    0    0    0  0.11162572238E+01  0.21973178762E+02  0.20199972923E+02  0.29868135549E+02  0.00000000000E+00 0. -1.
</event>
<event>
 5    1  0.1245610E-004  0.9118800E+02  0.7818608E-02  0.1130116E+00
         25   -1    0    0    0    0  0.00000000000E+00  0.00000000000E+00  0.99999998245E-14  0.12500000000E+03  0.12500000000E+03 0.  0.
        -13    1    3    3    0    0 -0.40921391586E+02 -0.39703523522E+02 -0.81288183426E+01  0.57593566664E+02  0.10566000000E+00 0.  1.
         23    2    1    0    0    0 -0.21907199728E+02 -0.15603884192E+02  0.13264898031E+02  0.95010599846E+02  0.90153480031E+02 0.  0.
         13    1    3    3    0    0  0.19014191858E+02  0.24099639330E+02  0.21393716374E+02  0.37417033183E+02  0.10566000000E+00 0. -1.
         22    1    1    0    0    0  0.21907199728E+02  0.15603884192E+02 -0.13264898031E+02  0.29989400154E+02  0.00000000000E+00 0.  1.
</event>
<event>
 5    1  0.1245610E-004  0.9118800E+02  0.7818608E-02  0.1130116E+00
         25   -1    0    0    0    0  0.00000000000E+00  0.00000000000E+00  0.99999998245E-14  0.12500000000E+03  0.12500000000E+03 0.  0.
        -13    1    3    3    0    0  0.86908701271E+01 -0.41077287585E+02  0.17597721487E+02  0.45525440629E+02  0.10566000000E+00 0.  1.
         23    2    1    0    0    0 -0.24850380537E+02 -0.16027007266E+02 -0.77061639564E+01  0.94442000431E+02  0.89361625476E+02 0.  0.
         13    1    3    3    0    0 -0.33541250665E+02  0.25050280320E+02 -0.25303885443E+02  0.48916559801E+02  0.10566000000E+00 0. -1.
         22    1    1    0    0    0  0.24850380537E+02  0.16027007266E+02  0.77061639564E+01  0.30557999569E+02  0.00000000000E+00 0. -1.
</event>
<event>
 5    1  0.1245610E-004  0.9118800E+02  0.7818608E-02  0.1130116E+00
         25   -1    0    0    0    0  0.00000000000E+00  0.00000000000E+00  0.99999998245E-14  0.12500000000E+03  0.12500000000E+03 0.  0.
        -13    1    3    3    0    0 -0.97614533576E+01  0.21195025042E+02 -0.33049835446E+02  0.40457605530E+02  0.10566000000E+00 0.  1.
         23    2    1    0    0    0 -0.25159370148E+02 -0.50443082658E+01  0.13452020698E+02  0.96027671599E+02  0.91552814810E+02 0.  0.
         13    1    3    3    0    0 -0.15397916790E+02 -0.26239333308E+02  0.46501856145E+02  0.55570066069E+02  0.10566000000E+00 0. -1.
         22    1    1    0    0    0  0.25159370148E+02  0.50443082658E+01 -0.13452020698E+02  0.28972328401E+02  0.00000000000E+00 0. -1.
</event>
<event>
 5    1  0.1245610E-004  0.9118800E+02  0.7818608E-02  0.1130116E+00
         25   -1    0    0    0    0  0.00000000000E+00  0.00000000000E+00  0.99999998245E-14  0.12500000000E+03  0.12500000000E+03 0.  0.
        -13    1    3    3    0    0  0.31519770117E+02  0.27959776000E+02 -0.36617124908E+01  0.42292603190E+02  0.10566000000E+00 0. -1.
         23    2    1    0    0    0 -0.18962023221E+02  0.21926583038E+02  0.89251074215E+01  0.94668648054E+02  0.89678102196E+02 0.  0.
         13    1    3    3    0    0 -0.50481793339E+02 -0.60331929616E+01  0.12586819912E+02  0.52376044864E+02  0.10566000000E+00 0.  1.
         22    1    1    0    0    0  0.18962023221E+02 -0.21926583038E+02 -0.89251074215E+01  0.30331351946E+02  0.00000000000E+00 0.  1.
</event>
<event>
 5    1  0.1245610E-004  0.9118800E+02  0.7818608E-02  0.1130116E+00
         25   -1    0    0    0    0  0.00000000000E+00  0.00000000000E+00  0.99999998245E-14  0.12500000000E+03  0.12500000000E+03 0.  0.
        -13    1    3    3    0    0 -0.25987860418E+02  0.38079621548E+01 -0.27004494381E+02  0.37671253572E+02  0.10566000000E+00 0.  1.
         23    2    1    0    0    0  0.27045815927E+02 -0.83941137834E+01 -0.56924743366E+01  0.96115028657E+02  0.91672008620E+02 0.  0.
         13    1    3    3    0    0  0.53033676345E+02 -0.12202075938E+02  0.21312020044E+02  0.58443775086E+02  0.10566000000E+00 0. -1.
         22    1    1    0    0    0 -0.27045815927E+02  0.83941137834E+01  0.56924743366E+01  0.28884971343E+02  0.00000000000E+00 0. -1.
</event>
<event>
 5    1  0.1245610E-004  0.9118800E+02  0.7818608E-02  0.1130116E+00
         25   -1    0    0    0    0  0.00000000000E+00  0.00000000000E+00  0.99999998245E-14  0.12500000000E+03  0.12500000000E+03 0.  0.
        -13    1    3    3    0    0  0.53940891730E+01  0.22499202394E+02 -0.51083113777E+02  0.56078569735E+02  0.10566000000E+00 0. -1.
         23    2    1    0    0    0 -0.42105852069E+01  0.27431963661E+02 -0.15611493109E+02  0.93157255534E+02  0.87546067207E+02 0.  0.
         13    1    3    3    0    0 -0.96046743799E+01  0.49327612670E+01  0.35471620668E+02  0.37078685798E+02  0.10566000000E+00 0.  1.
         22    1    1    0    0    0  0.42105852069E+01 -0.27431963661E+02  0.15611493109E+02  0.31842744466E+02  0.00000000000E+00 0. -1.
</event>
<event>
 5    1  0.1245610E-004  0.9118800E+02  0.7818608E-02  0.1130116E+00
         25   -1    0    0    0    0  0.00000000000E+00  0.00000000000E+00  0.99999998245E-14  0.12500000000E+03  0.12500000000E+03 0.  0.
        -13    1    3    3    0    0  0.11907760231E+02  0.47281316882E+02 -0.33655884124E+02  0.59245652837E+02  0.10566000000E+00 0.  1.
         23    2    1    0    0    0 -0.29559127245E+01  0.19209150812E+02 -0.27053367471E+02  0.91689137110E+02  0.85424143411E+02 0.  0.
         13    1    3    3    0    0 -0.14863672956E+02 -0.28072166070E+02  0.66025166527E+01  0.32443484273E+02  0.10566000000E+00 0. -1.
         22    1    1    0    0    0  0.29559127245E+01 -0.19209150812E+02  0.27053367471E+02  0.33310862890E+02  0.00000000000E+00 0.  1.
</event>
<event>
 5    1  0.1245610E-004  0.9118800E+02  0.7818608E-02  0.1130116E+00
         25   -1    0    0    0    0  0.00000000000E+00  0.00000000000E+00  0.99999998245E-14  0.12500000000E+03  0.12500000000E+03 0.  0.
        -13    1    3    3    0    0 -0.16884310176E+02  0.39698921738E+02  0.44019653976E+02  0.61634612171E+02  0.10566000000E+00 0.  1.
         23    2    1    0    0    0 -0.10754580667E+02  0.13205407580E+02  0.24722087669E+02  0.94979583391E+02  0.90110464695E+02 0.  0.
         13    1    3    3    0    0  0.61297295082E+01 -0.26493514158E+02 -0.19297566307E+02  0.33344971220E+02  0.10566000000E+00 0. -1.
         22    1    1    0    0    0  0.10754580667E+02 -0.13205407580E+02 -0.24722087669E+02  0.30020416609E+02  0.00000000000E+00 0.  1.
</event>
<event>
 5    1  0.1245610E-004  0.9118800E+02  0.7818608E-02  0.1130116E+00
         25   -1    0    0    0    0  0.00000000000E+00  0.00000000000E+00  0.99999998245E-14  0.12500000000E+03  0.12500000000E+03 0.  0.
        -13    1    3    3    0    0 -0.32475348415E+02  0.20892826821E+02  0.46358945098E+02  0.60335076216E+02  0.10566000000E+00 0.  1.
         23    2    1    0    0    0 -0.51754817042E+01  0.15684517126E+02  0.23254734556E+02  0.96476810002E+02  0.92163997855E+02 0.  0.
         13    1    3    3    0    0  0.27299866711E+02 -0.52083096949E+01 -0.23104210542E+02  0.36141733787E+02  0.10566000000E+00 0. -1.
         22    1    1    0    0    0  0.51754817042E+01 -0.15684517126E+02 -0.23254734556E+02  0.28523189998E+02  0.00000000000E+00 0.  1.
</event>
<event>
 5    1  0.1245610E-004  0.9118800E+02  0.7818608E-02  0.1130116E+00
         25   -1    0    0    0    0  0.00000000000E+00  0.00000000000E+00  0.99999998245E-14  0.12500000000E+03  0.12500000000E+03 0.  0.
        -13    1    3    3    0    0 -0.70647606166E+01 -0.32959647957E+02 -0.12381675203E+02  0.35910531616E+02  0.10566000000E+00 0. -1.
         23    2    1    0    0    0 -0.15250495646E+02  0.22471755047E+02  0.97347370965E+01  0.96150000023E+02  0.91719681671E+02 0.  0.
         13    1    3    3    0    0 -0.81857350292E+01  0.55431403004E+02  0.22116412299E+02  0.60239468408E+02  0.10566000000E+00 0.  1.
         22    1    1    0    0    0  0.15250495646E+02 -0.22471755047E+02 -0.97347370965E+01  0.28849999977E+02  0.00000000000E+00 0.  1.
</event>
<event>
 5    1  0.1245610E-004  0.9118800E+02  0.7818608E-02  0.1130116E+00
         25   -1    0    0    0    0  0.00000000000E+00  0.00000000000E+00  0.99999998245E-14  0.12500000000E+03  0.12500000000E+03 0.  0.
        -13    1    3    3    0    0 -0.30113464192E+02  0.54608262751E+01 -0.77846081732E+01  0.31579307112E+02  0.10566000000E+00 0. -1.
         23    2    1    0    0    0  0.27537210494E+02  0.63031238998E+01  0.14320168427E+02  0.93328331959E+02  0.87789993677E+02 0.  0.
         13    1    3    3    0    0  0.57650674686E+02  0.84229762469E+00  0.22104776600E+02  0.61749024847E+02  0.10566000000E+00 0.  1.
         22    1    1    0    0    0 -0.27537210494E+02 -0.63031238998E+01 -0.14320168427E+02  0.31671668041E+02  0.00000000000E+00 0.  1.
</event>
<event>
 5    1  0.1245610E-004  0.9118800E+02  0.7818608E-02  0.1130116E+00
         25   -1    0    0    0    0  0.00000000000E+00  0.00000000000E+00  0.99999998245E-14  0.12500000000E+03  0.12500000000E+03 0.  0.
        -13    1    3    3    0    0 -0.47112285622E+02 -0.17489466302E+02 -0.81977494828E+01  0.50918200564E+02  0.10566000000E+00 0.  1.
         23    2    1    0    0    0 -0.16859271458E+02  0.10319881954E+02 -0.23070262855E+02  0.94619545332E+02  0.89609633036E+02 0.  0.
         13    1    3    3    0    0  0.30253014164E+02  0.27809348257E+02 -0.14872513372E+02  0.43701344768E+02  0.10566000000E+00 0. -1.
         22    1    1    0    0    0  0.16859271458E+02 -0.10319881954E+02  0.23070262855E+02  0.30380454668E+02  0.00000000000E+00 0. -1.
</event>
<event>
 5    1  0.1245610E-004  0.9118800E+02  0.7818608E-02  0.1130116E+00
         25   -1    0    0    0    0  0.00000000000E+00  0.00000000000E+00  0.99999998245E-14  0.12500000000E+03  0.12500000000E+03 0.  0.
        -13    1    3    3    0    0 -0.36026418939E+01  0.89106987424E+01  0.39947355571E+02  0.41087491550E+02  0.10566000000E+00 0.  1.
         23    2    1    0    0    0 -0.57720839976E+01 -0.27370577262E+02 -0.24364683071E+01  0.96921505897E+02  0.92765168432E+02 0.  0.
         13    1    3    3    0    0 -0.21694421037E+01 -0.36281276004E+02 -0.42383823878E+02  0.55834014347E+02  0.10566000000E+00 0. -1.
         22    1    1    0    0    0  0.57720839976E+01  0.27370577262E+02  0.24364683071E+01  0.28078494103E+02  0.00000000000E+00 0.  1.
</event>
<event>
 5    1  0.1245610E-004  0.9118800E+02  0.7818608E-02  0.1130116E+00
         25   -1    0    0    0    0  0.00000000000E+00  0.00000000000E+00  0.99999998245E-14  0.12500000000E+03  0.12500000000E+03 0.  0.
        -13    1    3    3    0    0 -0.28999839493E+02  0.33764072888E+02 -0.23336682291E+02  0.50255499331E+02  0.10566000000E+00 0.  1.
         23    2    1    0    0    0 -0.24182753359E+01  0.26760455640E+02  0.12454192174E+02  0.95384515125E+02  0.90670440505E+02 0.  0.
         13    1    3    3    0    0  0.26581564157E+02 -0.70036172477E+01  0.35790874464E+02  0.45129015794E+02  0.10566000000E+00 0. -1.
         22    1    1    0    0    0  0.24182753359E+01 -0.26760455640E+02 -0.12454192174E+02  0.29615484875E+02  0.00000000000E+00 0.  1.
</event>
<event>
 5    1  0.1245610E-004  0.9118800E+02  0.7818608E-02  0.1130116E+00
         25   -1    0    0    0    0  0.00000000000E+00  0.00000000000E+00  0.99999998245E-14  0.12500000000E+03  0.12500000000E+03 0.  0.
        -13    1    3    3    0    0 -0.10504536444E+02  0.36096131774E+02 -0.74259175449E+01  0.38320117828E+02  0.10566000000E+00 0.  1.
         23    2    1    0    0    0 -0.18938924336E+02 -0.19932643117E+02  0.66697102915E+01  0.96707277402E+02  0.92476047442E+02 0.  0.
         13    1    3    3    0    0 -0.84343878923E+01 -0.56028774891E+02  0.14095627836E+02  0.58387159573E+02  0.10566000000E+00 0. -1.
         22    1    1    0    0    0  0.18938924336E+02  0.19932643117E+02 -0.66697102915E+01  0.28292722598E+02  0.00000000000E+00 0. -1.
</event>
<event>
 5    1  0.1245610E-004  0.9118800E+02  0.7818608E-02  0.1130116E+00
         25   -1    0    0    0    0  0.00000000000E+00  0.00000000000E+00  0.99999998245E-14  0.12500000000E+03  0.12500000000E+03 0.  0.
        -13    1    3    3    0    0  0.86604890448E+01  0.45603100496E+00  0.34549219203E+02  0.35621226065E+02  0.10566000000E+00 0. -1.
         23    2    1    0    0    0  0.57913106238E+01  0.16983753187E+02 -0.23150192596E+02  0.95709753018E+02  0.91117716469E+02 0.  0.
         13    1    3    3    0    0 -0.28691784210E+01  0.16527722182E+02 -0.57699411799E+02  0.60088526953E+02  0.10566000000E+00 0.  1.
         22    1    1    0    0    0 -0.57913106238E+01 -0.16983753187E+02  0.23150192596E+02  0.29290246982E+02  0.00000000000E+00 0.  1.
</event>
<event>
 5    1  0.1245610E-004  0.9118800E+02  0.7818608E-02  0.1130116E+00
         25   -1    0    0    0    0  0.00000000000E+00  0.00000000000E+00  0.99999998245E-14  0.12500000000E+03  0.12500000000E+03 0.  0.
        -13    1    3    3    0    0  0.17687349389E+02  0.37881123171E+02  0.14124075188E+02  0.44128477031E+02  0.10566000000E+00 0. -1.
         23    2    1    0    0    0  0.48032209751E+01  0.43522643989E+01 -0.26129850294E+02  0.98078220462E+02  0.94310949075E+02 0.  0.
         13    1    3    3    0    0 -0.12884128414E+02 -0.33528858772E+02 -0.40253925482E+02  0.53949743431E+02  0.10566000000E+00 0.  1.
         22    1    1    0    0    0 -0.48032209751E+01 -0.43522643989E+01  0.26129850294E+02  0.26921779538E+02  0.00000000000E+00 0.  1.
</event>
<event>
 5    1  0.1245610E-004  0.9118800E+02  0.7818608E-02  0.1130116E+00
         25   -1    0    0    0    0  0.00000000000E+00  0.00000000000E+00  0.99999998245E-14  0.12500000000E+03  0.12500000000E+03 0.  0.
        -13    1    3    3    0    0 -0.10893304290E+02  0.10602379916E-01  0.33793237023E+02  0.35505749159E+02  0.10566000000E+00 0. -1.
         23    2    1    0    0    0 -0.14721284747E+02 -0.60703723433E+00 -0.25834410439E+02  0.95259430376E+02  0.90497831985E+02 0.  0.
         13    1    3    3    0    0 -0.38279804563E+01 -0.61763961424E+00 -0.59627647463E+02  0.59753681217E+02  0.10566000000E+00 0.  1.
         22    1    1    0    0    0  0.14721284747E+02  0.60703723433E+00  0.25834410439E+02  0.29740569624E+02  0.00000000000E+00 0.  1.
</event>
<event>
 5    1  0.1245610E-004  0.9118800E+02  0.7818608E-02  0.1130116E+00
         25   -1    0    0    0    0  0.00000000000E+00  0.00000000000E+00  0.99999998245E-14  0.12500000000E+03  0.12500000000E+03 0.  0.
        -13    1    3    3    0    0  0.32177797841E+02  0.64178138482E+01  0.19615286563E+01  0.32870317419E+02  0.10566000000E+00 0.  1.
         23    2    1    0    0    0 -0.24117228831E+02 -0.18287923378E+02 -0.31998917404E+01  0.94564360117E+02  0.89532619917E+02 0.  0.
         13    1    3    3    0    0 -0.56295026672E+02 -0.24705737226E+02 -0.51614203968E+01  0.61694042698E+02  0.10566000000E+00 0. -1.
         22    1    1    0    0    0  0.24117228831E+02  0.18287923378E+02  0.31998917404E+01  0.30435639883E+02  0.00000000000E+00 0. -1.
</event>
<event>
 5    1  0.1245610E-004  0.9118800E+02  0.7818608E-02  0.1130116E+00
         25   -1    0    0    0    0  0.00000000000E+00  0.00000000000E+00  0.99999998245E-14  0.12500000000E+03  0.12500000000E+03 0.  0.
        -13    1    3    3    0    0  0.41941109621E+02  0.36302291100E+01  0.23477117295E+02  0.48201882123E+02  0.10566000000E+00 0. -1.
         23    2    1    0    0    0  0.16976976320E+02  0.19478627757E+02 -0.13739343169E+02  0.95735615246E+02  0.91153188708E+02 0.  0.
         13    1    3    3    0    0 -0.24964133301E+02  0.15848398647E+02 -0.37216460464E+02  0.47533733124E+02  0.10566000000E+00 0.  1.
         22    1    1    0    0    0 -0.16976976320E+02 -0.19478627757E+02  0.13739343169E+02  0.29264384754E+02  0.00000000000E+00 0.  1.
</event>
<event>
 5    1  0.1245610E-004  0.9118800E+02  0.7818608E-02  0.1130116E+00
         25   -1    0    0    0    0  0.00000000000E+00  0.00000000000E+00  0.99999998245E-14  0.12500000000E+03  0.12500000000E+03 0.  0.
        -13    1    3    3    0    0  0.46828064693E+02 -0.50850803039E+01  0.67451950591E+01  0.47583973195E+02  0.10566000000E+00 0.  1.
         23    2    1    0    0    0  0.79212611957E+01  0.17414400734E+02  0.22733920288E+02  0.95287395544E+02  0.90536450594E+02 0.  0.
         13    1    3    3    0    0 -0.38906803497E+02  0.22499481038E+02  0.15988725229E+02  0.47703422350E+02  0.10566000000E+00 0. -1.
         22    1    1    0    0    0 -0.79212611957E+01 -0.17414400734E+02 -0.22733920288E+02  0.29712604456E+02  0.00000000000E+00 0.  1.
</event>
<event>
 5    1  0.1245610E-004  0.9118800E+02  0.7818608E-02  0.1130116E+00
         25   -1    0    0    0    0  0.00000000000E+00  0.00000000000E+00  0.99999998245E-14  0.12500000000E+03  0.12500000000E+03 0.  0.
        -13    1    3    3    0    0  0.17141516642E+02  0.31912550006E+02  0.57714776574E+01  0.36681924146E+02  0.10566000000E+00 0.  1.
         23    2    1    0    0    0 -0.28003678085E+02 -0.40082773031E+00 -0.11351299047E+02  0.94780492406E+02  0.89833863890E+02 0.  0.
         13    1    3    3    0    0 -0.45145194727E+02 -0.32313377736E+02 -0.17122776705E+02  0.58098568260E+02  0.10566000000E+00 0. -1.
         22    1    1    0    0    0  0.28003678085E+02  0.40082773031E+00  0.11351299047E+02  0.30219507594E+02  0.00000000000E+00 0. -1.
</event>
<event>
 5    1  0.1245610E-004  0.9118800E+02  0.7818608E-02  0.1130116E+00
         25   -1    0    0    0    0  0.00000000000E+00  0.00000000000E+00  0.99999998245E-14  0.12500000000E+03  0.12500000000E+03 0.  0.
        -13    1    3    3    0    0  0.24041626186E+02  0.32704876342E+02 -0.29354442496E+02  0.50092945457E+02  0.10566000000E+00 0. -1.
         23    2    1    0    0    0  0.25739067456E+02  0.77623503365E+01  0.96623651868E+01  0.96432273853E+02  0.92103574649E+02 0.  0.
         13    1    3    3    0    0  0.16974412694E+01 -0.24942526005E+02  0.39016807683E+02  0.46339328396E+02  0.10566000000E+00 0.  1.
         22    1    1    0    0    0 -0.25739067456E+02 -0.77623503365E+01 -0.96623651868E+01  0.28567726147E+02  0.00000000000E+00 0. -1.
</event>
<event>
 5    1  0.1245610E-004  0.9118800E+02  0.7818608E-02  0.1130116E+00
         25   -1    0    0    0    0  0.00000000000E+00  0.00000000000E+00  0.99999998245E-14  0.12500000000E+03  0.12500000000E+03 0.  0.
        -13    1    3    3    0    0  0.54375186546E+02 -0.26357541578E+02  0.21122236628E+01  0.60463654891E+02  0.10566000000E+00 0. -1.
         23    2    1    0    0    0  0.21521262865E+02 -0.16911321280E+02 -0.86368543945E+01  0.96298906004E+02  0.91922393904E+02 0.  0.
         13    1    3    3    0    0 -0.32853923681E+02  0.94462202976E+01 -0.10749078057E+02  0.35835251112E+02  0.10566000000E+00 0.  1.
         22    1    1    0    0    0 -0.21521262865E+02  0.16911321280E+02  0.86368543945E+01  0.28701093996E+02  0.00000000000E+00 0. -1.
</event>
<event>
 5    1  0.1245610E-004  0.9118800E+02  0.7818608E-02  0.1130116E+00
         25   -1    0    0    0    0  0.00000000000E+00  0.00000000000E+00  0.99999998245E-14  0.12500000000E+03  0.12500000000E+03 0.  0.
        -13    1    3    3    0    0  0.49480469156E+02  0.24212381586E+02  0.13171922117E+01  0.55102653378E+02  0.10566000000E+00 0. -1.
         23    2    1    0    0    0  0.11778110463E+02  0.25334771341E+02 -0.11280347062E+02  0.94869936030E+02  0.89958234795E+02 0.  0.
         13    1    3    3    0    0 -0.37702358693E+02  0.11223897558E+01 -0.12597539274E+02  0.39767282652E+02  0.10566000000E+00 0.  1.
         22    1    1    0    0    0 -0.11778110463E+02 -0.25334771341E+02  0.11280347062E+02  0.30130063970E+02  0.00000000000E+00 0. -1.
</event>
<event>
 5    1  0.1245610E-004  0.9118800E+02  0.7818608E-02  0.1130116E+00
         25   -1    0    0    0    0  0.00000000000E+00  0.00000000000E+00  0.99999998245E-14  0.12500000000E+03  0.12500000000E+03 0.  0.
        -13    1    3    3    0    0  0.18677891919E+02  0.22550135281E+02  0.17364814581E+02  0.34042916990E+02  0.10566000000E+00 0.  1.
         23    2    1    0    0    0 -0.23663907063E+02 -0.17815800885E+02 -0.10140087546E+01  0.95361992773E+02  0.90639385441E+02 0.  0.
         13    1    3    3    0    0 -0.42341798981E+02 -0.40365936166E+02 -0.18378823336E+02  0.61319075782E+02  0.10566000000E+00 0. -1.
         22    1    1    0    0    0  0.23663907063E+02  0.17815800885E+02  0.10140087546E+01  0.29638007227E+02  0.00000000000E+00 0. -1.
</event>
<event>
 5    1  0.1245610E-004  0.9118800E+02  0.7818608E-02  0.1130116E+00
         25   -1    0    0    0    0  0.00000000000E+00  0.00000000000E+00  0.99999998245E-14  0.12500000000E+03  0.12500000000E+03 0.  0.
        -13    1    3    3    0    0 -0.17614779845E+02 -0.27737719827E+02 -0.13340024307E+02  0.35463065050E+02  0.10566000000E+00 0. -1.
         23    2    1    0    0    0  0.38911561611E+01  0.28095966532E+02 -0.63911494501E+00  0.96628660596E+02  0.92369719871E+02 0.  0.
         13    1    3    3    0    0  0.21505936006E+02  0.55833686359E+02  0.12700909362E+02  0.61165595547E+02  0.10566000000E+00 0.  1.
         22    1    1    0    0    0 -0.38911561611E+01 -0.28095966532E+02  0.63911494501E+00  0.28371339404E+02  0.00000000000E+00 0.  1.
</event>
<event>
 5    1  0.1245610E-004  0.9118800E+02  0.7818608E-02  0.1130116E+00
         25   -1    0    0    0    0  0.00000000000E+00  0.00000000000E+00  0.99999998245E-14  0.12500000000E+03  0.12500000000E+03 0.  0.
        -13    1    3    3    0    0  0.53376742784E+02 -0.40491716413E+01  0.31601381346E+02  0.62162134200E+02  0.10566000000E+00 0. -1.
         23    2    1    0    0    0  0.25195476683E+02 -0.58055806065E+01  0.17943582440E+02  0.93527965394E+02  0.88073783548E+02 0.  0.
         13    1    3    3    0    0 -0.28181266101E+02 -0.17564089652E+01 -0.13657798906E+02  0.31365831194E+02  0.10566000000E+00 0.  1.
         22    1    1    0    0    0 -0.25195476683E+02  0.58055806065E+01 -0.17943582440E+02  0.31472034606E+02  0.00000000000E+00 0. -1.
</event>
<event>
 5    1  0.1245610E-004  0.9118800E+02  0.7818608E-02  0.1130116E+00
         25   -1    0    0    0    0  0.00000000000E+00  0.00000000000E+00  0.99999998245E-14  0.12500000000E+03  0.12500000000E+03 0.  0.
        -13    1    3    3    0    0 -0.16033130193E+02 -0.44646105960E+02 -0.26328949568E+02  0.54254592346E+02  0.10566000000E+00 0. -1.
         23    2    1    0    0    0  0.14173368322E+02 -0.18060385146E+02 -0.19093898022E+02  0.95139678118E+02  0.90332272913E+02 0.  0.
         13    1    3    3    0    0  0.30206498515E+02  0.26585720814E+02  0.72350515461E+01  0.40885085773E+02  0.10566000000E+00 0.  1.
         22    1    1    0    0    0 -0.14173368322E+02  0.18060385146E+02  0.19093898022E+02  0.29860321882E+02  0.00000000000E+00 0. -1.
</event>
<event>
 5    1  0.1245610E-004  0.9118800E+02  0.7818608E-02  0.1130116E+00
         25   -1    0    0    0    0  0.00000000000E+00  0.00000000000E+00  0.99999998245E-14  0.12500000000E+03  0.12500000000E+03 0.  0.
        -13    1    3    3    0    0 -0.15071925581E+02  0.81459706429E+01 -0.32948296463E+02  0.37136520870E+02  0.10566000000E+00 0. -1.
         23    2    1    0    0    0  0.29661218041E+02 -0.69068016499E+01 -0.26840682029E+00  0.94544067788E+02  0.89504284517E+02 0.  0.
         13    1    3    3    0    0  0.44733143622E+02 -0.15052772293E+02  0.32679889643E+02  0.57407546918E+02  0.10566000000E+00 0.  1.
         22    1    1    0    0    0 -0.29661218041E+02  0.69068016499E+01  0.26840682029E+00  0.30455932212E+02  0.00000000000E+00 0.  1.
</event>
<event>
 5    1  0.1245610E-004  0.9118800E+02  0.7818608E-02  0.1130116E+00
         25   -1    0    0    0    0  0.00000000000E+00  0.00000000000E+00  0.99999998245E-14  0.12500000000E+03  0.12500000000E+03 0.  0.
        -13    1    3    3    0    0  0.35694815579E+02 -0.42441756853E+02 -0.14648695478E+02  0.57358678743E+02  0.10566000000E+00 0. -1.
         23    2    1    0    0    0  0.17694220860E+02 -0.88590321131E+01 -0.21176853373E+02  0.96016780362E+02  0.91537943447E+02 0.  0.
         13    1    3    3    0    0 -0.18000594720E+02  0.33582724739E+02 -0.65281578955E+01  0.38658101618E+02  0.10566000000E+00 0.  1.
         22    1    1    0    0    0 -0.17694220860E+02  0.88590321131E+01  0.21176853373E+02  0.28983219638E+02  0.00000000000E+00 0. -1.
</event>
<event>
 5    1  0.1245610E-004  0.9118800E+02  0.7818608E-02  0.1130116E+00
         25   -1    0    0    0    0  0.00000000000E+00  0.00000000000E+00  0.99999998245E-14  0.12500000000E+03  0.12500000000E+03 0.  0.
        -13    1    3    3    0    0  0.25169446006E+02  0.22236536219E+02  0.40592960942E+01  0.33829773929E+02  0.10566000000E+00 0. -1.
         23    2    1    0    0    0 -0.15857871354E+02 -0.22333964379E+02  0.12313672170E+02  0.94968273925E+02  0.90094774994E+02 0.  0.
         13    1    3    3    0    0 -0.41027317360E+02 -0.44570500598E+02  0.82543760760E+01  0.61138499996E+02  0.10566000000E+00 0.  1.
         22    1    1    0    0    0  0.15857871354E+02  0.22333964379E+02 -0.12313672170E+02  0.30031726075E+02  0.00000000000E+00 0.  1.
</event>
<event>
 5    1  0.1245610E-004  0.9118800E+02  0.7818608E-02  0.1130116E+00
         25   -1    0    0    0    0  0.00000000000E+00  0.00000000000E+00  0.99999998245E-14  0.12500000000E+03  0.12500000000E+03 0.  0.
        -13    1    3    3    0    0  0.41622898339E+01  0.21823941772E+02  0.18638780520E+02  0.29000420591E+02  0.10566000000E+00 0. -1.
         23    2    1    0    0    0 -0.33625305080E+02  0.30895698165E+01 -0.19622002129E+02  0.85945812633E+02  0.76560127731E+02 0.  0.
         13    1    3    3    0    0 -0.37787594914E+02 -0.18734371956E+02 -0.38260782648E+02  0.56945392042E+02  0.10566000000E+00 0.  1.
         22    1    1    0    0    0  0.33625305080E+02 -0.30895698165E+01  0.19622002129E+02  0.39054187367E+02  0.00000000000E+00 0.  1.
</event>
<event>
 5    1  0.1245610E-004  0.9118800E+02  0.7818608E-02  0.1130116E+00
         25   -1    0    0    0    0  0.00000000000E+00  0.00000000000E+00  0.99999998245E-14  0.12500000000E+03  0.12500000000E+03 0.  0.
        -13    1    3    3    0    0 -0.27747227391E+02  0.20515735805E+02 -0.18594922658E+02  0.39199315762E+02  0.10566000000E+00 0.  1.
         23    2    1    0    0    0  0.20761654487E+01 -0.27303842586E+02 -0.69920915777E+01  0.96738725656E+02  0.92518546325E+02 0.  0.
         13    1    3    3    0    0  0.29823392840E+02 -0.47819578390E+02  0.11602831080E+02  0.57539409895E+02  0.10566000000E+00 0. -1.
         22    1    1    0    0    0 -0.20761654487E+01  0.27303842586E+02  0.69920915777E+01  0.28261274344E+02  0.00000000000E+00 0. -1.
</event>
<event>
 5    1  0.1245610E-004  0.9118800E+02  0.7818608E-02  0.1130116E+00
         25   -1    0    0    0    0  0.00000000000E+00  0.00000000000E+00  0.99999998245E-14  0.12500000000E+03  0.12500000000E+03 0.  0.
        -13    1    3    3    0    0  0.40844515142E+02  0.22824293397E+02 -0.12626702694E+02  0.48463053672E+02  0.10566000000E+00 0.  1.
         23    2    1    0    0    0  0.12165338512E+02  0.14395477439E+02  0.23191328135E+02  0.95115841446E+02  0.90299282176E+02 0.  0.
         13    1    3    3    0    0 -0.28679176630E+02 -0.84288159576E+01  0.35818030829E+02  0.46652787774E+02  0.10566000000E+00 0. -1.
         22    1    1    0    0    0 -0.12165338512E+02 -0.14395477439E+02 -0.23191328135E+02  0.29884158554E+02  0.00000000000E+00 0. -1.
</event>
<event>
 5    1  0.1245610E-004  0.9118800E+02  0.7818608E-02  0.1130116E+00
         25   -1    0    0    0    0  0.00000000000E+00  0.00000000000E+00  0.99999998245E-14  0.12500000000E+03  0.12500000000E+03 0.  0.
        -13    1    3    3    0    0 -0.51592860861E+02  0.21817916910E+02 -0.16559150699E+02  0.58412853260E+02  0.10566000000E+00 0.  1.
         23    2    1    0    0    0 -0.26633573831E+02 -0.31539369028E+01  0.16325006305E+01  0.98130693509E+02  0.94380471376E+02 0.  0.
         13    1    3    3    0    0  0.24959287030E+02 -0.24971853812E+02  0.18191651329E+02  0.39717840248E+02  0.10566000000E+00 0. -1.
         22    1    1    0    0    0  0.26633573831E+02  0.31539369028E+01 -0.16325006305E+01  0.26869306491E+02  0.00000000000E+00 0.  1.
</event>
<event>
 5    1  0.1245610E-004  0.9118800E+02  0.7818608E-02  0.1130116E+00
         25   -1    0    0    0    0  0.00000000000E+00  0.00000000000E+00  0.99999998245E-14  0.12500000000E+03  0.12500000000E+03 0.  0.
        -13    1    3    3    0    0  0.36180453130E+02 -0.26142869587E+02  0.14452526420E+02  0.46918669024E+02  0.10566000000E+00 0.  1.
         23    2    1    0    0    0 -0.82998167050E+01 -0.10774142315E+02  0.26250411903E+02  0.95435608833E+02  0.90740851926E+02 0.  0.
         13    1    3    3    0    0 -0.44480269835E+02  0.15368727272E+02  0.11797885483E+02  0.48516939810E+02  0.10566000000E+00 0. -1.
         22    1    1    0    0    0  0.82998167050E+01  0.10774142315E+02 -0.26250411903E+02  0.29564391167E+02  0.00000000000E+00 0. -1.
</event>
<event>
 5    1  0.1245610E-004  0.9118800E+02  0.7818608E-02  0.1130116E+00
         25   -1    0    0    0    0  0.00000000000E+00  0.00000000000E+00  0.99999998245E-14  0.12500000000E+03  0.12500000000E+03 0.  0.
        -13    1    3    3    0    0  0.15588641693E+02  0.54539344289E+01  0.42663522460E+02  0.45748644387E+02  0.10566000000E+00 0. -1.
         23    2    1    0    0    0 -0.58783093500E+01 -0.25246396530E+02  0.55314121623E+01  0.98494687720E+02  0.94861330003E+02 0.  0.
         13    1    3    3    0    0 -0.21466951043E+02 -0.30700330959E+02 -0.37132110297E+02  0.52746043332E+02  0.10566000000E+00 0.  1.
         22    1    1    0    0    0  0.58783093500E+01  0.25246396530E+02 -0.55314121623E+01  0.26505312280E+02  0.00000000000E+00 0.  1.
</event>
<event>
 5    1  0.1245610E-004  0.9118800E+02  0.7818608E-02  0.1130116E+00
         25   -1    0    0    0    0  0.00000000000E+00  0.00000000000E+00  0.99999998245E-14  0.12500000000E+03  0.12500000000E+03 0.  0.
        -13    1    3    3    0    0  0.26398183951E+02  0.24232944287E+02  0.42774501861E+02  0.55801154811E+02  0.10566000000E+00 0. -1.
         23    2    1    0    0    0 -0.76372122658E+01  0.11033307198E+02  0.25494243029E+02  0.96189979060E+02  0.91774150854E+02 0.  0.
         13    1    3    3    0    0 -0.34035396217E+02 -0.13199637089E+02 -0.17280258832E+02  0.40388824249E+02  0.10566000000E+00 0.  1.
         22    1    1    0    0    0  0.76372122658E+01 -0.11033307198E+02 -0.25494243029E+02  0.28810020940E+02  0.00000000000E+00 0. -1.
</event>
<event>
 5    1  0.1245610E-004  0.9118800E+02  0.7818608E-02  0.1130116E+00
         25   -1    0    0    0    0  0.00000000000E+00  0.00000000000E+00  0.99999998245E-14  0.12500000000E+03  0.12500000000E+03 0.  0.
        -13    1    3    3    0    0 -0.14338444568E+01 -0.15073123741E+02 -0.56339490804E+02  0.58338703768E+02  0.10566000000E+00 0. -1.
         23    2    1    0    0    0  0.14511063740E+02 -0.24720565690E+01 -0.29767389013E+02  0.91791876247E+02  0.85574348153E+02 0.  0.
         13    1    3    3    0    0  0.15944908197E+02  0.12601067172E+02  0.26572101791E+02  0.33453172479E+02  0.10566000000E+00 0.  1.
         22    1    1    0    0    0 -0.14511063740E+02  0.24720565690E+01  0.29767389013E+02  0.33208123753E+02  0.00000000000E+00 0. -1.
</event>
<event>
 5    1  0.1245610E-004  0.9118800E+02  0.7818608E-02  0.1130116E+00
         25   -1    0    0    0    0  0.00000000000E+00  0.00000000000E+00  0.99999998245E-14  0.12500000000E+03  0.12500000000E+03 0.  0.
        -13    1    3    3    0    0  0.11159565061E+02 -0.14409367931E+02 -0.57320008548E+02  0.60147820579E+02  0.10566000000E+00 0.  1.
         23    2    1    0    0    0  0.21581968368E+01  0.48080604500E+01 -0.28936546663E+02  0.95587434800E+02  0.90949759208E+02 0.  0.
         13    1    3    3    0    0 -0.90013682245E+01  0.19217428381E+02  0.28383461885E+02  0.35439614220E+02  0.10566000000E+00 0. -1.
         22    1    1    0    0    0 -0.21581968368E+01 -0.48080604500E+01  0.28936546663E+02  0.29412565200E+02  0.00000000000E+00 0.  1.
</event>
<event>
 5    1  0.1245610E-004  0.9118800E+02  0.7818608E-02  0.1130116E+00
         25   -1    0    0    0    0  0.00000000000E+00  0.00000000000E+00  0.99999998245E-14  0.12500000000E+03  0.12500000000E+03 0.  0.
        -13    1    3    3    0    0  0.43056576837E+02  0.29585805551E+02 -0.28789256133E+01  0.52321009889E+02  0.10566000000E+00 0.  1.
         23    2    1    0    0    0  0.10134857164E+02  0.16555560806E+02  0.22049812028E+02  0.95623204161E+02  0.90998906808E+02 0.  0.
         13    1    3    3    0    0 -0.32921719673E+02 -0.13030244745E+02  0.24928737641E+02  0.43302194272E+02  0.10566000000E+00 0. -1.
         22    1    1    0    0    0 -0.10134857164E+02 -0.16555560806E+02 -0.22049812028E+02  0.29376795839E+02  0.00000000000E+00 0.  1.
</event>
<event>
 5    1  0.1245610E-004  0.9118800E+02  0.7818608E-02  0.1130116E+00
         25   -1    0    0    0    0  0.00000000000E+00  0.00000000000E+00  0.99999998245E-14  0.12500000000E+03  0.12500000000E+03 0.  0.
        -13    1    3    3    0    0 -0.43314288267E+02  0.91530772367E+01  0.32779342067E+01  0.44392143535E+02  0.10566000000E+00 0.  1.
         23    2    1    0    0    0  0.32966121223E+01  0.27245287936E+02 -0.94301783356E+01  0.95981012601E+02  0.91489087602E+02 0.  0.
         13    1    3    3    0    0  0.46610900389E+02  0.18092210700E+02 -0.12708112542E+02  0.51588869066E+02  0.10566000000E+00 0. -1.
         22    1    1    0    0    0 -0.32966121223E+01 -0.27245287936E+02  0.94301783356E+01  0.29018987399E+02  0.00000000000E+00 0.  1.
</event>
<event>
 5    1  0.1245610E-004  0.9118800E+02  0.7818608E-02  0.1130116E+00
         25   -1    0    0    0    0  0.00000000000E+00  0.00000000000E+00  0.99999998245E-14  0.12500000000E+03  0.12500000000E+03 0.  0.
        -13    1    3    3    0    0  0.68521421568E+01 -0.24420124673E+02  0.33435554058E+02  0.41967151206E+02  0.10566000000E+00 0.  1.
         23    2    1    0    0    0 -0.28631358956E+02  0.55133651894E+01  0.86817116960E+01  0.94577573579E+02  0.89551065849E+02 0.  0.
         13    1    3    3    0    0 -0.35483501113E+02  0.29933489862E+02 -0.24753842362E+02  0.52610422373E+02  0.10566000000E+00 0. -1.
         22    1    1    0    0    0  0.28631358956E+02 -0.55133651894E+01 -0.86817116960E+01  0.30422426421E+02  0.00000000000E+00 0. -1.
</event>
<event>
 5    1  0.1245610E-004  0.9118800E+02  0.7818608E-02  0.1130116E+00
         25   -1    0    0    0    0  0.00000000000E+00  0.00000000000E+00  0.99999998245E-14  0.12500000000E+03  0.12500000000E+03 0.  0.
        -13    1    3    3    0    0  0.21663202059E+02 -0.24338867685E+02 -0.36702580554E+02  0.49079174677E+02  0.10566000000E+00 0.  1.
         23    2    1    0    0    0  0.58620418001E+00 -0.29166443333E+02  0.43760591713E+01  0.95501272130E+02  0.90831261318E+02 0.  0.
         13    1    3    3    0    0 -0.21076997879E+02 -0.48275756486E+01  0.41078639725E+02  0.46422097453E+02  0.10566000000E+00 0. -1.
         22    1    1    0    0    0 -0.58620418001E+00  0.29166443333E+02 -0.43760591713E+01  0.29498727870E+02  0.00000000000E+00 0.  1.
</event>
<event>
 5    1  0.1245610E-004  0.9118800E+02  0.7818608E-02  0.1130116E+00
         25   -1    0    0    0    0  0.00000000000E+00  0.00000000000E+00  0.99999998245E-14  0.12500000000E+03  0.12500000000E+03 0.  0.
        -13    1    3    3    0    0 -0.15987341461E+01  0.26211965675E+02  0.47532720166E+02  0.54304638346E+02  0.10566000000E+00 0. -1.
         23    2    1    0    0    0 -0.86134431104E+01  0.26808418352E+02  0.62850353973E+01  0.96148927807E+02  0.91718220391E+02 0.  0.
         13    1    3    3    0    0 -0.70147089643E+01  0.59645267723E+00 -0.41247684769E+02  0.41844289461E+02  0.10566000000E+00 0.  1.
         22    1    1    0    0    0  0.86134431104E+01 -0.26808418352E+02 -0.62850353973E+01  0.28851072193E+02  0.00000000000E+00 0. -1.
</event>
<event>
 5    1  0.1245610E-004  0.9118800E+02  0.7818608E-02  0.1130116E+00
         25   -1    0    0    0    0  0.00000000000E+00  0.00000000000E+00  0.99999998245E-14  0.12500000000E+03  0.12500000000E+03 0.  0.
        -13    1    3    3    0    0 -0.33281872629E+02  0.18251725542E+02 -0.13029274003E+02  0.40132052976E+02  0.10566000000E+00 0.  1.
         23    2    1    0    0    0  0.10266952508E+02 -0.18220569342E+02 -0.18339179083E+02  0.97184088180E+02  0.93118322821E+02 0.  0.
         13    1    3    3    0    0  0.43548825138E+02 -0.36472294884E+02 -0.53099050803E+01  0.57052035204E+02  0.10566000000E+00 0. -1.
         22    1    1    0    0    0 -0.10266952508E+02  0.18220569342E+02  0.18339179083E+02  0.27815911820E+02  0.00000000000E+00 0. -1.
</event>
<event>
 5    1  0.1245610E-004  0.9118800E+02  0.7818608E-02  0.1130116E+00
         25   -1    0    0    0    0  0.00000000000E+00  0.00000000000E+00  0.99999998245E-14  0.12500000000E+03  0.12500000000E+03 0.  0.
        -13    1    3    3    0    0 -0.33231086586E+02 -0.66083898479E+01 -0.54295245876E+01  0.34314236599E+02  0.10566000000E+00 0.  1.
         23    2    1    0    0    0  0.24661029443E+02 -0.45662864820E+01  0.15043791210E+02  0.95753923351E+02  0.91178291483E+02 0.  0.
         13    1    3    3    0    0  0.57892116029E+02  0.20421033659E+01  0.20473315798E+02  0.61439686752E+02  0.10566000000E+00 0. -1.
         22    1    1    0    0    0 -0.24661029443E+02  0.45662864820E+01 -0.15043791210E+02  0.29246076649E+02  0.00000000000E+00 0. -1.
</event>
<event>
 5    1  0.1245610E-004  0.9118800E+02  0.7818608E-02  0.1130116E+00
         25   -1    0    0    0    0  0.00000000000E+00  0.00000000000E+00  0.99999998245E-14  0.12500000000E+03  0.12500000000E+03 0.  0.
        -13    1    3    3    0    0  0.95436775770E+01  0.22424330798E+01 -0.61205690245E+02  0.61985949780E+02  0.10566000000E+00 0.  1.
         23    2    1    0    0    0  0.71207266187E+01 -0.37842892769E+01 -0.26281178923E+02  0.97509529679E+02  0.93554168372E+02 0.  0.
         13    1    3    3    0    0 -0.24229509583E+01 -0.60267223567E+01  0.34924511322E+02  0.35523579899E+02  0.10566000000E+00 0. -1.
         22    1    1    0    0    0 -0.71207266187E+01  0.37842892769E+01  0.26281178923E+02  0.27490470321E+02  0.00000000000E+00 0.  1.
</event>
<event>
 5    1  0.1245610E-004  0.9118800E+02  0.7818608E-02  0.1130116E+00
         25   -1    0    0    0    0  0.00000000000E+00  0.00000000000E+00  0.99999998245E-14  0.12500000000E+03  0.12500000000E+03 0.  0.
        -13    1    3    3    0    0  0.22502094963E+02 -0.29903680478E+02 -0.38013312153E+01  0.37616959830E+02  0.10566000000E+00 0.  1.
         23    2    1    0    0    0 -0.17414370764E+02  0.88369564703E+01 -0.21466575860E+02  0.95979903723E+02  0.91487572547E+02 0.  0.
         13    1    3    3    0    0 -0.39916465728E+02  0.38740636948E+02 -0.17665244645E+02  0.58362943892E+02  0.10566000000E+00 0. -1.
         22    1    1    0    0    0  0.17414370764E+02 -0.88369564703E+01  0.21466575860E+02  0.29020096277E+02  0.00000000000E+00 0. -1.
</event>
<event>
 5    1  0.1245610E-004  0.9118800E+02  0.7818608E-02  0.1130116E+00
         25   -1    0    0    0    0  0.00000000000E+00  0.00000000000E+00  0.99999998245E-14  0.12500000000E+03  0.12500000000E+03 0.  0.
        -13    1    3    3    0    0 -0.21194296391E+02  0.29442424699E+02 -0.13083089265E+02  0.38564659475E+02  0.10566000000E+00 0.  1.
         23    2    1    0    0    0  0.10680593388E+02 -0.20639512172E+02 -0.13872524466E+02  0.97935050843E+02  0.94121000370E+02 0.  0.
         13    1    3    3    0    0  0.31874889779E+02 -0.50081936871E+02 -0.78943520059E+00  0.59370391368E+02  0.10566000000E+00 0. -1.
         22    1    1    0    0    0 -0.10680593388E+02  0.20639512172E+02  0.13872524466E+02  0.27064949157E+02  0.00000000000E+00 0. -1.
</event>
<event>
 5    1  0.1245610E-004  0.9118800E+02  0.7818608E-02  0.1130116E+00
         25   -1    0    0    0    0  0.00000000000E+00  0.00000000000E+00  0.99999998245E-14  0.12500000000E+03  0.12500000000E+03 0.  0.
        -13    1    3    3    0    0 -0.16704039422E+02 -0.39906111160E+02  0.10291818891E+02  0.44468588252E+02  0.10566000000E+00 0. -1.
         23    2    1    0    0    0 -0.14202425173E+02  0.93699584345E-01 -0.23932067734E+02  0.97170851137E+02  0.93100552009E+02 0.  0.
         13    1    3    3    0    0  0.25016142494E+01  0.39999810745E+02 -0.34223886626E+02  0.52702262886E+02  0.10566000000E+00 0.  1.
         22    1    1    0    0    0  0.14202425173E+02 -0.93699584345E-01  0.23932067734E+02  0.27829148863E+02  0.00000000000E+00 0.  1.
</event>
<event>
 5    1  0.1245610E-004  0.9118800E+02  0.7818608E-02  0.1130116E+00
         25   -1    0    0    0    0  0.00000000000E+00  0.00000000000E+00  0.99999998245E-14  0.12500000000E+03  0.12500000000E+03 0.  0.
        -13    1    3    3    0    0  0.46831784484E+02 -0.26472773531E+02  0.16275653319E+02  0.56204375554E+02  0.10566000000E+00 0.  1.
         23    2    1    0    0    0  0.35342167117E+02 -0.16402452805E+02 -0.83195289348E+01  0.85158767636E+02  0.75264147568E+02 0.  0.
         13    1    3    3    0    0 -0.11489617367E+02  0.10070320726E+02 -0.24595182254E+02  0.28954392083E+02  0.10566000000E+00 0. -1.
         22    1    1    0    0    0 -0.35342167117E+02  0.16402452805E+02  0.83195289348E+01  0.39841232364E+02  0.00000000000E+00 0.  1.
</event>
<event>
 5    1  0.1245610E-004  0.9118800E+02  0.7818608E-02  0.1130116E+00
         25   -1    0    0    0    0  0.00000000000E+00  0.00000000000E+00  0.99999998245E-14  0.12500000000E+03  0.12500000000E+03 0.  0.
        -13    1    3    3    0    0  0.49592419338E+01  0.35483243527E+02  0.45941850194E+02  0.58260787971E+02  0.10566000000E+00 0.  1.
         23    2    1    0    0    0 -0.75761051711E+01  0.53784448338E+01  0.28037609406E+02  0.95463030291E+02  0.90778618478E+02 0.  0.
         13    1    3    3    0    0 -0.12535347105E+02 -0.30104798693E+02 -0.17904240788E+02  0.37202242320E+02  0.10566000000E+00 0. -1.
         22    1    1    0    0    0  0.75761051711E+01 -0.53784448338E+01 -0.28037609406E+02  0.29536969709E+02  0.00000000000E+00 0.  1.
</event>
<event>
 5    1  0.1245610E-004  0.9118800E+02  0.7818608E-02  0.1130116E+00
         25   -1    0    0    0    0  0.00000000000E+00  0.00000000000E+00  0.99999998245E-14  0.12500000000E+03  0.12500000000E+03 0.  0.
        -13    1    3    3    0    0  0.62354935970E+01 -0.29452015108E+02 -0.21094375918E+02  0.36759848119E+02  0.10566000000E+00 0. -1.
         23    2    1    0    0    0 -0.17843752593E+02 -0.37940956261E+01  0.24563346458E+02  0.94403388137E+02  0.89307597853E+02 0.  0.
         13    1    3    3    0    0 -0.24079246191E+02  0.25657919482E+02  0.45657722376E+02  0.57643540019E+02  0.10566000000E+00 0.  1.
         22    1    1    0    0    0  0.17843752593E+02  0.37940956261E+01 -0.24563346458E+02  0.30596611863E+02  0.00000000000E+00 0.  1.
</event>
<event>
 5    1  0.1245610E-004  0.9118800E+02  0.7818608E-02  0.1130116E+00
         25   -1    0    0    0    0  0.00000000000E+00  0.00000000000E+00  0.99999998245E-14  0.12500000000E+03  0.12500000000E+03 0.  0.
        -13    1    3    3    0    0  0.58272658885E+02 -0.17341609976E+02  0.72181877916E+01  0.61225383699E+02  0.10566000000E+00 0. -1.
         23    2    1    0    0    0  0.31304620515E+02 -0.13922689765E+02 -0.37407187608E+01  0.90535329209E+02  0.83718769116E+02 0.  0.
         13    1    3    3    0    0 -0.26968038370E+02  0.34189202105E+01 -0.10958906552E+02  0.29309945510E+02  0.10566000000E+00 0.  1.
         22    1    1    0    0    0 -0.31304620515E+02  0.13922689765E+02  0.37407187608E+01  0.34464670791E+02  0.00000000000E+00 0. -1.
</event>
<event>
 5    1  0.1245610E-004  0.9118800E+02  0.7818608E-02  0.1130116E+00
         25   -1    0    0    0    0  0.00000000000E+00  0.00000000000E+00  0.99999998245E-14  0.12500000000E+03  0.12500000000E+03 0.  0.
        -13    1    3    3    0    0  0.16655194814E+02 -0.17549751613E+02 -0.29606675537E+02  0.38235529241E+02  0.10566000000E+00 0.  1.
         23    2    1    0    0    0 -0.17252378488E+02 -0.25530190432E+02  0.11494889285E+02  0.92112803910E+02  0.86041855963E+02 0.  0.
         13    1    3    3    0    0 -0.33907573302E+02 -0.79804388187E+01  0.41101564821E+02  0.53877274669E+02  0.10566000000E+00 0. -1.
         22    1    1    0    0    0  0.17252378488E+02  0.25530190432E+02 -0.11494889285E+02  0.32887196090E+02  0.00000000000E+00 0. -1.
</event>
<event>
 5    1  0.1245610E-004  0.9118800E+02  0.7818608E-02  0.1130116E+00
         25   -1    0    0    0    0  0.00000000000E+00  0.00000000000E+00  0.99999998245E-14  0.12500000000E+03  0.12500000000E+03 0.  0.
        -13    1    3    3    0    0 -0.15989354793E+02 -0.65276125019E+01  0.57914679592E+02  0.60435010283E+02  0.10566000000E+00 0.  1.
         23    2    1    0    0    0 -0.27087162759E+01  0.71995179010E+01  0.28286480411E+02  0.95686263017E+02  0.91085485969E+02 0.  0.
         13    1    3    3    0    0  0.13280638517E+02  0.13727130403E+02 -0.29628199181E+02  0.35251252733E+02  0.10566000000E+00 0. -1.
         22    1    1    0    0    0  0.27087162759E+01 -0.71995179010E+01 -0.28286480411E+02  0.29313736983E+02  0.00000000000E+00 0.  1.
</event>
<event>
 5    1  0.1245610E-004  0.9118800E+02  0.7818608E-02  0.1130116E+00
         25   -1    0    0    0    0  0.00000000000E+00  0.00000000000E+00  0.99999998245E-14  0.12500000000E+03  0.12500000000E+03 0.  0.
        -13    1    3    3    0    0  0.21186419812E+02  0.94525277452E-01  0.36407451246E+02  0.42123473145E+02  0.10566000000E+00 0.  1.
         23    2    1    0    0    0  0.66551212160E+01  0.29621623019E+02 -0.41550688917E+01  0.94356961865E+02  0.89242593341E+02 0.  0.
         13    1    3    3    0    0 -0.14531298596E+02  0.29527097741E+02 -0.40562520138E+02  0.52233488720E+02  0.10566000000E+00 0. -1.
         22    1    1    0    0    0 -0.66551212160E+01 -0.29621623019E+02  0.41550688917E+01  0.30643038135E+02  0.00000000000E+00 0.  1.
</event>
<event>
 5    1  0.1245610E-004  0.9118800E+02  0.7818608E-02  0.1130116E+00
         25   -1    0    0    0    0  0.00000000000E+00  0.00000000000E+00  0.99999998245E-14  0.12500000000E+03  0.12500000000E+03 0.  0.
        -13    1    3    3    0    0  0.14061278307E+02 -0.29439281111E+02 -0.78349786099E+01  0.33552777438E+02  0.10566000000E+00 0.  1.
         23    2    1    0    0    0 -0.23971271236E+01  0.26754701385E+02  0.12277470524E+02  0.95465333130E+02  0.90781789377E+02 0.  0.
         13    1    3    3    0    0 -0.16458405431E+02  0.56193982496E+02  0.20112449134E+02  0.61912555692E+02  0.10566000000E+00 0. -1.
         22    1    1    0    0    0  0.23971271236E+01 -0.26754701385E+02 -0.12277470524E+02  0.29534666870E+02  0.00000000000E+00 0. -1.
</event>
<event>
 5    1  0.1245610E-004  0.9118800E+02  0.7818608E-02  0.1130116E+00
         25   -1    0    0    0    0  0.00000000000E+00  0.00000000000E+00  0.99999998245E-14  0.12500000000E+03  0.12500000000E+03 0.  0.
        -13    1    3    3    0    0  0.26287706954E+02  0.15340813468E+02  0.35544391664E+02  0.46795288626E+02  0.10566000000E+00 0.  1.
         23    2    1    0    0    0  0.27519048213E+02 -0.65547180040E+01 -0.80440072718E+01  0.95589654955E+02  0.90952810506E+02 0.  0.
         13    1    3    3    0    0  0.12313412589E+01 -0.21895531472E+02 -0.43588398935E+02  0.48794366330E+02  0.10566000000E+00 0. -1.
         22    1    1    0    0    0 -0.27519048213E+02  0.65547180040E+01  0.80440072718E+01  0.29410345045E+02  0.00000000000E+00 0.  1.
</event>
<event>
 5    1  0.1245610E-004  0.9118800E+02  0.7818608E-02  0.1130116E+00
         25   -1    0    0    0    0  0.00000000000E+00  0.00000000000E+00  0.99999998245E-14  0.12500000000E+03  0.12500000000E+03 0.  0.
        -13    1    3    3    0    0 -0.51993525854E+02 -0.25426513541E+02  0.99474776636E+01  0.58726465903E+02  0.10566000000E+00 0. -1.
         23    2    1    0    0    0 -0.29222778997E+02  0.83529736100E+00  0.11655252887E+02  0.93527576295E+02  0.88073231313E+02 0.  0.
         13    1    3    3    0    0  0.22770746857E+02  0.26261810902E+02  0.17077752234E+01  0.34801110392E+02  0.10566000000E+00 0.  1.
         22    1    1    0    0    0  0.29222778997E+02 -0.83529736100E+00 -0.11655252887E+02  0.31472423705E+02  0.00000000000E+00 0. -1.
</event>
<event>
 5    1  0.1245610E-004  0.9118800E+02  0.7818608E-02  0.1130116E+00
         25   -1    0    0    0    0  0.00000000000E+00  0.00000000000E+00  0.99999998245E-14  0.12500000000E+03  0.12500000000E+03 0.  0.
        -13    1    3    3    0    0 -0.38393628173E+01  0.30023712219E+02 -0.39992186043E+02  0.50155260051E+02  0.10566000000E+00 0.  1.
         23    2    1    0    0    0 -0.15995588511E+02 -0.11292172660E+02 -0.17486200966E+02  0.98748538338E+02  0.95195244548E+02 0.  0.
         13    1    3    3    0    0 -0.12156225693E+02 -0.41315884878E+02  0.22505985077E+02  0.48593278287E+02  0.10566000000E+00 0. -1.
         22    1    1    0    0    0  0.15995588511E+02  0.11292172660E+02  0.17486200966E+02  0.26251461662E+02  0.00000000000E+00 0. -1.
</event>
<event>
 5    1  0.1245610E-004  0.9118800E+02  0.7818608E-02  0.1130116E+00
         25   -1    0    0    0    0  0.00000000000E+00  0.00000000000E+00  0.99999998245E-14  0.12500000000E+03  0.12500000000E+03 0.  0.
        -13    1    3    3    0    0 -0.39534457581E+02  0.26550777915E+02 -0.57697536599E+01  0.47971015889E+02  0.10566000000E+00 0.  1.
         23    2    1    0    0    0 -0.19605130629E+02 -0.80240447178E+01  0.20316911787E+02  0.95648282075E+02  0.91033348388E+02 0.  0.
         13    1    3    3    0    0  0.19929326952E+02 -0.34574822633E+02  0.26086665447E+02  0.47677266186E+02  0.10566000000E+00 0. -1.
         22    1    1    0    0    0  0.19605130629E+02  0.80240447178E+01 -0.20316911787E+02  0.29351717925E+02  0.00000000000E+00 0. -1.
</event>
<event>
 5    1  0.1245610E-004  0.9118800E+02  0.7818608E-02  0.1130116E+00
         25   -1    0    0    0    0  0.00000000000E+00  0.00000000000E+00  0.99999998245E-14  0.12500000000E+03  0.12500000000E+03 0.  0.
        -13    1    3    3    0    0 -0.46750666302E+02  0.29314570555E+02 -0.20534971883E+02  0.58878392308E+02  0.10566000000E+00 0. -1.
         23    2    1    0    0    0 -0.17784229343E+02  0.67320122542E+01 -0.22353296537E+02  0.95652620758E+02  0.91039305740E+02 0.  0.
         13    1    3    3    0    0  0.28966436959E+02 -0.22582558301E+02 -0.18183246534E+01  0.36774228450E+02  0.10566000000E+00 0.  1.
         22    1    1    0    0    0  0.17784229343E+02 -0.67320122542E+01  0.22353296537E+02  0.29347379242E+02  0.00000000000E+00 0. -1.
</event>
<event>
 5    1  0.1245610E-004  0.9118800E+02  0.7818608E-02  0.1130116E+00
         25   -1    0    0    0    0  0.00000000000E+00  0.00000000000E+00  0.99999998245E-14  0.12500000000E+03  0.12500000000E+03 0.  0.
        -13    1    3    3    0    0  0.55040093827E+02  0.11789859116E+02  0.25985137642E+02  0.61997187426E+02  0.10566000000E+00 0. -1.
         23    2    1    0    0    0  0.32031324092E+02  0.97320416636E+01  0.20515489131E+02  0.85736739154E+02  0.76218008295E+02 0.  0.
         13    1    3    3    0    0 -0.23008769735E+02 -0.20578174524E+01 -0.54696485108E+01  0.23739551728E+02  0.10566000000E+00 0.  1.
         22    1    1    0    0    0 -0.32031324092E+02 -0.97320416636E+01 -0.20515489131E+02  0.39263260846E+02  0.00000000000E+00 0. -1.
</event>
<event>
 5    1  0.1245610E-004  0.9118800E+02  0.7818608E-02  0.1130116E+00
         25   -1    0    0    0    0  0.00000000000E+00  0.00000000000E+00  0.99999998245E-14  0.12500000000E+03  0.12500000000E+03 0.  0.
        -13    1    3    3    0    0 -0.26368231315E+02 -0.21173798121E+02  0.30750925603E+02  0.45708248041E+02  0.10566000000E+00 0.  1.
         23    2    1    0    0    0 -0.81987202654E+01 -0.24342188318E+02 -0.15152064187E+02  0.95178092026E+02  0.90385413682E+02 0.  0.
         13    1    3    3    0    0  0.18169511049E+02 -0.31683901972E+01 -0.45902989789E+02  0.49469843985E+02  0.10566000000E+00 0. -1.
         22    1    1    0    0    0  0.81987202654E+01  0.24342188318E+02  0.15152064187E+02  0.29821907974E+02  0.00000000000E+00 0. -1.
</event>
<event>
 5    1  0.1245610E-004  0.9118800E+02  0.7818608E-02  0.1130116E+00
         25   -1    0    0    0    0  0.00000000000E+00  0.00000000000E+00  0.99999998245E-14  0.12500000000E+03  0.12500000000E+03 0.  0.
        -13    1    3    3    0    0  0.22028233577E+02  0.24518767472E+01  0.82130055284E+01  0.23637245990E+02  0.10566000000E+00 0. -1.
         23    2    1    0    0    0 -0.30292616137E+02 -0.13232944675E+01 -0.24980045235E+02  0.85713916451E+02  0.76180569129E+02 0.  0.
         13    1    3    3    0    0 -0.52320849715E+02 -0.37751712147E+01 -0.33193050763E+02  0.62076670461E+02  0.10566000000E+00 0.  1.
         22    1    1    0    0    0  0.30292616137E+02  0.13232944675E+01  0.24980045235E+02  0.39286083549E+02  0.00000000000E+00 0.  1.
</event>
<event>
 5    1  0.1245610E-004  0.9118800E+02  0.7818608E-02  0.1130116E+00
         25   -1    0    0    0    0  0.00000000000E+00  0.00000000000E+00  0.99999998245E-14  0.12500000000E+03  0.12500000000E+03 0.  0.
        -13    1    3    3    0    0  0.40125942287E+02  0.18748089336E+02 -0.14333482112E+02  0.46551498060E+02  0.10566000000E+00 0.  1.
         23    2    1    0    0    0  0.11070620735E+02 -0.22392090035E+02  0.30548405749E+01  0.99834619206E+02  0.96610842049E+02 0.  0.
         13    1    3    3    0    0 -0.29055321552E+02 -0.41140179370E+02  0.17388322687E+02  0.53283121146E+02  0.10566000000E+00 0. -1.
         22    1    1    0    0    0 -0.11070620735E+02  0.22392090035E+02 -0.30548405749E+01  0.25165380794E+02  0.00000000000E+00 0.  1.
</event>
<event>
 5    1  0.1245610E-004  0.9118800E+02  0.7818608E-02  0.1130116E+00
         25   -1    0    0    0    0  0.00000000000E+00  0.00000000000E+00  0.99999998245E-14  0.12500000000E+03  0.12500000000E+03 0.  0.
        -13    1    3    3    0    0 -0.95002209109E+01  0.43686086777E+02 -0.12773771780E+01  0.44725509854E+02  0.10566000000E+00 0. -1.
         23    2    1    0    0    0 -0.90315039699E+01  0.35586026118E+01 -0.29603263784E+02  0.93845787714E+02  0.88523708285E+02 0.  0.
         13    1    3    3    0    0  0.46871694100E+00 -0.40127484165E+02 -0.28325886606E+02  0.49120277860E+02  0.10566000000E+00 0.  1.
         22    1    1    0    0    0  0.90315039699E+01 -0.35586026118E+01  0.29603263784E+02  0.31154212286E+02  0.00000000000E+00 0.  1.
</event>
<event>
 5    1  0.1245610E-004  0.9118800E+02  0.7818608E-02  0.1130116E+00
         25   -1    0    0    0    0  0.00000000000E+00  0.00000000000E+00  0.99999998245E-14  0.12500000000E+03  0.12500000000E+03 0.  0.
        -13    1    3    3    0    0 -0.31211159963E+02 -0.28509661248E+01 -0.17373116570E+02  0.35834353036E+02  0.10566000000E+00 0.  1.
         23    2    1    0    0    0  0.27516668369E+02  0.30692920696E+01 -0.11017545381E+02  0.95201109111E+02  0.90417239937E+02 0.  0.
         13    1    3    3    0    0  0.58727828333E+02  0.59202581944E+01  0.63555711892E+01  0.59366756076E+02  0.10566000000E+00 0. -1.
         22    1    1    0    0    0 -0.27516668369E+02 -0.30692920696E+01  0.11017545381E+02  0.29798890889E+02  0.00000000000E+00 0. -1.
</event>
<event>
 5    1  0.1245610E-004  0.9118800E+02  0.7818608E-02  0.1130116E+00
         25   -1    0    0    0    0  0.00000000000E+00  0.00000000000E+00  0.99999998245E-14  0.12500000000E+03  0.12500000000E+03 0.  0.
        -13    1    3    3    0    0 -0.26652982038E+01 -0.33642801211E+02  0.72117893926E+01  0.34510331179E+02  0.10566000000E+00 0. -1.
         23    2    1    0    0    0 -0.65826231926E+00  0.26384221357E+02  0.14291046594E+02  0.94986761944E+02  0.90120422135E+02 0.  0.
         13    1    3    3    0    0  0.20070358845E+01  0.60027022568E+02  0.70792572009E+01  0.60476430764E+02  0.10566000000E+00 0.  1.
         22    1    1    0    0    0  0.65826231926E+00 -0.26384221357E+02 -0.14291046594E+02  0.30013238056E+02  0.00000000000E+00 0.  1.
</event>
<event>
 5    1  0.1245610E-004  0.9118800E+02  0.7818608E-02  0.1130116E+00
         25   -1    0    0    0    0  0.00000000000E+00  0.00000000000E+00  0.99999998245E-14  0.12500000000E+03  0.12500000000E+03 0.  0.
        -13    1    3    3    0    0 -0.29519099726E+02  0.20775184126E+02 -0.20123867283E+02  0.41327554036E+02  0.10566000000E+00 0. -1.
         23    2    1    0    0    0 -0.38597098135E+01 -0.25957482951E+02 -0.14710212721E+02  0.94915475086E+02  0.90021490609E+02 0.  0.
         13    1    3    3    0    0  0.25659389913E+02 -0.46732667077E+02  0.54136545618E+01  0.53587921051E+02  0.10566000000E+00 0.  1.
         22    1    1    0    0    0  0.38597098135E+01  0.25957482951E+02  0.14710212721E+02  0.30084524914E+02  0.00000000000E+00 0.  1.
</event>
<event>
 5    1  0.1245610E-004  0.9118800E+02  0.7818608E-02  0.1130116E+00
         25   -1    0    0    0    0  0.00000000000E+00  0.00000000000E+00  0.99999998245E-14  0.12500000000E+03  0.12500000000E+03 0.  0.
        -13    1    3    3    0    0 -0.47384815534E+02  0.31776291794E+02  0.51950092564E+01  0.57289202723E+02  0.10566000000E+00 0. -1.
         23    2    1    0    0    0 -0.11241345433E+02  0.22850935167E+02  0.14542313529E+02  0.95674039352E+02  0.91068709434E+02 0.  0.
         13    1    3    3    0    0  0.36143470101E+02 -0.89253566271E+01  0.93473042724E+01  0.38384836629E+02  0.10566000000E+00 0.  1.
         22    1    1    0    0    0  0.11241345433E+02 -0.22850935167E+02 -0.14542313529E+02  0.29325960648E+02  0.00000000000E+00 0. -1.
</event>
<event>
 5    1  0.1245610E-004  0.9118800E+02  0.7818608E-02  0.1130116E+00
         25   -1    0    0    0    0  0.00000000000E+00  0.00000000000E+00  0.99999998245E-14  0.12500000000E+03  0.12500000000E+03 0.  0.
        -13    1    3    3    0    0 -0.11480250458E+02 -0.62392889412E+01 -0.31030543813E+02  0.33669432583E+02  0.10566000000E+00 0. -1.
         23    2    1    0    0    0  0.15482333751E+02 -0.63249028483E+01  0.24462967063E+02  0.95366508610E+02  0.90645612980E+02 0.  0.
         13    1    3    3    0    0  0.26962584209E+02 -0.85613907138E-01  0.55493510876E+02  0.61697076028E+02  0.10566000000E+00 0.  1.
         22    1    1    0    0    0 -0.15482333751E+02  0.63249028483E+01 -0.24462967063E+02  0.29633491390E+02  0.00000000000E+00 0.  1.
</event>
<event>
 5    1  0.1245610E-004  0.9118800E+02  0.7818608E-02  0.1130116E+00
         25   -1    0    0    0    0  0.00000000000E+00  0.00000000000E+00  0.99999998245E-14  0.12500000000E+03  0.12500000000E+03 0.  0.
        -13    1    3    3    0    0  0.12200326708E+02  0.32436834591E+02 -0.21675420225E+01  0.34723271916E+02  0.10566000000E+00 0. -1.
         23    2    1    0    0    0 -0.18371804404E+02 -0.20142875678E+02 -0.98156440074E+01  0.96024052994E+02  0.91547874079E+02 0.  0.
         13    1    3    3    0    0 -0.30572131113E+02 -0.52579710269E+02 -0.76481019849E+01  0.61300781078E+02  0.10566000000E+00 0.  1.
         22    1    1    0    0    0  0.18371804404E+02  0.20142875678E+02  0.98156440074E+01  0.28975947006E+02  0.00000000000E+00 0.  1.
</event>
<event>
 5    1  0.1245610E-004  0.9118800E+02  0.7818608E-02  0.1130116E+00
         25   -1    0    0    0    0  0.00000000000E+00  0.00000000000E+00  0.99999998245E-14  0.12500000000E+03  0.12500000000E+03 0.  0.
        -13    1    3    3    0    0  0.14073380750E+02  0.32445205261E+02 -0.27772091973E+02  0.44967228587E+02  0.10566000000E+00 0. -1.
         23    2    1    0    0    0  0.14413848407E+02 -0.18098753753E+02 -0.16012578598E+02  0.96862363521E+02  0.92685440497E+02 0.  0.
         13    1    3    3    0    0  0.34046765629E+00 -0.50543959014E+02  0.11759513375E+02  0.51895134934E+02  0.10566000000E+00 0.  1.
         22    1    1    0    0    0 -0.14413848407E+02  0.18098753753E+02  0.16012578598E+02  0.28137636479E+02  0.00000000000E+00 0.  1.
</event>
<event>
 5    1  0.1245610E-004  0.9118800E+02  0.7818608E-02  0.1130116E+00
         25   -1    0    0    0    0  0.00000000000E+00  0.00000000000E+00  0.99999998245E-14  0.12500000000E+03  0.12500000000E+03 0.  0.
        -13    1    3    3    0    0 -0.28777233265E+02 -0.23461521293E+02 -0.10296330521E+02  0.38530477833E+02  0.10566000000E+00 0.  1.
         23    2    1    0    0    0 -0.24748460491E+01  0.22340601890E+02 -0.22985877329E+02  0.92850693439E+02  0.87107252050E+02 0.  0.
         13    1    3    3    0    0  0.26302387216E+02  0.45802123183E+02 -0.12689546808E+02  0.54320215607E+02  0.10566000000E+00 0. -1.
         22    1    1    0    0    0  0.24748460491E+01 -0.22340601890E+02  0.22985877329E+02  0.32149306561E+02  0.00000000000E+00 0. -1.
</event>
<event>
 5    1  0.1245610E-004  0.9118800E+02  0.7818608E-02  0.1130116E+00
         25   -1    0    0    0    0  0.00000000000E+00  0.00000000000E+00  0.99999998245E-14  0.12500000000E+03  0.12500000000E+03 0.  0.
        -13    1    3    3    0    0  0.19955135557E+02  0.53496221210E+02  0.14246004628E+01  0.57114742136E+02  0.10566000000E+00 0. -1.
         23    2    1    0    0    0  0.66968777818E+00  0.37413236866E+02  0.13808707247E+02  0.85114173315E+02  0.75190048069E+02 0.  0.
         13    1    3    3    0    0 -0.19285447779E+02 -0.16082984343E+02  0.12384106785E+02  0.27999431178E+02  0.10566000000E+00 0.  1.
         22    1    1    0    0    0 -0.66968777818E+00 -0.37413236866E+02 -0.13808707247E+02  0.39885826685E+02  0.00000000000E+00 0. -1.
</event>
<event>
 5    1  0.1245610E-004  0.9118800E+02  0.7818608E-02  0.1130116E+00
         25   -1    0    0    0    0  0.00000000000E+00  0.00000000000E+00  0.99999998245E-14  0.12500000000E+03  0.12500000000E+03 0.  0.
        -13    1    3    3    0    0 -0.58486234518E+02 -0.10341956143E+01 -0.22639615997E+01  0.58539267802E+02  0.10566000000E+00 0. -1.
         23    2    1    0    0    0 -0.24808854075E+02  0.14874780907E+02 -0.38462945637E+01  0.95818973126E+02  0.91267427276E+02 0.  0.
         13    1    3    3    0    0  0.33677380443E+02  0.15908976521E+02 -0.15823329640E+01  0.37279705324E+02  0.10566000000E+00 0.  1.
         22    1    1    0    0    0  0.24808854075E+02 -0.14874780907E+02  0.38462945637E+01  0.29181026874E+02  0.00000000000E+00 0. -1.
</event>
<event>
 5    1  0.1245610E-004  0.9118800E+02  0.7818608E-02  0.1130116E+00
         25   -1    0    0    0    0  0.00000000000E+00  0.00000000000E+00  0.99999998245E-14  0.12500000000E+03  0.12500000000E+03 0.  0.
        -13    1    3    3    0    0  0.21307055586E+02 -0.13150708154E+02 -0.46781675368E+02  0.53060984319E+02  0.10566000000E+00 0.  1.
         23    2    1    0    0    0 -0.78906128178E+01 -0.22348206788E+02 -0.16487737911E+02  0.96128740611E+02  0.91690703742E+02 0.  0.
         13    1    3    3    0    0 -0.29197668403E+02 -0.91974986341E+01  0.30293937457E+02  0.43067756291E+02  0.10566000000E+00 0. -1.
         22    1    1    0    0    0  0.78906128178E+01  0.22348206788E+02  0.16487737911E+02  0.28871259389E+02  0.00000000000E+00 0.  1.
</event>
<event>
 5    1  0.1245610E-004  0.9118800E+02  0.7818608E-02  0.1130116E+00
         25   -1    0    0    0    0  0.00000000000E+00  0.00000000000E+00  0.99999998245E-14  0.12500000000E+03  0.12500000000E+03 0.  0.
        -13    1    3    3    0    0  0.42325085070E+02  0.34638469533E+00  0.23104662172E+02  0.48222084014E+02  0.10566000000E+00 0.  1.
         23    2    1    0    0    0  0.12162540015E+02 -0.28449754372E+02  0.14625888251E+02  0.90776725601E+02  0.84078424107E+02 0.  0.
         13    1    3    3    0    0 -0.30162545054E+02 -0.28796139067E+02 -0.84787739213E+01  0.42554641587E+02  0.10566000000E+00 0. -1.
         22    1    1    0    0    0 -0.12162540015E+02  0.28449754372E+02 -0.14625888251E+02  0.34223274399E+02  0.00000000000E+00 0. -1.
</event>
<event>
 5    1  0.1245610E-004  0.9118800E+02  0.7818608E-02  0.1130116E+00
         25   -1    0    0    0    0  0.00000000000E+00  0.00000000000E+00  0.99999998245E-14  0.12500000000E+03  0.12500000000E+03 0.  0.
        -13    1    3    3    0    0 -0.23076114383E+02  0.10451581467E+02  0.21204051421E+02  0.33035822539E+02  0.10566000000E+00 0. -1.
         23    2    1    0    0    0  0.22974544777E+02  0.15746182341E+02 -0.16358568345E+02  0.92698688505E+02  0.86888849262E+02 0.  0.
         13    1    3    3    0    0  0.46050659160E+02  0.52946008743E+01 -0.37562619766E+02  0.59662865965E+02  0.10566000000E+00 0.  1.
         22    1    1    0    0    0 -0.22974544777E+02 -0.15746182341E+02  0.16358568345E+02  0.32301311495E+02  0.00000000000E+00 0.  1.
</event>
<event>
 5    1  0.1245610E-004  0.9118800E+02  0.7818608E-02  0.1130116E+00
         25   -1    0    0    0    0  0.00000000000E+00  0.00000000000E+00  0.99999998245E-14  0.12500000000E+03  0.12500000000E+03 0.  0.
        -13    1    3    3    0    0 -0.36671580767E+02 -0.14080612294E+01  0.49989501282E+02  0.62014102225E+02  0.10566000000E+00 0. -1.
         23    2    1    0    0    0 -0.12445090062E+02 -0.21569967561E+00  0.26222828964E+02  0.95973054727E+02  0.91478214247E+02 0.  0.
         13    1    3    3    0    0  0.24226490705E+02  0.11923615538E+01 -0.23766672318E+02  0.33958952502E+02  0.10566000000E+00 0.  1.
         22    1    1    0    0    0  0.12445090062E+02  0.21569967561E+00 -0.26222828964E+02  0.29026945273E+02  0.00000000000E+00 0. -1.
</event>
<event>
 5    1  0.1245610E-004  0.9118800E+02  0.7818608E-02  0.1130116E+00
         25   -1    0    0    0    0  0.00000000000E+00  0.00000000000E+00  0.99999998245E-14  0.12500000000E+03  0.12500000000E+03 0.  0.
        -13    1    3    3    0    0  0.23952260858E+02 -0.31689962002E+01  0.33997250379E+02  0.41708243004E+02  0.10566000000E+00 0.  1.
         23    2    1    0    0    0 -0.25755589257E+02 -0.50911103841E+01  0.10490129028E+02  0.96727883172E+02  0.92503896097E+02 0.  0.
         13    1    3    3    0    0 -0.49707850115E+02 -0.19221141839E+01 -0.23507121351E+02  0.55019640168E+02  0.10566000000E+00 0. -1.
         22    1    1    0    0    0  0.25755589257E+02  0.50911103841E+01 -0.10490129028E+02  0.28272116828E+02  0.00000000000E+00 0. -1.
</event>
<event>
 5    1  0.1245610E-004  0.9118800E+02  0.7818608E-02  0.1130116E+00
         25   -1    0    0    0    0  0.00000000000E+00  0.00000000000E+00  0.99999998245E-14  0.12500000000E+03  0.12500000000E+03 0.  0.
        -13    1    3    3    0    0  0.14746234096E+02 -0.39462409392E+02 -0.36861939067E+02  0.55978092955E+02  0.10566000000E+00 0. -1.
         23    2    1    0    0    0  0.14987985112E+02 -0.10696410138E+01 -0.24401459570E+02  0.96343149881E+02  0.91982538942E+02 0.  0.
         13    1    3    3    0    0  0.24175101557E+00  0.38392768378E+02  0.12460479497E+02  0.40365056926E+02  0.10566000000E+00 0.  1.
         22    1    1    0    0    0 -0.14987985112E+02  0.10696410138E+01  0.24401459570E+02  0.28656850119E+02  0.00000000000E+00 0. -1.
</event>
<event>
 5    1  0.1245610E-004  0.9118800E+02  0.7818608E-02  0.1130116E+00
         25   -1    0    0    0    0  0.00000000000E+00  0.00000000000E+00  0.99999998245E-14  0.12500000000E+03  0.12500000000E+03 0.  0.
        -13    1    3    3    0    0 -0.36051951165E+02  0.15027398666E+02 -0.58479521058E+01  0.39493994498E+02  0.10566000000E+00 0. -1.
         23    2    1    0    0    0  0.11121724323E+02  0.16965648565E+02  0.22611958560E+02  0.94621937964E+02  0.89612970551E+02 0.  0.
         13    1    3    3    0    0  0.47173675488E+02  0.19382498991E+01  0.28459910665E+02  0.55127943467E+02  0.10566000000E+00 0.  1.
         22    1    1    0    0    0 -0.11121724323E+02 -0.16965648565E+02 -0.22611958560E+02  0.30378062036E+02  0.00000000000E+00 0.  1.
</event>
<event>
 5    1  0.1245610E-004  0.9118800E+02  0.7818608E-02  0.1130116E+00
         25   -1    0    0    0    0  0.00000000000E+00  0.00000000000E+00  0.99999998245E-14  0.12500000000E+03  0.12500000000E+03 0.  0.
        -13    1    3    3    0    0 -0.45039732320E+02 -0.11294635505E+02  0.35757803888E+02  0.58606978949E+02  0.10566000000E+00 0.  1.
         23    2    1    0    0    0 -0.93482879250E+01 -0.17169738760E+02  0.15392763862E+02  0.10011772527E+03  0.96976447237E+02 0.  0.
         13    1    3    3    0    0  0.35691444394E+02 -0.58751032550E+01 -0.20365040026E+02  0.41510746326E+02  0.10566000000E+00 0. -1.
         22    1    1    0    0    0  0.93482879250E+01  0.17169738760E+02 -0.15392763862E+02  0.24882274725E+02  0.00000000000E+00 0.  1.
</event>
<event>
 5    1  0.1245610E-004  0.9118800E+02  0.7818608E-02  0.1130116E+00
         25   -1    0    0    0    0  0.00000000000E+00  0.00000000000E+00  0.99999998245E-14  0.12500000000E+03  0.12500000000E+03 0.  0.
        -13    1    3    3    0    0 -0.22328924502E+02  0.48865717835E+02 -0.12343867464E+02  0.55125506591E+02  0.10566000000E+00 0.  1.
         23    2    1    0    0    0  0.31989942221E+01  0.26222461199E+02  0.10909991320E+02  0.96418905795E+02  0.92085430165E+02 0.  0.
         13    1    3    3    0    0  0.25527918724E+02 -0.22643256636E+02  0.23253858784E+02  0.41293399204E+02  0.10566000000E+00 0. -1.
         22    1    1    0    0    0 -0.31989942221E+01 -0.26222461199E+02 -0.10909991320E+02  0.28581094205E+02  0.00000000000E+00 0. -1.
</event>
<event>
 5    1  0.1245610E-004  0.9118800E+02  0.7818608E-02  0.1130116E+00
         25   -1    0    0    0    0  0.00000000000E+00  0.00000000000E+00  0.99999998245E-14  0.12500000000E+03  0.12500000000E+03 0.  0.
        -13    1    3    3    0    0  0.25708227486E+02  0.32986672591E+02  0.41627124758E+02  0.59007306401E+02  0.10566000000E+00 0.  1.
         23    2    1    0    0    0  0.12206092296E+01  0.25598278505E+02  0.20537528810E+02  0.92158687010E+02  0.86108488272E+02 0.  0.
         13    1    3    3    0    0 -0.24487618256E+02 -0.73883940859E+01 -0.21089595948E+02  0.33151380609E+02  0.10566000000E+00 0. -1.
         22    1    1    0    0    0 -0.12206092296E+01 -0.25598278505E+02 -0.20537528810E+02  0.32841312990E+02  0.00000000000E+00 0.  1.
</event>
<event>
 5    1  0.1245610E-004  0.9118800E+02  0.7818608E-02  0.1130116E+00
         25   -1    0    0    0    0  0.00000000000E+00  0.00000000000E+00  0.99999998245E-14  0.12500000000E+03  0.12500000000E+03 0.  0.
        -13    1    3    3    0    0 -0.43917237769E+02  0.31993933416E+02 -0.22664547618E+02  0.58872985583E+02  0.10566000000E+00 0.  1.
         23    2    1    0    0    0 -0.22141485818E+02 -0.13409820865E+01 -0.10110605925E+02  0.10062238774E+03  0.97624776239E+02 0.  0.
         13    1    3    3    0    0  0.21775751951E+02 -0.33334915503E+02  0.12553941693E+02  0.41749402160E+02  0.10566000000E+00 0. -1.
         22    1    1    0    0    0  0.22141485818E+02  0.13409820865E+01  0.10110605925E+02  0.24377612257E+02  0.00000000000E+00 0.  1.
</event>
<event>
 5    1  0.1245610E-004  0.9118800E+02  0.7818608E-02  0.1130116E+00
         25   -1    0    0    0    0  0.00000000000E+00  0.00000000000E+00  0.99999998245E-14  0.12500000000E+03  0.12500000000E+03 0.  0.
        -13    1    3    3    0    0  0.13135290298E+02  0.17377453610E+02  0.45369383673E+02  0.50327963242E+02  0.10566000000E+00 0.  1.
         23    2    1    0    0    0  0.11713756733E+02 -0.18750764978E+02  0.24180954670E+02  0.92235356666E+02  0.86219714489E+02 0.  0.
         13    1    3    3    0    0 -0.14215335650E+01 -0.36128218587E+02 -0.21188429003E+02  0.41907393425E+02  0.10566000000E+00 0. -1.
         22    1    1    0    0    0 -0.11713756733E+02  0.18750764978E+02 -0.24180954670E+02  0.32764643334E+02  0.00000000000E+00 0.  1.
</event>
<event>
 5    1  0.1245610E-004  0.9118800E+02  0.7818608E-02  0.1130116E+00
         25   -1    0    0    0    0  0.00000000000E+00  0.00000000000E+00  0.99999998245E-14  0.12500000000E+03  0.12500000000E+03 0.  0.
        -13    1    3    3    0    0 -0.25766148341E+02 -0.37568029917E+02  0.37578544279E+02  0.59054292192E+02  0.10566000000E+00 0.  1.
         23    2    1    0    0    0 -0.34811813859E+00 -0.14207576560E+02  0.25825146618E+02  0.95522642320E+02  0.90860665747E+02 0.  0.
         13    1    3    3    0    0  0.25418030202E+02  0.23360453357E+02 -0.11753397661E+02  0.36468350128E+02  0.10566000000E+00 0. -1.
         22    1    1    0    0    0  0.34811813859E+00  0.14207576560E+02 -0.25825146618E+02  0.29477357680E+02  0.00000000000E+00 0.  1.
</event>
<event>
 5    1  0.1245610E-004  0.9118800E+02  0.7818608E-02  0.1130116E+00
         25   -1    0    0    0    0  0.00000000000E+00  0.00000000000E+00  0.99999998245E-14  0.12500000000E+03  0.12500000000E+03 0.  0.
        -13    1    3    3    0    0  0.54385877112E+02  0.15462267980E+02 -0.11825004342E+02  0.57764584757E+02  0.10566000000E+00 0.  1.
         23    2    1    0    0    0  0.20426838464E+02  0.26283426754E+01 -0.21389715536E+02  0.95306838403E+02  0.90563290581E+02 0.  0.
         13    1    3    3    0    0 -0.33959038648E+02 -0.12833925305E+02 -0.95647111940E+01  0.37542253647E+02  0.10566000000E+00 0. -1.
         22    1    1    0    0    0 -0.20426838464E+02 -0.26283426754E+01  0.21389715536E+02  0.29693161597E+02  0.00000000000E+00 0.  1.
</event>
<event>
 5    1  0.1245610E-004  0.9118800E+02  0.7818608E-02  0.1130116E+00
         25   -1    0    0    0    0  0.00000000000E+00  0.00000000000E+00  0.99999998245E-14  0.12500000000E+03  0.12500000000E+03 0.  0.
        -13    1    3    3    0    0  0.22437296934E+02 -0.19668748356E+02 -0.22355393548E+02  0.37283598811E+02  0.10566000000E+00 0.  1.
         23    2    1    0    0    0  0.17474751448E+02  0.20631639351E+02  0.16368812379E+02  0.93393521247E+02  0.87882764589E+02 0.  0.
         13    1    3    3    0    0 -0.49625454862E+01  0.40300387707E+02  0.38724205928E+02  0.56109922436E+02  0.10566000000E+00 0. -1.
         22    1    1    0    0    0 -0.17474751448E+02 -0.20631639351E+02 -0.16368812379E+02  0.31606478753E+02  0.00000000000E+00 0. -1.
</event>
<event>
 5    1  0.1245610E-004  0.9118800E+02  0.7818608E-02  0.1130116E+00
         25   -1    0    0    0    0  0.00000000000E+00  0.00000000000E+00  0.99999998245E-14  0.12500000000E+03  0.12500000000E+03 0.  0.
        -13    1    3    3    0    0 -0.16132443540E+02  0.28961426066E+02 -0.54512837228E+01  0.33596839027E+02  0.10566000000E+00 0. -1.
         23    2    1    0    0    0  0.20700628714E+01 -0.26970037464E+02  0.12650983423E+02  0.95138394841E+02  0.90330497122E+02 0.  0.
         13    1    3    3    0    0  0.18202506411E+02 -0.55931463530E+02  0.18102267146E+02  0.61541555814E+02  0.10566000000E+00 0.  1.
         22    1    1    0    0    0 -0.20700628714E+01  0.26970037464E+02 -0.12650983423E+02  0.29861605159E+02  0.00000000000E+00 0.  1.
</event>
<event>
 5    1  0.1245610E-004  0.9118800E+02  0.7818608E-02  0.1130116E+00
         25   -1    0    0    0    0  0.00000000000E+00  0.00000000000E+00  0.99999998245E-14  0.12500000000E+03  0.12500000000E+03 0.  0.
        -13    1    3    3    0    0 -0.15084054927E+02 -0.42516166962E+02 -0.31289833823E+02  0.54901894602E+02  0.10566000000E+00 0. -1.
         23    2    1    0    0    0 -0.13972593493E+02 -0.24939699270E+02  0.56814965604E+01  0.95853793184E+02  0.91315104424E+02 0.  0.
         13    1    3    3    0    0  0.11114614339E+01  0.17576467692E+02  0.36971330384E+02  0.40951898582E+02  0.10566000000E+00 0.  1.
         22    1    1    0    0    0  0.13972593493E+02  0.24939699270E+02 -0.56814965604E+01  0.29146206816E+02  0.00000000000E+00 0. -1.
</event>
<event>
 5    1  0.1245610E-004  0.9118800E+02  0.7818608E-02  0.1130116E+00
         25   -1    0    0    0    0  0.00000000000E+00  0.00000000000E+00  0.99999998245E-14  0.12500000000E+03  0.12500000000E+03 0.  0.
        -13    1    3    3    0    0  0.47255567879E+01  0.42109059414E+02  0.30673834559E+02  0.52310601815E+02  0.10566000000E+00 0.  1.
         23    2    1    0    0    0 -0.22271747818E+02  0.19177266821E+02  0.74076661781E+01  0.94690400336E+02  0.89708417019E+02 0.  0.
         13    1    3    3    0    0 -0.26997304606E+02 -0.22931792593E+02 -0.23266168381E+02  0.42379798521E+02  0.10566000000E+00 0. -1.
         22    1    1    0    0    0  0.22271747818E+02 -0.19177266821E+02 -0.74076661781E+01  0.30309599664E+02  0.00000000000E+00 0.  1.
</event>
<event>
 5    1  0.1245610E-004  0.9118800E+02  0.7818608E-02  0.1130116E+00
         25   -1    0    0    0    0  0.00000000000E+00  0.00000000000E+00  0.99999998245E-14  0.12500000000E+03  0.12500000000E+03 0.  0.
        -13    1    3    3    0    0  0.46219228773E+01  0.39073236518E+02 -0.32770026004E+02  0.51205134034E+02  0.10566000000E+00 0. -1.
         23    2    1    0    0    0  0.16176833743E+02 -0.37452412501E+01 -0.23022906288E+02  0.96613894316E+02  0.92349735132E+02 0.  0.
         13    1    3    3    0    0  0.11554910866E+02 -0.42818477769E+02  0.97471197161E+01  0.45408760282E+02  0.10566000000E+00 0.  1.
         22    1    1    0    0    0 -0.16176833743E+02  0.37452412501E+01  0.23022906288E+02  0.28386105684E+02  0.00000000000E+00 0.  1.
</event>
<event>
 5    1  0.1245610E-004  0.9118800E+02  0.7818608E-02  0.1130116E+00
         25   -1    0    0    0    0  0.00000000000E+00  0.00000000000E+00  0.99999998245E-14  0.12500000000E+03  0.12500000000E+03 0.  0.
        -13    1    3    3    0    0  0.35501994981E+02 -0.29202665157E+02  0.10943291328E+02  0.47254143617E+02  0.10566000000E+00 0. -1.
         23    2    1    0    0    0 -0.11264153056E+02 -0.27940082098E+02  0.27496884507E+01  0.94749543503E+02  0.89790789482E+02 0.  0.
         13    1    3    3    0    0 -0.46766148037E+02  0.12625830600E+01 -0.81936028773E+01  0.47495399886E+02  0.10566000000E+00 0.  1.
         22    1    1    0    0    0  0.11264153056E+02  0.27940082098E+02 -0.27496884507E+01  0.30250456497E+02  0.00000000000E+00 0. -1.
</event>
<event>
 5    1  0.1245610E-004  0.9118800E+02  0.7818608E-02  0.1130116E+00
         25   -1    0    0    0    0  0.00000000000E+00  0.00000000000E+00  0.99999998245E-14  0.12500000000E+03  0.12500000000E+03 0.  0.
        -13    1    3    3    0    0 -0.13246278194E+02  0.15489677092E+02  0.27904706065E+02  0.34555430355E+02  0.10566000000E+00 0. -1.
         23    2    1    0    0    0 -0.37836313032E+00 -0.13632426277E+01 -0.29352819862E+02  0.95613104570E+02  0.90985032519E+02 0.  0.
         13    1    3    3    0    0  0.12867915064E+02 -0.16852919719E+02 -0.57257525928E+02  0.61057674215E+02  0.10566000000E+00 0.  1.
         22    1    1    0    0    0  0.37836313032E+00  0.13632426277E+01  0.29352819862E+02  0.29386895430E+02  0.00000000000E+00 0.  1.
</event>
<event>
 5    1  0.1245610E-004  0.9118800E+02  0.7818608E-02  0.1130116E+00
         25   -1    0    0    0    0  0.00000000000E+00  0.00000000000E+00  0.99999998245E-14  0.12500000000E+03  0.12500000000E+03 0.  0.
        -13    1    3    3    0    0  0.41065292942E+02  0.26310142269E+01  0.10105071232E+02  0.42372209630E+02  0.10566000000E+00 0.  1.
         23    2    1    0    0    0 -0.85990672318E+01  0.15976883187E+02  0.23304214478E+02  0.95465424227E+02  0.90781914811E+02 0.  0.
         13    1    3    3    0    0 -0.49664360174E+02  0.13345868960E+02  0.13199143246E+02  0.53093214597E+02  0.10566000000E+00 0. -1.
         22    1    1    0    0    0  0.85990672318E+01 -0.15976883187E+02 -0.23304214478E+02  0.29534575773E+02  0.00000000000E+00 0. -1.
</event>
<event>
 5    1  0.1245610E-004  0.9118800E+02  0.7818608E-02  0.1130116E+00
         25   -1    0    0    0    0  0.00000000000E+00  0.00000000000E+00  0.99999998245E-14  0.12500000000E+03  0.12500000000E+03 0.  0.
        -13    1    3    3    0    0 -0.12561617348E+02 -0.39046302072E+02  0.35739830611E+01  0.41172714932E+02  0.10566000000E+00 0.  1.
         23    2    1    0    0    0 -0.58944886722E+01  0.44683404404E+01 -0.28445656968E+02  0.95608394679E+02  0.90978561594E+02 0.  0.
         13    1    3    3    0    0  0.66671286762E+01  0.43514642513E+02 -0.32019640030E+02  0.54435679746E+02  0.10566000000E+00 0. -1.
         22    1    1    0    0    0  0.58944886722E+01 -0.44683404404E+01  0.28445656968E+02  0.29391605321E+02  0.00000000000E+00 0. -1.
</event>
<event>
 5    1  0.1245610E-004  0.9118800E+02  0.7818608E-02  0.1130116E+00
         25   -1    0    0    0    0  0.00000000000E+00  0.00000000000E+00  0.99999998245E-14  0.12500000000E+03  0.12500000000E+03 0.  0.
        -13    1    3    3    0    0 -0.51886289755E+02  0.12358793558E+02  0.27726177709E+02  0.60113883065E+02  0.10566000000E+00 0.  1.
         23    2    1    0    0    0 -0.26873275298E+02 -0.60264439042E+01  0.14728589966E+02  0.93768248308E+02  0.88414150886E+02 0.  0.
         13    1    3    3    0    0  0.25013014457E+02 -0.18385237462E+02 -0.12997587743E+02  0.33654365243E+02  0.10566000000E+00 0. -1.
         22    1    1    0    0    0  0.26873275298E+02  0.60264439042E+01 -0.14728589966E+02  0.31231751692E+02  0.00000000000E+00 0.  1.
</event>
<event>
 5    1  0.1245610E-004  0.9118800E+02  0.7818608E-02  0.1130116E+00
         25   -1    0    0    0    0  0.00000000000E+00  0.00000000000E+00  0.99999998245E-14  0.12500000000E+03  0.12500000000E+03 0.  0.
        -13    1    3    3    0    0 -0.21271815994E+02  0.52725681289E+02 -0.22511345136E+01  0.56899616815E+02  0.10566000000E+00 0.  1.
         23    2    1    0    0    0  0.94525137695E+01  0.19111247692E+02  0.52210624701E+01  0.10304893401E+03  0.10068382940E+03 0.  0.
         13    1    3    3    0    0  0.30724329763E+02 -0.33614433597E+02  0.74721969837E+01  0.46149317191E+02  0.10566000000E+00 0. -1.
         22    1    1    0    0    0 -0.94525137695E+01 -0.19111247692E+02 -0.52210624701E+01  0.21951065993E+02  0.00000000000E+00 0.  1.
</event>
<event>
 5    1  0.1245610E-004  0.9118800E+02  0.7818608E-02  0.1130116E+00
         25   -1    0    0    0    0  0.00000000000E+00  0.00000000000E+00  0.99999998245E-14  0.12500000000E+03  0.12500000000E+03 0.  0.
        -13    1    3    3    0    0 -0.23902603877E+00  0.51487572389E+02  0.32800389366E+02  0.61048373856E+02  0.10566000000E+00 0. -1.
         23    2    1    0    0    0 -0.56039322696E+01  0.32084282387E+02  0.11243221263E+02  0.90544009845E+02  0.83731729119E+02 0.  0.
         13    1    3    3    0    0 -0.53649062309E+01 -0.19403290002E+02 -0.21557168103E+02  0.29495635989E+02  0.10566000000E+00 0.  1.
         22    1    1    0    0    0  0.56039322696E+01 -0.32084282387E+02 -0.11243221263E+02  0.34455990155E+02  0.00000000000E+00 0. -1.
</event>
<event>
 5    1  0.1245610E-004  0.9118800E+02  0.7818608E-02  0.1130116E+00
         25   -1    0    0    0    0  0.00000000000E+00  0.00000000000E+00  0.99999998245E-14  0.12500000000E+03  0.12500000000E+03 0.  0.
        -13    1    3    3    0    0 -0.29840145036E+01 -0.57429605936E+02 -0.18631884635E+02  0.60450163521E+02  0.10566000000E+00 0. -1.
         23    2    1    0    0    0 -0.90551754261E+01 -0.22695874865E+02  0.48519396055E+00  0.10055957547E+03  0.97544317457E+02 0.  0.
         13    1    3    3    0    0 -0.60711609225E+01  0.34733731071E+02  0.19117078596E+02  0.40109411952E+02  0.10566000000E+00 0.  1.
         22    1    1    0    0    0  0.90551754261E+01  0.22695874865E+02 -0.48519396055E+00  0.24440424527E+02  0.00000000000E+00 0. -1.
</event>
<event>
 5    1  0.1245610E-004  0.9118800E+02  0.7818608E-02  0.1130116E+00
         25   -1    0    0    0    0  0.00000000000E+00  0.00000000000E+00  0.99999998245E-14  0.12500000000E+03  0.12500000000E+03 0.  0.
        -13    1    3    3    0    0 -0.13887377167E+02 -0.31988694941E+02  0.37246707705E+02  0.51024153570E+02  0.10566000000E+00 0. -1.
         23    2    1    0    0    0  0.69943373942E+01 -0.27303125939E+02 -0.30493755391E+01  0.96650747227E+02  0.92399603931E+02 0.  0.
         13    1    3    3    0    0  0.20881714561E+02  0.46855690015E+01 -0.40296083244E+02  0.45626593657E+02  0.10566000000E+00 0.  1.
         22    1    1    0    0    0 -0.69943373942E+01  0.27303125939E+02  0.30493755391E+01  0.28349252773E+02  0.00000000000E+00 0. -1.
</event>
<event>
 5    1  0.1245610E-004  0.9118800E+02  0.7818608E-02  0.1130116E+00
         25   -1    0    0    0    0  0.00000000000E+00  0.00000000000E+00  0.99999998245E-14  0.12500000000E+03  0.12500000000E+03 0.  0.
        -13    1    3    3    0    0  0.40324329398E+02  0.37649380137E+02 -0.10253869926E+02  0.56113103448E+02  0.10566000000E+00 0. -1.
         23    2    1    0    0    0  0.14748176380E+02  0.97946820794E+01 -0.22960289883E+02  0.96006562552E+02  0.91523989412E+02 0.  0.
         13    1    3    3    0    0 -0.25576153018E+02 -0.27854698058E+02 -0.12706419957E+02  0.39893459104E+02  0.10566000000E+00 0.  1.
         22    1    1    0    0    0 -0.14748176380E+02 -0.97946820794E+01  0.22960289883E+02  0.28993437448E+02  0.00000000000E+00 0. -1.
</event>
<event>
 5    1  0.1245610E-004  0.9118800E+02  0.7818608E-02  0.1130116E+00
         25   -1    0    0    0    0  0.00000000000E+00  0.00000000000E+00  0.99999998245E-14  0.12500000000E+03  0.12500000000E+03 0.  0.
        -13    1    3    3    0    0  0.74114267954E+01  0.14506099359E+02 -0.29489235739E+02  0.33689499169E+02  0.10566000000E+00 0.  1.
         23    2    1    0    0    0 -0.56290127903E+01  0.82708462122E-01  0.29068564530E+02  0.95391317667E+02  0.90679818134E+02 0.  0.
         13    1    3    3    0    0 -0.13040439586E+02 -0.14423390897E+02  0.58557800269E+02  0.61701818498E+02  0.10566000000E+00 0. -1.
         22    1    1    0    0    0  0.56290127903E+01 -0.82708462122E-01 -0.29068564530E+02  0.29608682333E+02  0.00000000000E+00 0. -1.
</event>
<event>
 5    1  0.1245610E-004  0.9118800E+02  0.7818608E-02  0.1130116E+00
         25   -1    0    0    0    0  0.00000000000E+00  0.00000000000E+00  0.99999998245E-14  0.12500000000E+03  0.12500000000E+03 0.  0.
        -13    1    3    3    0    0 -0.38023664534E+02 -0.44978618875E+02  0.47295380837E+01  0.59086842148E+02  0.10566000000E+00 0.  1.
         23    2    1    0    0    0 -0.14576769691E+02 -0.18848339612E+02 -0.12387291436E+02  0.98145072894E+02  0.94399513895E+02 0.  0.
         13    1    3    3    0    0  0.23446894843E+02  0.26130279263E+02 -0.17116829520E+02  0.39058230746E+02  0.10566000000E+00 0. -1.
         22    1    1    0    0    0  0.14576769691E+02  0.18848339612E+02  0.12387291436E+02  0.26854927106E+02  0.00000000000E+00 0.  1.
</event>
<event>
 5    1  0.1245610E-004  0.9118800E+02  0.7818608E-02  0.1130116E+00
         25   -1    0    0    0    0  0.00000000000E+00  0.00000000000E+00  0.99999998245E-14  0.12500000000E+03  0.12500000000E+03 0.  0.
        -13    1    3    3    0    0 -0.27516978947E+02  0.81081369518E+01 -0.51316669962E+02  0.58790626763E+02  0.10566000000E+00 0. -1.
         23    2    1    0    0    0 -0.12508760704E+02  0.19149206039E+02 -0.24101713188E+02  0.91772695492E+02  0.85546325889E+02 0.  0.
         13    1    3    3    0    0  0.15008218243E+02  0.11041069087E+02  0.27214956774E+02  0.32982068729E+02  0.10566000000E+00 0.  1.
         22    1    1    0    0    0  0.12508760704E+02 -0.19149206039E+02  0.24101713188E+02  0.33227304508E+02  0.00000000000E+00 0. -1.
</event>
<event>
 5    1  0.1245610E-004  0.9118800E+02  0.7818608E-02  0.1130116E+00
         25   -1    0    0    0    0  0.00000000000E+00  0.00000000000E+00  0.99999998245E-14  0.12500000000E+03  0.12500000000E+03 0.  0.
        -13    1    3    3    0    0 -0.16577526538E+02  0.46538174366E+02 -0.38172133721E+02  0.62431875003E+02  0.10566000000E+00 0.  1.
         23    2    1    0    0    0 -0.10880577280E+02  0.24667863285E+02 -0.21491518322E+02  0.90521371826E+02  0.83697926836E+02 0.  0.
         13    1    3    3    0    0  0.56969492579E+01 -0.21870311082E+02  0.16680615400E+02  0.28089496824E+02  0.10566000000E+00 0. -1.
         22    1    1    0    0    0  0.10880577280E+02 -0.24667863285E+02  0.21491518322E+02  0.34478628174E+02  0.00000000000E+00 0.  1.
</event>
<event>
 5    1  0.1245610E-004  0.9118800E+02  0.7818608E-02  0.1130116E+00
         25   -1    0    0    0    0  0.00000000000E+00  0.00000000000E+00  0.99999998245E-14  0.12500000000E+03  0.12500000000E+03 0.  0.
        -13    1    3    3    0    0  0.16863973079E+02 -0.56889204309E+02 -0.10123224983E+02  0.60193571110E+02  0.10566000000E+00 0.  1.
         23    2    1    0    0    0 -0.28082932279E+01 -0.25984563146E+02 -0.10509233569E+02  0.96830370557E+02  0.92642283215E+02 0.  0.
         13    1    3    3    0    0 -0.19672266307E+02  0.30904641163E+02 -0.38600858625E+00  0.36636799447E+02  0.10566000000E+00 0. -1.
         22    1    1    0    0    0  0.28082932279E+01  0.25984563146E+02  0.10509233569E+02  0.28169629443E+02  0.00000000000E+00 0.  1.
</event>
<event>
 5    1  0.1245610E-004  0.9118800E+02  0.7818608E-02  0.1130116E+00
         25   -1    0    0    0    0  0.00000000000E+00  0.00000000000E+00  0.99999998245E-14  0.12500000000E+03  0.12500000000E+03 0.  0.
        -13    1    3    3    0    0 -0.41292926412E+01  0.13857848707E+02  0.36290924329E+02  0.39065757144E+02  0.10566000000E+00 0.  1.
         23    2    1    0    0    0 -0.53677423934E+01  0.23897207880E+02 -0.18198648752E+02  0.94486396160E+02  0.89423705135E+02 0.  0.
         13    1    3    3    0    0 -0.12384497521E+01  0.10039359173E+02 -0.54489573082E+02  0.55420639017E+02  0.10566000000E+00 0. -1.
         22    1    1    0    0    0  0.53677423934E+01 -0.23897207880E+02  0.18198648752E+02  0.30513603840E+02  0.00000000000E+00 0. -1.
</event>
<event>
 5    1  0.1245610E-004  0.9118800E+02  0.7818608E-02  0.1130116E+00
         25   -1    0    0    0    0  0.00000000000E+00  0.00000000000E+00  0.99999998245E-14  0.12500000000E+03  0.12500000000E+03 0.  0.
        -13    1    3    3    0    0 -0.30907247234E+02 -0.57074909556E+01 -0.49629319356E+02  0.58744479642E+02  0.10566000000E+00 0.  1.
         23    2    1    0    0    0 -0.28223194400E+02  0.80893653215E+01 -0.28797581482E+02  0.83874737294E+02  0.73100508367E+02 0.  0.
         13    1    3    3    0    0  0.26840528339E+01  0.13796856277E+02  0.20831737874E+02  0.25130257652E+02  0.10566000000E+00 0. -1.
         22    1    1    0    0    0  0.28223194400E+02 -0.80893653215E+01  0.28797581482E+02  0.41125262706E+02  0.00000000000E+00 0.  1.
</event>
<event>
 5    1  0.1245610E-004  0.9118800E+02  0.7818608E-02  0.1130116E+00
         25   -1    0    0    0    0  0.00000000000E+00  0.00000000000E+00  0.99999998245E-14  0.12500000000E+03  0.12500000000E+03 0.  0.
        -13    1    3    3    0    0 -0.32041192842E+01 -0.42032769974E+02 -0.22076806557E+02  0.47585887444E+02  0.10566000000E+00 0.  1.
         23    2    1    0    0    0 -0.14794322691E+02  0.35256082308E+01 -0.26126093361E+02  0.94769640234E+02  0.89818762285E+02 0.  0.
         13    1    3    3    0    0 -0.11590203406E+02  0.45558378205E+02 -0.40492868040E+01  0.47183752789E+02  0.10566000000E+00 0. -1.
         22    1    1    0    0    0  0.14794322691E+02 -0.35256082308E+01  0.26126093361E+02  0.30230359766E+02  0.00000000000E+00 0. -1.
</event>
<event>
 5    1  0.1245610E-004  0.9118800E+02  0.7818608E-02  0.1130116E+00
         25   -1    0    0    0    0  0.00000000000E+00  0.00000000000E+00  0.99999998245E-14  0.12500000000E+03  0.12500000000E+03 0.  0.
        -13    1    3    3    0    0 -0.28829925525E+02 -0.10100894057E+01  0.50273683265E+02  0.57962395391E+02  0.10566000000E+00 0.  1.
         23    2    1    0    0    0 -0.20570175449E+02  0.13210041403E+02  0.16561904064E+02  0.95471471792E+02  0.90790241480E+02 0.  0.
         13    1    3    3    0    0  0.82597500757E+01  0.14220130809E+02 -0.33711779201E+02  0.37509076401E+02  0.10566000000E+00 0. -1.
         22    1    1    0    0    0  0.20570175449E+02 -0.13210041403E+02 -0.16561904064E+02  0.29528528208E+02  0.00000000000E+00 0.  1.
</event>
<event>
 5    1  0.1245610E-004  0.9118800E+02  0.7818608E-02  0.1130116E+00
         25   -1    0    0    0    0  0.00000000000E+00  0.00000000000E+00  0.99999998245E-14  0.12500000000E+03  0.12500000000E+03 0.  0.
        -13    1    3    3    0    0  0.24995182270E+02 -0.32566840291E+01 -0.37852577044E+02  0.45477399667E+02  0.10566000000E+00 0. -1.
         23    2    1    0    0    0  0.19202373277E+02  0.18235664754E+02  0.87394210302E+01  0.97113657672E+02  0.93023730403E+02 0.  0.
         13    1    3    3    0    0 -0.57928089929E+01  0.21492348783E+02  0.46591998074E+02  0.51636258005E+02  0.10566000000E+00 0.  1.
         22    1    1    0    0    0 -0.19202373277E+02 -0.18235664754E+02 -0.87394210302E+01  0.27886342328E+02  0.00000000000E+00 0. -1.
</event>
<event>
 5    1  0.1245610E-004  0.9118800E+02  0.7818608E-02  0.1130116E+00
         25   -1    0    0    0    0  0.00000000000E+00  0.00000000000E+00  0.99999998245E-14  0.12500000000E+03  0.12500000000E+03 0.  0.
        -13    1    3    3    0    0  0.33924349694E+02  0.36078545873E+02  0.27988308619E+02  0.56884791973E+02  0.10566000000E+00 0.  1.
         23    2    1    0    0    0  0.20295333350E+02 -0.31774457279E+01  0.95249140783E+01  0.10235666311E+03  0.99820668093E+02 0.  0.
         13    1    3    3    0    0 -0.13629016344E+02 -0.39255991601E+02 -0.18463394540E+02  0.45471871141E+02  0.10566000000E+00 0. -1.
         22    1    1    0    0    0 -0.20295333350E+02  0.31774457279E+01 -0.95249140783E+01  0.22643336886E+02  0.00000000000E+00 0. -1.
</event>
<event>
 5    1  0.1245610E-004  0.9118800E+02  0.7818608E-02  0.1130116E+00
         25   -1    0    0    0    0  0.00000000000E+00  0.00000000000E+00  0.99999998245E-14  0.12500000000E+03  0.12500000000E+03 0.  0.
        -13    1    3    3    0    0 -0.29295692449E+02 -0.94323964996E+01  0.27346199754E+02  0.41170784603E+02  0.10566000000E+00 0.  1.
         23    2    1    0    0    0  0.18175904373E+02  0.16950963615E+02  0.68556188469E+01  0.99218258844E+02  0.95810044938E+02 0.  0.
         13    1    3    3    0    0  0.47471596823E+02  0.26383360114E+02 -0.20490580907E+02  0.58047474241E+02  0.10566000000E+00 0. -1.
         22    1    1    0    0    0 -0.18175904373E+02 -0.16950963615E+02 -0.68556188469E+01  0.25781741156E+02  0.00000000000E+00 0. -1.
</event>
<event>
 5    1  0.1245610E-004  0.9118800E+02  0.7818608E-02  0.1130116E+00
         25   -1    0    0    0    0  0.00000000000E+00  0.00000000000E+00  0.99999998245E-14  0.12500000000E+03  0.12500000000E+03 0.  0.
        -13    1    3    3    0    0 -0.61183166360E+02 -0.39990391484E+01 -0.74015525907E+01  0.61758937044E+02  0.10566000000E+00 0. -1.
         23    2    1    0    0    0 -0.27118210975E+02 -0.84978504717E+01 -0.24271101859E+01  0.96478048927E+02  0.92165678166E+02 0.  0.
         13    1    3    3    0    0  0.34064955385E+02 -0.44988113233E+01  0.49744424047E+01  0.34719111883E+02  0.10566000000E+00 0.  1.
         22    1    1    0    0    0  0.27118210975E+02  0.84978504717E+01  0.24271101859E+01  0.28521951073E+02  0.00000000000E+00 0. -1.
</event>
<event>
 5    1  0.1245610E-004  0.9118800E+02  0.7818608E-02  0.1130116E+00
         25   -1    0    0    0    0  0.00000000000E+00  0.00000000000E+00  0.99999998245E-14  0.12500000000E+03  0.12500000000E+03 0.  0.
        -13    1    3    3    0    0  0.13713669777E+02  0.36113301686E+02  0.55219322563E+01  0.39022278218E+02  0.10566000000E+00 0.  1.
         23    2    1    0    0    0 -0.27260484216E+02 -0.21186152182E+01  0.11411171070E+02  0.95371679843E+02  0.90652743812E+02 0.  0.
         13    1    3    3    0    0 -0.40974153993E+02 -0.38231916904E+02  0.58892388140E+01  0.56349401625E+02  0.10566000000E+00 0. -1.
         22    1    1    0    0    0  0.27260484216E+02  0.21186152182E+01 -0.11411171070E+02  0.29628320157E+02  0.00000000000E+00 0. -1.
</event>
<event>
 5    1  0.1245610E-004  0.9118800E+02  0.7818608E-02  0.1130116E+00
         25   -1    0    0    0    0  0.00000000000E+00  0.00000000000E+00  0.99999998245E-14  0.12500000000E+03  0.12500000000E+03 0.  0.
        -13    1    3    3    0    0 -0.86631648614E+01 -0.49393619158E+02  0.19284788035E+02  0.53727965274E+02  0.10566000000E+00 0. -1.
         23    2    1    0    0    0 -0.56834033476E+01 -0.11638944801E+02  0.29353544332E+02  0.92915787768E+02  0.87200613198E+02 0.  0.
         13    1    3    3    0    0  0.29797615138E+01  0.37754674356E+02  0.10068756297E+02  0.39187822494E+02  0.10566000000E+00 0.  1.
         22    1    1    0    0    0  0.56834033476E+01  0.11638944801E+02 -0.29353544332E+02  0.32084212232E+02  0.00000000000E+00 0. -1.
</event>
<event>
 5    1  0.1245610E-004  0.9118800E+02  0.7818608E-02  0.1130116E+00
         25   -1    0    0    0    0  0.00000000000E+00  0.00000000000E+00  0.99999998245E-14  0.12500000000E+03  0.12500000000E+03 0.  0.
        -13    1    3    3    0    0  0.21489054505E+02 -0.96603586267E+01 -0.27804040647E+02  0.36444174194E+02  0.10566000000E+00 0.  1.
         23    2    1    0    0    0  0.10632845903E+02  0.11012470011E+02  0.25849105199E+02  0.94958226628E+02  0.90080834016E+02 0.  0.
         13    1    3    3    0    0 -0.10856208602E+02  0.20672828638E+02  0.53653145846E+02  0.58514052434E+02  0.10566000000E+00 0. -1.
         22    1    1    0    0    0 -0.10632845903E+02 -0.11012470011E+02 -0.25849105199E+02  0.30041773372E+02  0.00000000000E+00 0. -1.
</event>
<event>
 5    1  0.1245610E-004  0.9118800E+02  0.7818608E-02  0.1130116E+00
         25   -1    0    0    0    0  0.00000000000E+00  0.00000000000E+00  0.99999998245E-14  0.12500000000E+03  0.12500000000E+03 0.  0.
        -13    1    3    3    0    0 -0.25727550104E+02  0.45483423899E+00  0.38933192465E+02  0.46668172753E+02  0.10566000000E+00 0.  1.
         23    2    1    0    0    0 -0.21785584369E+02 -0.96523280261E+01 -0.11702638753E+02  0.98453232279E+02  0.94806687896E+02 0.  0.
         13    1    3    3    0    0  0.39419657346E+01 -0.10107162265E+02 -0.50635831219E+02  0.51785059526E+02  0.10566000000E+00 0. -1.
         22    1    1    0    0    0  0.21785584369E+02  0.96523280261E+01  0.11702638753E+02  0.26546767721E+02  0.00000000000E+00 0. -1.
</event>
<event>
 5    1  0.1245610E-004  0.9118800E+02  0.7818608E-02  0.1130116E+00
         25   -1    0    0    0    0  0.00000000000E+00  0.00000000000E+00  0.99999998245E-14  0.12500000000E+03  0.12500000000E+03 0.  0.
        -13    1    3    3    0    0  0.36993049261E+02 -0.17244311863E+02 -0.98696280265E+01  0.41991340853E+02  0.10566000000E+00 0.  1.
         23    2    1    0    0    0  0.68032514235E+01 -0.43830508364E+01  0.30171825326E+02  0.93761651643E+02  0.88404824024E+02 0.  0.
         13    1    3    3    0    0 -0.30189797837E+02  0.12861261027E+02  0.40041453353E+02  0.51770310790E+02  0.10566000000E+00 0. -1.
         22    1    1    0    0    0 -0.68032514235E+01  0.43830508364E+01 -0.30171825326E+02  0.31238348357E+02  0.00000000000E+00 0.  1.
</event>
<event>
 5    1  0.1245610E-004  0.9118800E+02  0.7818608E-02  0.1130116E+00
         25   -1    0    0    0    0  0.00000000000E+00  0.00000000000E+00  0.99999998245E-14  0.12500000000E+03  0.12500000000E+03 0.  0.
        -13    1    3    3    0    0  0.12547356237E+02 -0.12322295629E+02 -0.40929709436E+02  0.44548034711E+02  0.10566000000E+00 0.  1.
         23    2    1    0    0    0 -0.16619471196E+02 -0.25015460993E+02 -0.18878258491E+01  0.94907741893E+02  0.90010751987E+02 0.  0.
         13    1    3    3    0    0 -0.29166827433E+02 -0.12693165364E+02  0.39041883587E+02  0.50359707182E+02  0.10566000000E+00 0. -1.
         22    1    1    0    0    0  0.16619471196E+02  0.25015460993E+02  0.18878258491E+01  0.30092258107E+02  0.00000000000E+00 0. -1.
</event>
<event>
 5    1  0.1245610E-004  0.9118800E+02  0.7818608E-02  0.1130116E+00
         25   -1    0    0    0    0  0.00000000000E+00  0.00000000000E+00  0.99999998245E-14  0.12500000000E+03  0.12500000000E+03 0.  0.
        -13    1    3    3    0    0  0.25182159473E+02  0.29250116106E+02 -0.18659741101E+02  0.42870823994E+02  0.10566000000E+00 0.  1.
         23    2    1    0    0    0  0.26744983215E+02 -0.86363075229E+01  0.14617705352E+02  0.93321028354E+02  0.87779593804E+02 0.  0.
         13    1    3    3    0    0  0.15628237415E+01 -0.37886423629E+02  0.33277446453E+02  0.50450204359E+02  0.10566000000E+00 0. -1.
         22    1    1    0    0    0 -0.26744983215E+02  0.86363075229E+01 -0.14617705352E+02  0.31678971646E+02  0.00000000000E+00 0.  1.
</event>
<event>
 5    1  0.1245610E-004  0.9118800E+02  0.7818608E-02  0.1130116E+00
         25   -1    0    0    0    0  0.00000000000E+00  0.00000000000E+00  0.99999998245E-14  0.12500000000E+03  0.12500000000E+03 0.  0.
        -13    1    3    3    0    0 -0.19693349454E+01 -0.31297729461E+02  0.13803534603E+02  0.34263316844E+02  0.10566000000E+00 0.  1.
         23    2    1    0    0    0  0.12173415548E+02  0.23364468981E+02 -0.11644888988E+02  0.96195592414E+02  0.91781796144E+02 0.  0.
         13    1    3    3    0    0  0.14142750493E+02  0.54662198442E+02 -0.25448423591E+02  0.61932275570E+02  0.10566000000E+00 0. -1.
         22    1    1    0    0    0 -0.12173415548E+02 -0.23364468981E+02  0.11644888988E+02  0.28804407586E+02  0.00000000000E+00 0. -1.
</event>
<event>
 5    1  0.1245610E-004  0.9118800E+02  0.7818608E-02  0.1130116E+00
         25   -1    0    0    0    0  0.00000000000E+00  0.00000000000E+00  0.99999998245E-14  0.12500000000E+03  0.12500000000E+03 0.  0.
        -13    1    3    3    0    0  0.25490388536E+02 -0.23971820738E+02 -0.40216451722E+01  0.35222051206E+02  0.10566000000E+00 0.  1.
         23    2    1    0    0    0 -0.29092206569E+01  0.28923189681E+02  0.34696421549E+01  0.95724534455E+02  0.91137992154E+02 0.  0.
         13    1    3    3    0    0 -0.28399609193E+02  0.52895010419E+02  0.74912873271E+01  0.60502483250E+02  0.10566000000E+00 0. -1.
         22    1    1    0    0    0  0.29092206569E+01 -0.28923189681E+02 -0.34696421549E+01  0.29275465545E+02  0.00000000000E+00 0. -1.
</event>
<event>
 5    1  0.1245610E-004  0.9118800E+02  0.7818608E-02  0.1130116E+00
         25   -1    0    0    0    0  0.00000000000E+00  0.00000000000E+00  0.99999998245E-14  0.12500000000E+03  0.12500000000E+03 0.  0.
        -13    1    3    3    0    0  0.14087626009E+02 -0.60372730836E+01 -0.83235533369E+01  0.17441404102E+02  0.10566000000E+00 0. -1.
         23    2    1    0    0    0 -0.40464379305E+02  0.15733997359E+02 -0.19790649306E+02  0.77286328318E+02  0.60799523679E+02 0.  0.
         13    1    3    3    0    0 -0.54552005314E+02  0.21771270442E+02 -0.11467095969E+02  0.59844924216E+02  0.10566000000E+00 0.  1.
         22    1    1    0    0    0  0.40464379305E+02 -0.15733997359E+02  0.19790649306E+02  0.47713671682E+02  0.00000000000E+00 0.  1.
</event>
<event>
 5    1  0.1245610E-004  0.9118800E+02  0.7818608E-02  0.1130116E+00
         25   -1    0    0    0    0  0.00000000000E+00  0.00000000000E+00  0.99999998245E-14  0.12500000000E+03  0.12500000000E+03 0.  0.
        -13    1    3    3    0    0 -0.36074147648E+02 -0.36335692554E+02 -0.63963709152E+01  0.51599916733E+02  0.10566000000E+00 0.  1.
         23    2    1    0    0    0  0.58598709891E+01 -0.29806302956E+02  0.62744673922E+00  0.94616657963E+02  0.89605605242E+02 0.  0.
         13    1    3    3    0    0  0.41934018637E+02  0.65293895984E+01  0.70238176544E+01  0.43016741230E+02  0.10566000000E+00 0. -1.
         22    1    1    0    0    0 -0.58598709891E+01  0.29806302956E+02 -0.62744673922E+00  0.30383342037E+02  0.00000000000E+00 0.  1.
</event>
<event>
 5    1  0.1245610E-004  0.9118800E+02  0.7818608E-02  0.1130116E+00
         25   -1    0    0    0    0  0.00000000000E+00  0.00000000000E+00  0.99999998245E-14  0.12500000000E+03  0.12500000000E+03 0.  0.
        -13    1    3    3    0    0  0.36472688693E+01  0.38380171016E+02 -0.11884266247E+02  0.40343364333E+02  0.10566000000E+00 0. -1.
         23    2    1    0    0    0 -0.30319765877E+00 -0.19805216462E+02  0.10220019369E+02  0.10271127362E+03  0.10026374421E+03 0.  0.
         13    1    3    3    0    0 -0.39504665281E+01 -0.58185387478E+02  0.22104285616E+02  0.62367909283E+02  0.10566000000E+00 0.  1.
         22    1    1    0    0    0  0.30319765877E+00  0.19805216462E+02 -0.10220019369E+02  0.22288726384E+02  0.00000000000E+00 0.  1.
</event>
<event>
 5    1  0.1245610E-004  0.9118800E+02  0.7818608E-02  0.1130116E+00
         25   -1    0    0    0    0  0.00000000000E+00  0.00000000000E+00  0.99999998245E-14  0.12500000000E+03  0.12500000000E+03 0.  0.
        -13    1    3    3    0    0 -0.28152778096E+02  0.32801582654E+02 -0.27223249886E+02  0.51084628192E+02  0.10566000000E+00 0.  1.
         23    2    1    0    0    0  0.40723912425E+01  0.35588607798E+02 -0.96210070932E+01  0.87909608348E+02  0.79701957861E+02 0.  0.
         13    1    3    3    0    0  0.32225169338E+02  0.27870251437E+01  0.17602242793E+02  0.36824980155E+02  0.10566000000E+00 0. -1.
         22    1    1    0    0    0 -0.40723912425E+01 -0.35588607798E+02  0.96210070932E+01  0.37090391652E+02  0.00000000000E+00 0.  1.
</event>
<event>
 5    1  0.1245610E-004  0.9118800E+02  0.7818608E-02  0.1130116E+00
         25   -1    0    0    0    0  0.00000000000E+00  0.00000000000E+00  0.99999998245E-14  0.12500000000E+03  0.12500000000E+03 0.  0.
        -13    1    3    3    0    0 -0.53203730511E+02  0.12644924680E+02  0.24235518464E+02  0.59815571382E+02  0.10566000000E+00 0.  1.
         23    2    1    0    0    0 -0.18018655189E+02 -0.79144238728E+01  0.63347731253E+01  0.10432539261E+03  0.10225628662E+03 0.  0.
         13    1    3    3    0    0  0.35185075323E+02 -0.20559348552E+02 -0.17900745338E+02  0.44509821232E+02  0.10566000000E+00 0. -1.
         22    1    1    0    0    0  0.18018655189E+02  0.79144238728E+01 -0.63347731253E+01  0.20674607387E+02  0.00000000000E+00 0.  1.
</event>
<event>
 5    1  0.1245610E-004  0.9118800E+02  0.7818608E-02  0.1130116E+00
         25   -1    0    0    0    0  0.00000000000E+00  0.00000000000E+00  0.99999998245E-14  0.12500000000E+03  0.12500000000E+03 0.  0.
        -13    1    3    3    0    0 -0.31013149685E+02 -0.15501917005E+02  0.32879382730E+02  0.47782735972E+02  0.10566000000E+00 0. -1.
         23    2    1    0    0    0 -0.42608588783E+00  0.78272222157E+01  0.37646980952E+02  0.86545583718E+02  0.77533192437E+02 0.  0.
         13    1    3    3    0    0  0.30587063797E+02  0.23329139221E+02  0.47675982223E+01  0.38762847746E+02  0.10566000000E+00 0.  1.
         22    1    1    0    0    0  0.42608588783E+00 -0.78272222157E+01 -0.37646980952E+02  0.38454416282E+02  0.00000000000E+00 0. -1.
</event>
<event>
 5    1  0.1245610E-004  0.9118800E+02  0.7818608E-02  0.1130116E+00
         25   -1    0    0    0    0  0.00000000000E+00  0.00000000000E+00  0.99999998245E-14  0.12500000000E+03  0.12500000000E+03 0.  0.
        -13    1    3    3    0    0 -0.43880001038E+02  0.33387271669E+02 -0.12630983861E+02  0.56566043860E+02  0.10566000000E+00 0.  1.
         23    2    1    0    0    0 -0.75439945932E+01  0.21185252040E+02 -0.19169688119E+02  0.95449979679E+02  0.90760646316E+02 0.  0.
         13    1    3    3    0    0  0.36336006445E+02 -0.12202019630E+02 -0.65387042576E+01  0.38883935819E+02  0.10566000000E+00 0. -1.
         22    1    1    0    0    0  0.75439945932E+01 -0.21185252040E+02  0.19169688119E+02  0.29550020321E+02  0.00000000000E+00 0.  1.
</event>
<event>
 5    1  0.1245610E-004  0.9118800E+02  0.7818608E-02  0.1130116E+00
         25   -1    0    0    0    0  0.00000000000E+00  0.00000000000E+00  0.99999998245E-14  0.12500000000E+03  0.12500000000E+03 0.  0.
        -13    1    3    3    0    0  0.32164686515E+02  0.16733879342E+02 -0.45687063909E+00  0.36260304345E+02  0.10566000000E+00 0.  1.
         23    2    1    0    0    0 -0.15067427715E+02 -0.21515569059E+02 -0.80907000575E+01  0.97515340328E+02  0.93561931799E+02 0.  0.
         13    1    3    3    0    0 -0.47232114230E+02 -0.38249448401E+02 -0.76338294185E+01  0.61255035982E+02  0.10566000000E+00 0. -1.
         22    1    1    0    0    0  0.15067427715E+02  0.21515569059E+02  0.80907000575E+01  0.27484659672E+02  0.00000000000E+00 0. -1.
</event>
<event>
 5    1  0.1245610E-004  0.9118800E+02  0.7818608E-02  0.1130116E+00
         25   -1    0    0    0    0  0.00000000000E+00  0.00000000000E+00  0.99999998245E-14  0.12500000000E+03  0.12500000000E+03 0.  0.
        -13    1    3    3    0    0  0.78108845076E+01  0.57222037896E+02  0.87001987495E+01  0.58404419012E+02  0.10566000000E+00 0.  1.
         23    2    1    0    0    0 -0.11153326849E+02  0.33914361418E+02  0.77471990418E+01  0.88467826465E+02  0.80572679093E+02 0.  0.
         13    1    3    3    0    0 -0.18964211357E+02 -0.23307676478E+02 -0.95299970768E+00  0.30063407453E+02  0.10566000000E+00 0. -1.
         22    1    1    0    0    0  0.11153326849E+02 -0.33914361418E+02 -0.77471990418E+01  0.36532173535E+02  0.00000000000E+00 0.  1.
</event>
<event>
 5    1  0.1245610E-004  0.9118800E+02  0.7818608E-02  0.1130116E+00
         25   -1    0    0    0    0  0.00000000000E+00  0.00000000000E+00  0.99999998245E-14  0.12500000000E+03  0.12500000000E+03 0.  0.
        -13    1    3    3    0    0 -0.35110141138E+02  0.31268871490E+02  0.15284193572E+02  0.49437658441E+02  0.10566000000E+00 0. -1.
         23    2    1    0    0    0  0.22407732400E+00  0.26012700400E+02 -0.13844834411E+02  0.95531538340E+02  0.90872903470E+02 0.  0.
         13    1    3    3    0    0  0.35334218462E+02 -0.52561710896E+01 -0.29129027983E+02  0.46093879899E+02  0.10566000000E+00 0.  1.
         22    1    1    0    0    0 -0.22407732400E+00 -0.26012700400E+02  0.13844834411E+02  0.29468461660E+02  0.00000000000E+00 0. -1.
</event>
<event>
 5    1  0.1245610E-004  0.9118800E+02  0.7818608E-02  0.1130116E+00
         25   -1    0    0    0    0  0.00000000000E+00  0.00000000000E+00  0.99999998245E-14  0.12500000000E+03  0.12500000000E+03 0.  0.
        -13    1    3    3    0    0 -0.78596753328E+01  0.82423680169E+01 -0.51489634098E+02  0.52734284014E+02  0.10566000000E+00 0.  1.
         23    2    1    0    0    0 -0.21299229286E+02  0.15869452108E+02 -0.10679513388E+02  0.96372239267E+02  0.92022061577E+02 0.  0.
         13    1    3    3    0    0 -0.13439553953E+02  0.76270840907E+01  0.40810120711E+02  0.43637955253E+02  0.10566000000E+00 0. -1.
         22    1    1    0    0    0  0.21299229286E+02 -0.15869452108E+02  0.10679513388E+02  0.28627760733E+02  0.00000000000E+00 0. -1.
</event>
<event>
 5    1  0.1245610E-004  0.9118800E+02  0.7818608E-02  0.1130116E+00
         25   -1    0    0    0    0  0.00000000000E+00  0.00000000000E+00  0.99999998245E-14  0.12500000000E+03  0.12500000000E+03 0.  0.
        -13    1    3    3    0    0  0.40966671019E+02  0.18052816575E+02 -0.12247312059E+02  0.46413146170E+02  0.10566000000E+00 0.  1.
         23    2    1    0    0    0 -0.69971557890E+01  0.26225152909E+02  0.36804342470E+01  0.97609044732E+02  0.93687038501E+02 0.  0.
         13    1    3    3    0    0 -0.47963826808E+02  0.81723363338E+01  0.15927746306E+02  0.51195898562E+02  0.10566000000E+00 0. -1.
         22    1    1    0    0    0  0.69971557890E+01 -0.26225152909E+02 -0.36804342470E+01  0.27390955268E+02  0.00000000000E+00 0. -1.
</event>
<event>
 5    1  0.1245610E-004  0.9118800E+02  0.7818608E-02  0.1130116E+00
         25   -1    0    0    0    0  0.00000000000E+00  0.00000000000E+00  0.99999998245E-14  0.12500000000E+03  0.12500000000E+03 0.  0.
        -13    1    3    3    0    0  0.25997069852E+02 -0.40434152670E+02  0.34722082692E+02  0.59299262504E+02  0.10566000000E+00 0.  1.
         23    2    1    0    0    0  0.30148507079E+01 -0.14435991829E+02  0.26047826565E+02  0.95067134223E+02  0.90231832275E+02 0.  0.
         13    1    3    3    0    0 -0.22982219144E+02  0.25998160841E+02 -0.86742561274E+01  0.35767871719E+02  0.10566000000E+00 0. -1.
         22    1    1    0    0    0 -0.30148507079E+01  0.14435991829E+02 -0.26047826565E+02  0.29932865777E+02  0.00000000000E+00 0.  1.
</event>
<event>
 5    1  0.1245610E-004  0.9118800E+02  0.7818608E-02  0.1130116E+00
         25   -1    0    0    0    0  0.00000000000E+00  0.00000000000E+00  0.99999998245E-14  0.12500000000E+03  0.12500000000E+03 0.  0.
        -13    1    3    3    0    0  0.51366762207E+02  0.22445480314E+02  0.16052886989E+02  0.58309949330E+02  0.10566000000E+00 0.  1.
         23    2    1    0    0    0  0.21795145594E+02  0.45394123417E+01  0.22355190917E+02  0.93450210828E+02  0.87963360025E+02 0.  0.
         13    1    3    3    0    0 -0.29571616612E+02 -0.17906067972E+02  0.63023039276E+01  0.35140261498E+02  0.10566000000E+00 0. -1.
         22    1    1    0    0    0 -0.21795145594E+02 -0.45394123417E+01 -0.22355190917E+02  0.31549789172E+02  0.00000000000E+00 0.  1.
</event>
<event>
 5    1  0.1245610E-004  0.9118800E+02  0.7818608E-02  0.1130116E+00
         25   -1    0    0    0    0  0.00000000000E+00  0.00000000000E+00  0.99999998245E-14  0.12500000000E+03  0.12500000000E+03 0.  0.
        -13    1    3    3    0    0 -0.56046958445E+02  0.16587597306E+02 -0.32058896169E+01  0.58538011817E+02  0.10566000000E+00 0.  1.
         23    2    1    0    0    0 -0.22271707392E+02  0.15820730369E+02  0.11468459458E+02  0.95371466086E+02  0.90652449065E+02 0.  0.
         13    1    3    3    0    0  0.33775251052E+02 -0.76686693748E+00  0.14674349075E+02  0.36833454268E+02  0.10566000000E+00 0. -1.
         22    1    1    0    0    0  0.22271707392E+02 -0.15820730369E+02 -0.11468459458E+02  0.29628533914E+02  0.00000000000E+00 0.  1.
</event>
<event>
 5    1  0.1245610E-004  0.9118800E+02  0.7818608E-02  0.1130116E+00
         25   -1    0    0    0    0  0.00000000000E+00  0.00000000000E+00  0.99999998245E-14  0.12500000000E+03  0.12500000000E+03 0.  0.
        -13    1    3    3    0    0 -0.24016688393E+02 -0.26756577706E+01  0.20952764703E+02  0.31984214523E+02  0.10566000000E+00 0.  1.
         23    2    1    0    0    0  0.11766190838E+02  0.20530838118E+02 -0.22125872099E+02  0.92603815398E+02  0.86752255587E+02 0.  0.
         13    1    3    3    0    0  0.35782879231E+02  0.23206495888E+02 -0.43078636802E+02  0.60619600875E+02  0.10566000000E+00 0. -1.
         22    1    1    0    0    0 -0.11766190838E+02 -0.20530838118E+02  0.22125872099E+02  0.32396184602E+02  0.00000000000E+00 0. -1.
</event>
<event>
 5    1  0.1245610E-004  0.9118800E+02  0.7818608E-02  0.1130116E+00
         25   -1    0    0    0    0  0.00000000000E+00  0.00000000000E+00  0.99999998245E-14  0.12500000000E+03  0.12500000000E+03 0.  0.
        -13    1    3    3    0    0  0.44015560467E+02  0.25808590435E+02 -0.35275140311E+02  0.62030634298E+02  0.10566000000E+00 0. -1.
         23    2    1    0    0    0  0.16425525042E+02  0.15136848521E+02 -0.18202388962E+02  0.96185957938E+02  0.91768673764E+02 0.  0.
         13    1    3    3    0    0 -0.27590035425E+02 -0.10671741914E+02  0.17072751349E+02  0.34155323639E+02  0.10566000000E+00 0.  1.
         22    1    1    0    0    0 -0.16425525042E+02 -0.15136848521E+02  0.18202388962E+02  0.28814042062E+02  0.00000000000E+00 0. -1.
</event>
<event>
 5    1  0.1245610E-004  0.9118800E+02  0.7818608E-02  0.1130116E+00
         25   -1    0    0    0    0  0.00000000000E+00  0.00000000000E+00  0.99999998245E-14  0.12500000000E+03  0.12500000000E+03 0.  0.
        -13    1    3    3    0    0 -0.48389062321E+02 -0.13860181050E+02 -0.18541197267E+02  0.53641337895E+02  0.10566000000E+00 0. -1.
         23    2    1    0    0    0 -0.23236786223E+02  0.15016021601E+02  0.22968328755E+01  0.97238433403E+02  0.93191246105E+02 0.  0.
         13    1    3    3    0    0  0.25152276098E+02  0.28876202650E+02  0.20838030143E+02  0.43597095507E+02  0.10566000000E+00 0.  1.
         22    1    1    0    0    0  0.23236786223E+02 -0.15016021601E+02 -0.22968328755E+01  0.27761566597E+02  0.00000000000E+00 0. -1.
</event>
<event>
 5    1  0.1245610E-004  0.9118800E+02  0.7818608E-02  0.1130116E+00
         25   -1    0    0    0    0  0.00000000000E+00  0.00000000000E+00  0.99999998245E-14  0.12500000000E+03  0.12500000000E+03 0.  0.
        -13    1    3    3    0    0  0.13466665540E+02  0.27538561602E+02 -0.11847503316E+02  0.32864843751E+02  0.10566000000E+00 0.  1.
         23    2    1    0    0    0 -0.43290206796E+00 -0.24288113296E+02  0.18459103616E+02  0.94490356312E+02  0.89429240621E+02 0.  0.
         13    1    3    3    0    0 -0.13899567608E+02 -0.51826674898E+02  0.30306606932E+02  0.61625512561E+02  0.10566000000E+00 0. -1.
         22    1    1    0    0    0  0.43290206796E+00  0.24288113296E+02 -0.18459103616E+02  0.30509643688E+02  0.00000000000E+00 0. -1.
</event>
<event>
 5    1  0.1245610E-004  0.9118800E+02  0.7818608E-02  0.1130116E+00
         25   -1    0    0    0    0  0.00000000000E+00  0.00000000000E+00  0.99999998245E-14  0.12500000000E+03  0.12500000000E+03 0.  0.
        -13    1    3    3    0    0 -0.38451565392E+02 -0.27837805753E+02 -0.38186143126E+01  0.47624146077E+02  0.10566000000E+00 0.  1.
         23    2    1    0    0    0  0.39475863156E+01 -0.15877763568E+02 -0.23897761572E+02  0.96038131590E+02  0.91567095059E+02 0.  0.
         13    1    3    3    0    0  0.42399151708E+02  0.11960042185E+02 -0.20079147259E+02  0.48413985513E+02  0.10566000000E+00 0. -1.
         22    1    1    0    0    0 -0.39475863156E+01  0.15877763568E+02  0.23897761572E+02  0.28961868410E+02  0.00000000000E+00 0. -1.
</event>
<event>
 5    1  0.1245610E-004  0.9118800E+02  0.7818608E-02  0.1130116E+00
         25   -1    0    0    0    0  0.00000000000E+00  0.00000000000E+00  0.99999998245E-14  0.12500000000E+03  0.12500000000E+03 0.  0.
        -13    1    3    3    0    0  0.31754210376E+02  0.20803505100E+02 -0.16908336235E+02  0.41557414493E+02  0.10566000000E+00 0. -1.
         23    2    1    0    0    0  0.20278832267E+02 -0.46429664995E+01 -0.41383176348E+02  0.78682017955E+02  0.63604280428E+02 0.  0.
         13    1    3    3    0    0 -0.11475378109E+02 -0.25446471599E+02 -0.24474840114E+02  0.37124603462E+02  0.10566000000E+00 0.  1.
         22    1    1    0    0    0 -0.20278832267E+02  0.46429664995E+01  0.41383176348E+02  0.46317982045E+02  0.00000000000E+00 0. -1.
</event>
<event>
 5    1  0.1245610E-004  0.9118800E+02  0.7818608E-02  0.1130116E+00
         25   -1    0    0    0    0  0.00000000000E+00  0.00000000000E+00  0.99999998245E-14  0.12500000000E+03  0.12500000000E+03 0.  0.
        -13    1    3    3    0    0 -0.86336056096E+01  0.27515223057E+02 -0.29676222565E+02  0.41380140109E+02  0.10566000000E+00 0. -1.
         23    2    1    0    0    0 -0.23179904501E+02 -0.17574176553E+02 -0.29869809495E+01  0.95758219798E+02  0.91184181466E+02 0.  0.
         13    1    3    3    0    0 -0.14546298891E+02 -0.45089399610E+02  0.26689241616E+02  0.54378079689E+02  0.10566000000E+00 0.  1.
         22    1    1    0    0    0  0.23179904501E+02  0.17574176553E+02  0.29869809495E+01  0.29241780202E+02  0.00000000000E+00 0.  1.
</event>
<event>
 5    1  0.1245610E-004  0.9118800E+02  0.7818608E-02  0.1130116E+00
         25   -1    0    0    0    0  0.00000000000E+00  0.00000000000E+00  0.99999998245E-14  0.12500000000E+03  0.12500000000E+03 0.  0.
        -13    1    3    3    0    0 -0.20246014737E+02  0.33120937804E+02 -0.45007941689E+02  0.59435878162E+02  0.10566000000E+00 0.  1.
         23    2    1    0    0    0 -0.14096982728E+02  0.23611543973E+02 -0.10824056894E+02  0.95446825239E+02  0.90756301763E+02 0.  0.
         13    1    3    3    0    0  0.61490320095E+01 -0.95093938312E+01  0.34183884795E+02  0.36010947077E+02  0.10566000000E+00 0. -1.
         22    1    1    0    0    0  0.14096982728E+02 -0.23611543973E+02  0.10824056894E+02  0.29553174761E+02  0.00000000000E+00 0.  1.
</event>
<event>
 5    1  0.1245610E-004  0.9118800E+02  0.7818608E-02  0.1130116E+00
         25   -1    0    0    0    0  0.00000000000E+00  0.00000000000E+00  0.99999998245E-14  0.12500000000E+03  0.12500000000E+03 0.  0.
        -13    1    3    3    0    0  0.26885524654E+01  0.19431540895E+02 -0.30459877342E+02  0.36230213740E+02  0.10566000000E+00 0.  1.
         23    2    1    0    0    0 -0.93173282239E+01  0.52935354782E+01  0.26649765008E+02  0.96276419129E+02  0.91891810202E+02 0.  0.
         13    1    3    3    0    0 -0.12005880689E+02 -0.14138005416E+02  0.57109642350E+02  0.60046205389E+02  0.10566000000E+00 0. -1.
         22    1    1    0    0    0  0.93173282239E+01 -0.52935354782E+01 -0.26649765008E+02  0.28723580871E+02  0.00000000000E+00 0. -1.
</event>
<event>
 5    1  0.1245610E-004  0.9118800E+02  0.7818608E-02  0.1130116E+00
         25   -1    0    0    0    0  0.00000000000E+00  0.00000000000E+00  0.99999998245E-14  0.12500000000E+03  0.12500000000E+03 0.  0.
        -13    1    3    3    0    0  0.47445018339E+02 -0.23328894317E+02  0.23735447015E+02  0.57953858235E+02  0.10566000000E+00 0.  1.
         23    2    1    0    0    0  0.17432298267E+02 -0.19911847234E+01  0.24594093920E+02  0.94788755484E+02  0.89845360876E+02 0.  0.
         13    1    3    3    0    0 -0.30012720071E+02  0.21337709594E+02  0.85864690477E+00  0.36834897249E+02  0.10566000000E+00 0. -1.
         22    1    1    0    0    0 -0.17432298267E+02  0.19911847234E+01 -0.24594093920E+02  0.30211244516E+02  0.00000000000E+00 0.  1.
</event>
<event>
 5    1  0.1245610E-004  0.9118800E+02  0.7818608E-02  0.1130116E+00
         25   -1    0    0    0    0  0.00000000000E+00  0.00000000000E+00  0.99999998245E-14  0.12500000000E+03  0.12500000000E+03 0.  0.
        -13    1    3    3    0    0  0.10891555777E+02  0.32357867731E+02  0.40874650524E+02  0.53257917823E+02  0.10566000000E+00 0. -1.
         23    2    1    0    0    0  0.28186209173E+02  0.85170739175E+01  0.18803677187E+02  0.90063182580E+02  0.83010816434E+02 0.  0.
         13    1    3    3    0    0  0.17294653396E+02 -0.23840793813E+02 -0.22070973337E+02  0.36805264757E+02  0.10566000000E+00 0.  1.
         22    1    1    0    0    0 -0.28186209173E+02 -0.85170739175E+01 -0.18803677187E+02  0.34936817420E+02  0.00000000000E+00 0. -1.
</event>
<event>
 5    1  0.1245610E-004  0.9118800E+02  0.7818608E-02  0.1130116E+00
         25   -1    0    0    0    0  0.00000000000E+00  0.00000000000E+00  0.99999998245E-14  0.12500000000E+03  0.12500000000E+03 0.  0.
        -13    1    3    3    0    0  0.35682622962E+02  0.10211587423E+02 -0.34764289451E+02  0.50853643765E+02  0.10566000000E+00 0. -1.
         23    2    1    0    0    0  0.22217896569E+02 -0.19404536333E+02 -0.47424337748E+01  0.95122556395E+02  0.90308577105E+02 0.  0.
         13    1    3    3    0    0 -0.13464726393E+02 -0.29616123756E+02  0.30021855676E+02  0.44268912630E+02  0.10566000000E+00 0.  1.
         22    1    1    0    0    0 -0.22217896569E+02  0.19404536333E+02  0.47424337748E+01  0.29877443605E+02  0.00000000000E+00 0. -1.
</event>
<event>
 5    1  0.1245610E-004  0.9118800E+02  0.7818608E-02  0.1130116E+00
         25   -1    0    0    0    0  0.00000000000E+00  0.00000000000E+00  0.99999998245E-14  0.12500000000E+03  0.12500000000E+03 0.  0.
        -13    1    3    3    0    0 -0.41371554821E+02 -0.25826951447E+02 -0.16217319091E+01  0.48798341650E+02  0.10566000000E+00 0. -1.
         23    2    1    0    0    0 -0.16491962666E+02 -0.18121882561E+01 -0.28111409146E+02  0.92357693356E+02  0.86396894268E+02 0.  0.
         13    1    3    3    0    0  0.24879592155E+02  0.24014763191E+02 -0.26489677237E+02  0.43559351706E+02  0.10566000000E+00 0.  1.
         22    1    1    0    0    0  0.16491962666E+02  0.18121882561E+01  0.28111409146E+02  0.32642306644E+02  0.00000000000E+00 0.  1.
</event>
<event>
 5    1  0.1245610E-004  0.9118800E+02  0.7818608E-02  0.1130116E+00
         25   -1    0    0    0    0  0.00000000000E+00  0.00000000000E+00  0.99999998245E-14  0.12500000000E+03  0.12500000000E+03 0.  0.
        -13    1    3    3    0    0 -0.14423927847E+02 -0.31334112702E+02 -0.12935994048E+02  0.36840567577E+02  0.10566000000E+00 0. -1.
         23    2    1    0    0    0  0.15818901353E+02  0.69566723376E+01  0.22125993487E+02  0.96925233432E+02  0.92770191107E+02 0.  0.
         13    1    3    3    0    0  0.30242829200E+02  0.38290785040E+02  0.35061987535E+02  0.60084665855E+02  0.10566000000E+00 0.  1.
         22    1    1    0    0    0 -0.15818901353E+02 -0.69566723376E+01 -0.22125993487E+02  0.28074766568E+02  0.00000000000E+00 0.  1.
</event>
<event>
 5    1  0.1245610E-004  0.9118800E+02  0.7818608E-02  0.1130116E+00
         25   -1    0    0    0    0  0.00000000000E+00  0.00000000000E+00  0.99999998245E-14  0.12500000000E+03  0.12500000000E+03 0.  0.
        -13    1    3    3    0    0  0.13747503949E+02 -0.28198878509E+01  0.36453951736E+02  0.39062096635E+02  0.10566000000E+00 0.  1.
         23    2    1    0    0    0  0.18407197989E+02  0.12783601990E+02 -0.18224718168E+02  0.96114263555E+02  0.91670965354E+02 0.  0.
         13    1    3    3    0    0  0.46596940405E+01  0.15603489841E+02 -0.54678669904E+02  0.57052166920E+02  0.10566000000E+00 0. -1.
         22    1    1    0    0    0 -0.18407197989E+02 -0.12783601990E+02  0.18224718168E+02  0.28885736445E+02  0.00000000000E+00 0. -1.
</event>
<event>
 5    1  0.1245610E-004  0.9118800E+02  0.7818608E-02  0.1130116E+00
         25   -1    0    0    0    0  0.00000000000E+00  0.00000000000E+00  0.99999998245E-14  0.12500000000E+03  0.12500000000E+03 0.  0.
        -13    1    3    3    0    0 -0.34343794821E+01  0.14661393151E+01  0.22230175619E+02  0.22541881000E+02  0.10566000000E+00 0.  1.
         23    2    1    0    0    0  0.23769889414E+02 -0.19848752648E+02 -0.27824481330E+02  0.83368492873E+02  0.72229656085E+02 0.  0.
         13    1    3    3    0    0  0.27204268896E+02 -0.21314891963E+02 -0.50054656949E+02  0.60826611873E+02  0.10566000000E+00 0. -1.
         22    1    1    0    0    0 -0.23769889414E+02  0.19848752648E+02  0.27824481330E+02  0.41631507127E+02  0.00000000000E+00 0. -1.
</event>
<event>
 5    1  0.1245610E-004  0.9118800E+02  0.7818608E-02  0.1130116E+00
         25   -1    0    0    0    0  0.00000000000E+00  0.00000000000E+00  0.99999998245E-14  0.12500000000E+03  0.12500000000E+03 0.  0.
        -13    1    3    3    0    0  0.28333167348E+02  0.50205072088E+02 -0.22092995457E+00  0.57648743347E+02  0.10566000000E+00 0.  1.
         23    2    1    0    0    0  0.99878311961E+01  0.21629802913E+02 -0.17201046250E+02  0.95614950432E+02  0.90987568425E+02 0.  0.
         13    1    3    3    0    0 -0.18345336152E+02 -0.28575269175E+02 -0.16980116295E+02  0.37966207085E+02  0.10566000000E+00 0. -1.
         22    1    1    0    0    0 -0.99878311961E+01 -0.21629802913E+02  0.17201046250E+02  0.29385049568E+02  0.00000000000E+00 0.  1.
</event>
<event>
 5    1  0.1245610E-004  0.9118800E+02  0.7818608E-02  0.1130116E+00
         25   -1    0    0    0    0  0.00000000000E+00  0.00000000000E+00  0.99999998245E-14  0.12500000000E+03  0.12500000000E+03 0.  0.
        -13    1    3    3    0    0 -0.49240544002E+02 -0.12465475534E+02  0.33393392938E+02  0.60787738154E+02  0.10566000000E+00 0.  1.
         23    2    1    0    0    0 -0.28813501216E+02 -0.34246678437E+00  0.90581995503E+01  0.94794270164E+02  0.89853033010E+02 0.  0.
         13    1    3    3    0    0  0.20427042786E+02  0.12123008749E+02 -0.24335193388E+02  0.34006532011E+02  0.10566000000E+00 0. -1.
         22    1    1    0    0    0  0.28813501216E+02  0.34246678437E+00 -0.90581995503E+01  0.30205729836E+02  0.00000000000E+00 0.  1.
</event>
<event>
 5    1  0.1245610E-004  0.9118800E+02  0.7818608E-02  0.1130116E+00
         25   -1    0    0    0    0  0.00000000000E+00  0.00000000000E+00  0.99999998245E-14  0.12500000000E+03  0.12500000000E+03 0.  0.
        -13    1    3    3    0    0  0.56654649275E+02 -0.21027086551E+02  0.53119448625E+01  0.60663956148E+02  0.10566000000E+00 0.  1.
         23    2    1    0    0    0  0.21514467748E+02 -0.19203579533E+02  0.40926905872E+01  0.95872694845E+02  0.91340974985E+02 0.  0.
         13    1    3    3    0    0 -0.35140181527E+02  0.18235070179E+01 -0.12192542754E+01  0.35208738697E+02  0.10566000000E+00 0. -1.
         22    1    1    0    0    0 -0.21514467748E+02  0.19203579533E+02 -0.40926905872E+01  0.29127305155E+02  0.00000000000E+00 0.  1.
</event>
<event>
 5    1  0.1245610E-004  0.9118800E+02  0.7818608E-02  0.1130116E+00
         25   -1    0    0    0    0  0.00000000000E+00  0.00000000000E+00  0.99999998245E-14  0.12500000000E+03  0.12500000000E+03 0.  0.
        -13    1    3    3    0    0 -0.42244964196E+02  0.94454661712E+01  0.24684982096E+02  0.49831850620E+02  0.10566000000E+00 0. -1.
         23    2    1    0    0    0 -0.16888919642E+02  0.24953641451E+02 -0.78125123482E+01  0.93871955128E+02  0.88560650303E+02 0.  0.
         13    1    3    3    0    0  0.25356044553E+02  0.15508175280E+02 -0.32497494444E+02  0.44040104508E+02  0.10566000000E+00 0.  1.
         22    1    1    0    0    0  0.16888919642E+02 -0.24953641451E+02  0.78125123482E+01  0.31128044872E+02  0.00000000000E+00 0.  1.
</event>
<event>
 5    1  0.1245610E-004  0.9118800E+02  0.7818608E-02  0.1130116E+00
         25   -1    0    0    0    0  0.00000000000E+00  0.00000000000E+00  0.99999998245E-14  0.12500000000E+03  0.12500000000E+03 0.  0.
        -13    1    3    3    0    0  0.31942309341E+02 -0.29673719244E+02  0.11596130838E+02  0.45114544820E+02  0.10566000000E+00 0.  1.
         23    2    1    0    0    0  0.17803626878E+02 -0.25195384130E+01 -0.25867930482E+02  0.93496555248E+02  0.88029192953E+02 0.  0.
         13    1    3    3    0    0 -0.14138682463E+02  0.27154180831E+02 -0.37464061320E+02  0.48382010428E+02  0.10566000000E+00 0. -1.
         22    1    1    0    0    0 -0.17803626878E+02  0.25195384130E+01  0.25867930482E+02  0.31503444752E+02  0.00000000000E+00 0. -1.
</event>
<event>
 5    1  0.1245610E-004  0.9118800E+02  0.7818608E-02  0.1130116E+00
         25   -1    0    0    0    0  0.00000000000E+00  0.00000000000E+00  0.99999998245E-14  0.12500000000E+03  0.12500000000E+03 0.  0.
        -13    1    3    3    0    0 -0.35047831542E+02 -0.98056275424E+01 -0.21731766256E+02  0.42388461353E+02  0.10566000000E+00 0. -1.
         23    2    1    0    0    0  0.17055538300E+02  0.57510318679E+01 -0.21754601710E+02  0.96764765810E+02  0.92553721981E+02 0.  0.
         13    1    3    3    0    0  0.52103369841E+02  0.15556659410E+02 -0.22835453575E-01  0.54376304456E+02  0.10566000000E+00 0.  1.
         22    1    1    0    0    0 -0.17055538300E+02 -0.57510318679E+01  0.21754601710E+02  0.28235234190E+02  0.00000000000E+00 0.  1.
</event>
<event>
 5    1  0.1245610E-004  0.9118800E+02  0.7818608E-02  0.1130116E+00
         25   -1    0    0    0    0  0.00000000000E+00  0.00000000000E+00  0.99999998245E-14  0.12500000000E+03  0.12500000000E+03 0.  0.
        -13    1    3    3    0    0  0.32318604619E+00  0.37503262745E+02  0.20045822392E+02  0.42525819512E+02  0.10566000000E+00 0. -1.
         23    2    1    0    0    0 -0.23908287412E+02  0.47497693359E+01 -0.15094522161E+02  0.96329263787E+02  0.91963666449E+02 0.  0.
         13    1    3    3    0    0 -0.24231473458E+02 -0.32753493409E+02 -0.35140344553E+02  0.53803444275E+02  0.10566000000E+00 0.  1.
         22    1    1    0    0    0  0.23908287412E+02 -0.47497693359E+01  0.15094522161E+02  0.28670736213E+02  0.00000000000E+00 0. -1.
</event>
<event>
 5    1  0.1245610E-004  0.9118800E+02  0.7818608E-02  0.1130116E+00
         25   -1    0    0    0    0  0.00000000000E+00  0.00000000000E+00  0.99999998245E-14  0.12500000000E+03  0.12500000000E+03 0.  0.
        -13    1    3    3    0    0  0.20991839037E+02 -0.57876773815E+02 -0.78063541710E+01  0.62059073332E+02  0.10566000000E+00 0.  1.
         23    2    1    0    0    0  0.11749965384E+02 -0.25055708395E+02 -0.81241826786E+01  0.96158145796E+02  0.91730782451E+02 0.  0.
         13    1    3    3    0    0 -0.92418736530E+01  0.32821065420E+02 -0.31782850762E+00  0.34099072464E+02  0.10566000000E+00 0. -1.
         22    1    1    0    0    0 -0.11749965384E+02  0.25055708395E+02  0.81241826786E+01  0.28841854204E+02  0.00000000000E+00 0.  1.
</event>
<event>
 5    1  0.1245610E-004  0.9118800E+02  0.7818608E-02  0.1130116E+00
         25   -1    0    0    0    0  0.00000000000E+00  0.00000000000E+00  0.99999998245E-14  0.12500000000E+03  0.12500000000E+03 0.  0.
        -13    1    3    3    0    0 -0.11187773539E+02 -0.39650603019E+01 -0.58694818147E+02  0.59883059552E+02  0.10566000000E+00 0. -1.
         23    2    1    0    0    0 -0.17329786225E+02  0.19430404203E+01 -0.25833627418E+02  0.93831535132E+02  0.88503580622E+02 0.  0.
         13    1    3    3    0    0 -0.61420126863E+01  0.59081007222E+01  0.32861190729E+02  0.33948475579E+02  0.10566000000E+00 0.  1.
         22    1    1    0    0    0  0.17329786225E+02 -0.19430404203E+01  0.25833627418E+02  0.31168464868E+02  0.00000000000E+00 0. -1.
</event>
<event>
 5    1  0.1245610E-004  0.9118800E+02  0.7818608E-02  0.1130116E+00
         25   -1    0    0    0    0  0.00000000000E+00  0.00000000000E+00  0.99999998245E-14  0.12500000000E+03  0.12500000000E+03 0.  0.
        -13    1    3    3    0    0  0.23696669706E+02 -0.17174503281E+02 -0.18664093336E+02  0.34711025081E+02  0.10566000000E+00 0.  1.
         23    2    1    0    0    0 -0.17409108492E+02  0.22735578532E+02  0.35198853851E+01  0.96149121629E+02  0.91718484545E+02 0.  0.
         13    1    3    3    0    0 -0.41105778197E+02  0.39910081813E+02  0.22183978721E+02  0.61438096548E+02  0.10566000000E+00 0. -1.
         22    1    1    0    0    0  0.17409108492E+02 -0.22735578532E+02 -0.35198853851E+01  0.28850878371E+02  0.00000000000E+00 0. -1.
</event>
<event>
 5    1  0.1245610E-004  0.9118800E+02  0.7818608E-02  0.1130116E+00
         25   -1    0    0    0    0  0.00000000000E+00  0.00000000000E+00  0.99999998245E-14  0.12500000000E+03  0.12500000000E+03 0.  0.
        -13    1    3    3    0    0  0.47583027926E+02  0.72090137004E+00 -0.15104023625E+02  0.49928017576E+02  0.10566000000E+00 0. -1.
         23    2    1    0    0    0  0.11289601802E+02  0.24995181537E+02 -0.15306061929E+02  0.93591565771E+02  0.88164003101E+02 0.  0.
         13    1    3    3    0    0 -0.36293426124E+02  0.24274280167E+02 -0.20203830401E+00  0.43663548195E+02  0.10566000000E+00 0.  1.
         22    1    1    0    0    0 -0.11289601802E+02 -0.24995181537E+02  0.15306061929E+02  0.31408434229E+02  0.00000000000E+00 0. -1.
</event>
<event>
 5    1  0.1245610E-004  0.9118800E+02  0.7818608E-02  0.1130116E+00
         25   -1    0    0    0    0  0.00000000000E+00  0.00000000000E+00  0.99999998245E-14  0.12500000000E+03  0.12500000000E+03 0.  0.
        -13    1    3    3    0    0 -0.45765178787E+01 -0.52561129129E+02 -0.62213363329E+01  0.53125634123E+02  0.10566000000E+00 0. -1.
         23    2    1    0    0    0 -0.20749374165E+02 -0.10892359785E+02 -0.12788762580E+02  0.98302950008E+02  0.94608337381E+02 0.  0.
         13    1    3    3    0    0 -0.16172856286E+02  0.41668769344E+02 -0.65674262470E+01  0.45177315885E+02  0.10566000000E+00 0.  1.
         22    1    1    0    0    0  0.20749374165E+02  0.10892359785E+02  0.12788762580E+02  0.26697049992E+02  0.00000000000E+00 0. -1.
</event>
<event>
 5    1  0.1245610E-004  0.9118800E+02  0.7818608E-02  0.1130116E+00
         25   -1    0    0    0    0  0.00000000000E+00  0.00000000000E+00  0.99999998245E-14  0.12500000000E+03  0.12500000000E+03 0.  0.
        -13    1    3    3    0    0 -0.23324434365E+02  0.52780781905E+02  0.19396396350E+02  0.60877512534E+02  0.10566000000E+00 0. -1.
         23    2    1    0    0    0 -0.10087211912E+02  0.29166681403E+02  0.72563444211E-01  0.94138172224E+02  0.88935611855E+02 0.  0.
         13    1    3    3    0    0  0.13237222453E+02 -0.23614100503E+02 -0.19323832905E+02  0.33260659690E+02  0.10566000000E+00 0.  1.
         22    1    1    0    0    0  0.10087211912E+02 -0.29166681403E+02 -0.72563444211E-01  0.30861827776E+02  0.00000000000E+00 0. -1.
</event>
<event>
 5    1  0.1245610E-004  0.9118800E+02  0.7818608E-02  0.1130116E+00
         25   -1    0    0    0    0  0.00000000000E+00  0.00000000000E+00  0.99999998245E-14  0.12500000000E+03  0.12500000000E+03 0.  0.
        -13    1    3    3    0    0 -0.18506592984E+02  0.11925218682E+02 -0.54350762390E+02  0.58640611874E+02  0.10566000000E+00 0.  1.
         23    2    1    0    0    0  0.47108876506E+01 -0.13292715795E+01 -0.29353245721E+02  0.95241430482E+02  0.90472966241E+02 0.  0.
         13    1    3    3    0    0  0.23217480635E+02 -0.13254490262E+02  0.24997516669E+02  0.36600818608E+02  0.10566000000E+00 0. -1.
         22    1    1    0    0    0 -0.47108876506E+01  0.13292715795E+01  0.29353245721E+02  0.29758569518E+02  0.00000000000E+00 0.  1.
</event>
<event>
 5    1  0.1245610E-004  0.9118800E+02  0.7818608E-02  0.1130116E+00
         25   -1    0    0    0    0  0.00000000000E+00  0.00000000000E+00  0.99999998245E-14  0.12500000000E+03  0.12500000000E+03 0.  0.
        -13    1    3    3    0    0 -0.31621132735E+02 -0.18132337626E+02 -0.48363949059E+02  0.60562037910E+02  0.10566000000E+00 0.  1.
         23    2    1    0    0    0 -0.11061389187E+02  0.12630234756E+00 -0.28340167443E+02  0.94577387132E+02  0.89550805597E+02 0.  0.
         13    1    3    3    0    0  0.20559743548E+02  0.18258639973E+02  0.20023781616E+02  0.34015349222E+02  0.10566000000E+00 0. -1.
         22    1    1    0    0    0  0.11061389187E+02 -0.12630234756E+00  0.28340167443E+02  0.30422612868E+02  0.00000000000E+00 0.  1.
</event>
<event>
 5    1  0.1245610E-004  0.9118800E+02  0.7818608E-02  0.1130116E+00
         25   -1    0    0    0    0  0.00000000000E+00  0.00000000000E+00  0.99999998245E-14  0.12500000000E+03  0.12500000000E+03 0.  0.
        -13    1    3    3    0    0  0.11047581319E+02  0.19227831682E+02  0.36930683583E+02  0.43077199516E+02  0.10566000000E+00 0. -1.
         23    2    1    0    0    0  0.20082882266E+02 -0.15947794293E+02 -0.53383390001E+01  0.98805493587E+02  0.95270002607E+02 0.  0.
         13    1    3    3    0    0  0.90353009472E+01 -0.35175625975E+02 -0.42269022583E+02  0.55728294071E+02  0.10566000000E+00 0.  1.
         22    1    1    0    0    0 -0.20082882266E+02  0.15947794293E+02  0.53383390001E+01  0.26194506413E+02  0.00000000000E+00 0.  1.
</event>
<event>
 5    1  0.1245610E-004  0.9118800E+02  0.7818608E-02  0.1130116E+00
         25   -1    0    0    0    0  0.00000000000E+00  0.00000000000E+00  0.99999998245E-14  0.12500000000E+03  0.12500000000E+03 0.  0.
        -13    1    3    3    0    0 -0.42644314015E+02 -0.16208759224E+02 -0.41176615484E+02  0.61455562971E+02  0.10566000000E+00 0. -1.
         23    2    1    0    0    0 -0.25131777100E+02 -0.10319198534E+02 -0.13682700183E+02  0.94581118317E+02  0.89556013640E+02 0.  0.
         13    1    3    3    0    0  0.17512536915E+02  0.58895606894E+01  0.27493915301E+02  0.33125555345E+02  0.10566000000E+00 0.  1.
         22    1    1    0    0    0  0.25131777100E+02  0.10319198534E+02  0.13682700183E+02  0.30418881683E+02  0.00000000000E+00 0. -1.
</event>
<event>
 5    1  0.1245610E-004  0.9118800E+02  0.7818608E-02  0.1130116E+00
         25   -1    0    0    0    0  0.00000000000E+00  0.00000000000E+00  0.99999998245E-14  0.12500000000E+03  0.12500000000E+03 0.  0.
        -13    1    3    3    0    0  0.34503694259E+02  0.63205817148E+00 -0.22634983867E+02  0.41270547291E+02  0.10566000000E+00 0.  1.
         23    2    1    0    0    0  0.18054257782E+01  0.28173610548E+02  0.99945186835E+01  0.95051672881E+02  0.90210410819E+02 0.  0.
         13    1    3    3    0    0 -0.32698268481E+02  0.27541552376E+02  0.32629502550E+02  0.53781125589E+02  0.10566000000E+00 0. -1.
         22    1    1    0    0    0 -0.18054257782E+01 -0.28173610548E+02 -0.99945186835E+01  0.29948327119E+02  0.00000000000E+00 0. -1.
</event>
<event>
 5    1  0.1245610E-004  0.9118800E+02  0.7818608E-02  0.1130116E+00
         25   -1    0    0    0    0  0.00000000000E+00  0.00000000000E+00  0.99999998245E-14  0.12500000000E+03  0.12500000000E+03 0.  0.
        -13    1    3    3    0    0  0.46795488622E+02  0.30088371900E+02 -0.99507633030E+01  0.56516871227E+02  0.10566000000E+00 0. -1.
         23    2    1    0    0    0  0.89793357580E+01  0.23503789998E+02 -0.15718494927E+02  0.95333053785E+02  0.90599467142E+02 0.  0.
         13    1    3    3    0    0 -0.37816152864E+02 -0.65845819013E+01 -0.57677316240E+01  0.38816182558E+02  0.10566000000E+00 0.  1.
         22    1    1    0    0    0 -0.89793357580E+01 -0.23503789998E+02  0.15718494927E+02  0.29666946215E+02  0.00000000000E+00 0. -1.
</event>
<event>
 5    1  0.1245610E-004  0.9118800E+02  0.7818608E-02  0.1130116E+00
         25   -1    0    0    0    0  0.00000000000E+00  0.00000000000E+00  0.99999998245E-14  0.12500000000E+03  0.12500000000E+03 0.  0.
        -13    1    3    3    0    0 -0.14406466655E+02  0.55387031441E+01  0.30624295595E+02  0.34294054276E+02  0.10566000000E+00 0.  1.
         23    2    1    0    0    0  0.38051874262E+00  0.22914119556E+01 -0.29049168744E+02  0.95858113170E+02  0.91321017803E+02 0.  0.
         13    1    3    3    0    0  0.14786985398E+02 -0.32472911884E+01 -0.59673464339E+02  0.61564058894E+02  0.10566000000E+00 0. -1.
         22    1    1    0    0    0 -0.38051874262E+00 -0.22914119556E+01  0.29049168744E+02  0.29141886830E+02  0.00000000000E+00 0. -1.
</event>
<event>
 5    1  0.1245610E-004  0.9118800E+02  0.7818608E-02  0.1130116E+00
         25   -1    0    0    0    0  0.00000000000E+00  0.00000000000E+00  0.99999998245E-14  0.12500000000E+03  0.12500000000E+03 0.  0.
        -13    1    3    3    0    0  0.69078734122E+01  0.43701428801E+00 -0.59627564033E+02  0.60028053884E+02  0.10566000000E+00 0.  1.
         23    2    1    0    0    0  0.81942515581E+01  0.11623774550E+02 -0.28105903184E+02  0.93500798626E+02  0.88035218274E+02 0.  0.
         13    1    3    3    0    0  0.12863781460E+01  0.11186760262E+02  0.31521660849E+02  0.33472744742E+02  0.10566000000E+00 0. -1.
         22    1    1    0    0    0 -0.81942515581E+01 -0.11623774550E+02  0.28105903184E+02  0.31499201374E+02  0.00000000000E+00 0.  1.
</event>
<event>
 5    1  0.1245610E-004  0.9118800E+02  0.7818608E-02  0.1130116E+00
         25   -1    0    0    0    0  0.00000000000E+00  0.00000000000E+00  0.99999998245E-14  0.12500000000E+03  0.12500000000E+03 0.  0.
        -13    1    3    3    0    0 -0.49940275492E+02 -0.35113909824E+01  0.14696577390E+02  0.52176254502E+02  0.10566000000E+00 0. -1.
         23    2    1    0    0    0 -0.13729086655E+02 -0.24677337108E+02  0.12329297846E+02  0.94186522876E+02  0.89003543294E+02 0.  0.
         13    1    3    3    0    0  0.36211188837E+02 -0.21165946126E+02 -0.23672795448E+01  0.42010268374E+02  0.10566000000E+00 0.  1.
         22    1    1    0    0    0  0.13729086655E+02  0.24677337108E+02 -0.12329297846E+02  0.30813477124E+02  0.00000000000E+00 0. -1.
</event>
<event>
 5    1  0.1245610E-004  0.9118800E+02  0.7818608E-02  0.1130116E+00
         25   -1    0    0    0    0  0.00000000000E+00  0.00000000000E+00  0.99999998245E-14  0.12500000000E+03  0.12500000000E+03 0.  0.
        -13    1    3    3    0    0 -0.26566693022E+02  0.30525340221E+02 -0.18130711674E+02  0.44343200646E+02  0.10566000000E+00 0.  1.
         23    2    1    0    0    0 -0.21405369632E+02 -0.18395636353E+02  0.15767285332E-01  0.96776082226E+02  0.92569004297E+02 0.  0.
         13    1    3    3    0    0  0.51613233895E+01 -0.48920976574E+02  0.18146478959E+02  0.52432881580E+02  0.10566000000E+00 0. -1.
         22    1    1    0    0    0  0.21405369632E+02  0.18395636353E+02 -0.15767285332E-01  0.28223917774E+02  0.00000000000E+00 0. -1.
</event>
<event>
 5    1  0.1245610E-004  0.9118800E+02  0.7818608E-02  0.1130116E+00
         25   -1    0    0    0    0  0.00000000000E+00  0.00000000000E+00  0.99999998245E-14  0.12500000000E+03  0.12500000000E+03 0.  0.
        -13    1    3    3    0    0 -0.23282343804E+02 -0.20290542429E+02 -0.49179801530E+02  0.58072693133E+02  0.10566000000E+00 0.  1.
         23    2    1    0    0    0 -0.82634339160E+01  0.24159966815E+01 -0.35366019628E+02  0.88601143913E+02  0.80779242249E+02 0.  0.
         13    1    3    3    0    0  0.15018909888E+02  0.22706539110E+02  0.13813781902E+02  0.30528450781E+02  0.10566000000E+00 0. -1.
         22    1    1    0    0    0  0.82634339160E+01 -0.24159966815E+01  0.35366019628E+02  0.36398856087E+02  0.00000000000E+00 0.  1.
</event>
<event>
 5    1  0.1245610E-004  0.9118800E+02  0.7818608E-02  0.1130116E+00
         25   -1    0    0    0    0  0.00000000000E+00  0.00000000000E+00  0.99999998245E-14  0.12500000000E+03  0.12500000000E+03 0.  0.
        -13    1    3    3    0    0  0.23044749912E+02 -0.45286516263E+02 -0.30514008955E+02  0.59270945330E+02  0.10566000000E+00 0. -1.
         23    2    1    0    0    0  0.10260994135E+02 -0.11115876398E+02 -0.24440019101E+02  0.96256909658E+02  0.91865267727E+02 0.  0.
         13    1    3    3    0    0 -0.12783755777E+02  0.34170639865E+02  0.60739898546E+01  0.36985964328E+02  0.10566000000E+00 0.  1.
         22    1    1    0    0    0 -0.10260994135E+02  0.11115876398E+02  0.24440019101E+02  0.28743090342E+02  0.00000000000E+00 0. -1.
</event>
<event>
 5    1  0.1245610E-004  0.9118800E+02  0.7818608E-02  0.1130116E+00
         25   -1    0    0    0    0  0.00000000000E+00  0.00000000000E+00  0.99999998245E-14  0.12500000000E+03  0.12500000000E+03 0.  0.
        -13    1    3    3    0    0 -0.14923072045E+02  0.35574949644E+02  0.14178430461E+02  0.41101267326E+02  0.10566000000E+00 0. -1.
         23    2    1    0    0    0  0.17412854977E+02  0.59056872202E+01 -0.20812730953E+02  0.97228532093E+02  0.93177964258E+02 0.  0.
         13    1    3    3    0    0  0.32335927021E+02 -0.29669262423E+02 -0.34991161414E+02  0.56127264767E+02  0.10566000000E+00 0.  1.
         22    1    1    0    0    0 -0.17412854977E+02 -0.59056872202E+01  0.20812730953E+02  0.27771467907E+02  0.00000000000E+00 0.  1.
</event>
<event>
 5    1  0.1245610E-004  0.9118800E+02  0.7818608E-02  0.1130116E+00
         25   -1    0    0    0    0  0.00000000000E+00  0.00000000000E+00  0.99999998245E-14  0.12500000000E+03  0.12500000000E+03 0.  0.
        -13    1    3    3    0    0 -0.36355763524E+02  0.47423405404E+01 -0.35623403661E+02  0.51120146593E+02  0.10566000000E+00 0.  1.
         23    2    1    0    0    0  0.74854055318E+01  0.10384730337E+02 -0.25499522487E+02  0.96467569903E+02  0.92151464860E+02 0.  0.
         13    1    3    3    0    0  0.43841169056E+02  0.56423897969E+01  0.10123881174E+02  0.45347423310E+02  0.10566000000E+00 0. -1.
         22    1    1    0    0    0 -0.74854055318E+01 -0.10384730337E+02  0.25499522487E+02  0.28532430097E+02  0.00000000000E+00 0.  1.
</event>
<event>
 5    1  0.1245610E-004  0.9118800E+02  0.7818608E-02  0.1130116E+00
         25   -1    0    0    0    0  0.00000000000E+00  0.00000000000E+00  0.99999998245E-14  0.12500000000E+03  0.12500000000E+03 0.  0.
        -13    1    3    3    0    0  0.66458220009E+01 -0.46493037622E+02 -0.54971668925E+01  0.47286356439E+02  0.10566000000E+00 0.  1.
         23    2    1    0    0    0 -0.17105072006E+02 -0.12503654865E+02  0.19917128278E+02  0.95920507705E+02  0.91406383400E+02 0.  0.
         13    1    3    3    0    0 -0.23750894006E+02  0.33989382757E+02  0.25414295170E+02  0.48634151266E+02  0.10566000000E+00 0. -1.
         22    1    1    0    0    0  0.17105072006E+02  0.12503654865E+02 -0.19917128278E+02  0.29079492295E+02  0.00000000000E+00 0.  1.
</event>
<event>
 5    1  0.1245610E-004  0.9118800E+02  0.7818608E-02  0.1130116E+00
         25   -1    0    0    0    0  0.00000000000E+00  0.00000000000E+00  0.99999998245E-14  0.12500000000E+03  0.12500000000E+03 0.  0.
        -13    1    3    3    0    0 -0.26681538050E+02  0.30126565395E+02 -0.63381305485E+01  0.40739384852E+02  0.10566000000E+00 0. -1.
         23    2    1    0    0    0  0.75171999183E+01 -0.45552077060E+01  0.24893964285E+02  0.98599854741E+02  0.94999808869E+02 0.  0.
         13    1    3    3    0    0  0.34198737968E+02 -0.34681773101E+02  0.31232094834E+02  0.57860469889E+02  0.10566000000E+00 0.  1.
         22    1    1    0    0    0 -0.75171999183E+01  0.45552077060E+01 -0.24893964285E+02  0.26400145259E+02  0.00000000000E+00 0.  1.
</event>
<event>
 5    1  0.1245610E-004  0.9118800E+02  0.7818608E-02  0.1130116E+00
         25   -1    0    0    0    0  0.00000000000E+00  0.00000000000E+00  0.99999998245E-14  0.12500000000E+03  0.12500000000E+03 0.  0.
        -13    1    3    3    0    0 -0.27597227792E+02  0.90438234635E+01 -0.55212065926E+02  0.62384141515E+02  0.10566000000E+00 0.  1.
         23    2    1    0    0    0 -0.14201672487E+02  0.20289582975E+01 -0.24751350097E+02  0.96391723142E+02  0.92048524081E+02 0.  0.
         13    1    3    3    0    0  0.13395555305E+02 -0.70148651659E+01  0.30460715830E+02  0.34007581627E+02  0.10566000000E+00 0. -1.
         22    1    1    0    0    0  0.14201672487E+02 -0.20289582975E+01  0.24751350097E+02  0.28608276858E+02  0.00000000000E+00 0.  1.
</event>
<event>
 5    1  0.1245610E-004  0.9118800E+02  0.7818608E-02  0.1130116E+00
         25   -1    0    0    0    0  0.00000000000E+00  0.00000000000E+00  0.99999998245E-14  0.12500000000E+03  0.12500000000E+03 0.  0.
        -13    1    3    3    0    0  0.34050037853E+01  0.32469586221E+02 -0.31134812706E+02  0.45113809487E+02  0.10566000000E+00 0.  1.
         23    2    1    0    0    0 -0.28383375536E+02  0.67460907059E+01 -0.11835806893E+01  0.95801941676E+02  0.91244097996E+02 0.  0.
         13    1    3    3    0    0 -0.31788379321E+02 -0.25723495515E+02  0.29951232017E+02  0.50688132189E+02  0.10566000000E+00 0. -1.
         22    1    1    0    0    0  0.28383375536E+02 -0.67460907059E+01  0.11835806893E+01  0.29198058324E+02  0.00000000000E+00 0. -1.
</event>
<event>
 5    1  0.1245610E-004  0.9118800E+02  0.7818608E-02  0.1130116E+00
         25   -1    0    0    0    0  0.00000000000E+00  0.00000000000E+00  0.99999998245E-14  0.12500000000E+03  0.12500000000E+03 0.  0.
        -13    1    3    3    0    0 -0.97822531308E+01 -0.39596189315E+02  0.39103887656E+02  0.56503768711E+02  0.10566000000E+00 0. -1.
         23    2    1    0    0    0  0.94059375861E+01 -0.75759414183E+01  0.26455703950E+02  0.95917860778E+02  0.91402763604E+02 0.  0.
         13    1    3    3    0    0  0.19188190717E+02  0.32020247897E+02 -0.12648183707E+02  0.39414092067E+02  0.10566000000E+00 0.  1.
         22    1    1    0    0    0 -0.94059375861E+01  0.75759414183E+01 -0.26455703950E+02  0.29082139222E+02  0.00000000000E+00 0. -1.
</event>
<event>
 5    1  0.1245610E-004  0.9118800E+02  0.7818608E-02  0.1130116E+00
         25   -1    0    0    0    0  0.00000000000E+00  0.00000000000E+00  0.99999998245E-14  0.12500000000E+03  0.12500000000E+03 0.  0.
        -13    1    3    3    0    0 -0.14564027071E+02  0.34903434929E+00  0.30946843690E+02  0.34204546597E+02  0.10566000000E+00 0.  1.
         23    2    1    0    0    0  0.38016959338E+01 -0.16710253752E+01 -0.28367531867E+02  0.96330118905E+02  0.91964828746E+02 0.  0.
         13    1    3    3    0    0  0.18365723004E+02 -0.20200597245E+01 -0.59314375557E+02  0.62125572308E+02  0.10566000000E+00 0. -1.
         22    1    1    0    0    0 -0.38016959338E+01  0.16710253752E+01  0.28367531867E+02  0.28669881095E+02  0.00000000000E+00 0. -1.
</event>
<event>
 5    1  0.1245610E-004  0.9118800E+02  0.7818608E-02  0.1130116E+00
         25   -1    0    0    0    0  0.00000000000E+00  0.00000000000E+00  0.99999998245E-14  0.12500000000E+03  0.12500000000E+03 0.  0.
        -13    1    3    3    0    0  0.18112190878E+01 -0.15956703632E+01 -0.36129470438E+02  0.36210170901E+02  0.10566000000E+00 0. -1.
         23    2    1    0    0    0  0.11468299028E+02  0.10841427589E+02  0.22835676001E+02  0.97241640301E+02  0.93195547507E+02 0.  0.
         13    1    3    3    0    0  0.96570799406E+01  0.12437097952E+02  0.58965146439E+02  0.61031469400E+02  0.10566000000E+00 0.  1.
         22    1    1    0    0    0 -0.11468299028E+02 -0.10841427589E+02 -0.22835676001E+02  0.27758359699E+02  0.00000000000E+00 0.  1.
</event>
<event>
 5    1  0.1245610E-004  0.9118800E+02  0.7818608E-02  0.1130116E+00
         25   -1    0    0    0    0  0.00000000000E+00  0.00000000000E+00  0.99999998245E-14  0.12500000000E+03  0.12500000000E+03 0.  0.
        -13    1    3    3    0    0 -0.15805104864E+01  0.39654315373E+02 -0.17051508020E+02  0.43194071710E+02  0.10566000000E+00 0.  1.
         23    2    1    0    0    0 -0.15537505649E+02  0.10511541109E+02  0.23426830989E+02  0.94987952611E+02  0.90122073616E+02 0.  0.
         13    1    3    3    0    0 -0.13956995163E+02 -0.29142774264E+02  0.40478339009E+02  0.51793880901E+02  0.10566000000E+00 0. -1.
         22    1    1    0    0    0  0.15537505649E+02 -0.10511541109E+02 -0.23426830989E+02  0.30012047389E+02  0.00000000000E+00 0.  1.
</event>
<event>
 5    1  0.1245610E-004  0.9118800E+02  0.7818608E-02  0.1130116E+00
         25   -1    0    0    0    0  0.00000000000E+00  0.00000000000E+00  0.99999998245E-14  0.12500000000E+03  0.12500000000E+03 0.  0.
        -13    1    3    3    0    0 -0.57345623379E+02 -0.14170909079E+02  0.29437958676E-01  0.59070696758E+02  0.10566000000E+00 0. -1.
         23    2    1    0    0    0 -0.26650165398E+02 -0.12795998505E+01 -0.13609162348E+02  0.95048739737E+02  0.90206346419E+02 0.  0.
         13    1    3    3    0    0  0.30695457980E+02  0.12891309228E+02 -0.13638600307E+02  0.35978042979E+02  0.10566000000E+00 0.  1.
         22    1    1    0    0    0  0.26650165398E+02  0.12795998505E+01  0.13609162348E+02  0.29951260263E+02  0.00000000000E+00 0. -1.
</event>
<event>
 5    1  0.1245610E-004  0.9118800E+02  0.7818608E-02  0.1130116E+00
         25   -1    0    0    0    0  0.00000000000E+00  0.00000000000E+00  0.99999998245E-14  0.12500000000E+03  0.12500000000E+03 0.  0.
        -13    1    3    3    0    0 -0.98984243063E+01 -0.74420323380E+01  0.46366496782E+02  0.47991935124E+02  0.10566000000E+00 0. -1.
         23    2    1    0    0    0  0.14059103762E+02  0.20223626743E+02  0.15238799583E+02  0.96036669909E+02  0.91565099668E+02 0.  0.
         13    1    3    3    0    0  0.23957528068E+02  0.27665659081E+02 -0.31127697200E+02  0.48044734785E+02  0.10566000000E+00 0.  1.
         22    1    1    0    0    0 -0.14059103762E+02 -0.20223626743E+02 -0.15238799583E+02  0.28963330091E+02  0.00000000000E+00 0. -1.
</event>
<event>
 5    1  0.1245610E-004  0.9118800E+02  0.7818608E-02  0.1130116E+00
         25   -1    0    0    0    0  0.00000000000E+00  0.00000000000E+00  0.99999998245E-14  0.12500000000E+03  0.12500000000E+03 0.  0.
        -13    1    3    3    0    0  0.42635830557E+02  0.30794733608E+02  0.14655541966E+02  0.54597854716E+02  0.10566000000E+00 0.  1.
         23    2    1    0    0    0  0.86145922800E+01  0.26665235518E+02 -0.82137871069E+01  0.95798762287E+02  0.91239742282E+02 0.  0.
         13    1    3    3    0    0 -0.34021238277E+02 -0.41294980900E+01 -0.22869329073E+02  0.41200907571E+02  0.10566000000E+00 0. -1.
         22    1    1    0    0    0 -0.86145922800E+01 -0.26665235518E+02  0.82137871069E+01  0.29201237713E+02  0.00000000000E+00 0.  1.
</event>
<event>
 5    1  0.1245610E-004  0.9118800E+02  0.7818608E-02  0.1130116E+00
         25   -1    0    0    0    0  0.00000000000E+00  0.00000000000E+00  0.99999998245E-14  0.12500000000E+03  0.12500000000E+03 0.  0.
        -13    1    3    3    0    0  0.30707271160E+02 -0.19803475662E+02 -0.15406125618E+02  0.39654432551E+02  0.10566000000E+00 0. -1.
         23    2    1    0    0    0  0.11009076536E+02  0.26605424762E+02  0.78202281665E+01  0.95163707309E+02  0.90365517911E+02 0.  0.
         13    1    3    3    0    0 -0.19698194624E+02  0.46408900424E+02  0.23226353785E+02  0.55509274758E+02  0.10566000000E+00 0.  1.
         22    1    1    0    0    0 -0.11009076536E+02 -0.26605424762E+02 -0.78202281665E+01  0.29836292691E+02  0.00000000000E+00 0.  1.
</event>
<event>
 5    1  0.1245610E-004  0.9118800E+02  0.7818608E-02  0.1130116E+00
         25   -1    0    0    0    0  0.00000000000E+00  0.00000000000E+00  0.99999998245E-14  0.12500000000E+03  0.12500000000E+03 0.  0.
        -13    1    3    3    0    0 -0.43156506755E+02 -0.41978376718E+01 -0.27929283999E+02  0.51576758188E+02  0.10566000000E+00 0.  1.
         23    2    1    0    0    0 -0.38565183077E+01 -0.21664206327E+02 -0.19910145914E+02  0.95324682318E+02  0.90587916299E+02 0.  0.
         13    1    3    3    0    0  0.39299988448E+02 -0.17466368655E+02  0.80191380855E+01  0.43747924130E+02  0.10566000000E+00 0. -1.
         22    1    1    0    0    0  0.38565183077E+01  0.21664206327E+02  0.19910145914E+02  0.29675317682E+02  0.00000000000E+00 0. -1.
</event>
<event>
 5    1  0.1245610E-004  0.9118800E+02  0.7818608E-02  0.1130116E+00
         25   -1    0    0    0    0  0.00000000000E+00  0.00000000000E+00  0.99999998245E-14  0.12500000000E+03  0.12500000000E+03 0.  0.
        -13    1    3    3    0    0  0.55472955559E+02  0.19414485637E+02 -0.47462186870E+01  0.58963622742E+02  0.10566000000E+00 0.  1.
         23    2    1    0    0    0  0.22738489027E+02  0.15268186427E+02  0.10950410557E+02  0.95503086749E+02  0.90833758522E+02 0.  0.
         13    1    3    3    0    0 -0.32734466532E+02 -0.41462992105E+01  0.15696629244E+02  0.36539464007E+02  0.10566000000E+00 0. -1.
         22    1    1    0    0    0 -0.22738489027E+02 -0.15268186427E+02 -0.10950410557E+02  0.29496913251E+02  0.00000000000E+00 0.  1.
</event>
<event>
 5    1  0.1245610E-004  0.9118800E+02  0.7818608E-02  0.1130116E+00
         25   -1    0    0    0    0  0.00000000000E+00  0.00000000000E+00  0.99999998245E-14  0.12500000000E+03  0.12500000000E+03 0.  0.
        -13    1    3    3    0    0 -0.51188113400E+01  0.19976468268E+02 -0.30308432104E+02  0.36658883434E+02  0.10566000000E+00 0. -1.
         23    2    1    0    0    0  0.67023356018E+00 -0.98231896121E+01  0.24101744651E+02  0.98964670880E+02  0.95478624413E+02 0.  0.
         13    1    3    3    0    0  0.57890449002E+01 -0.29799657880E+02  0.54410176755E+02  0.62305787445E+02  0.10566000000E+00 0.  1.
         22    1    1    0    0    0 -0.67023356018E+00  0.98231896121E+01 -0.24101744651E+02  0.26035329120E+02  0.00000000000E+00 0.  1.
</event>
<event>
 5    1  0.1245610E-004  0.9118800E+02  0.7818608E-02  0.1130116E+00
         25   -1    0    0    0    0  0.00000000000E+00  0.00000000000E+00  0.99999998245E-14  0.12500000000E+03  0.12500000000E+03 0.  0.
        -13    1    3    3    0    0 -0.29262827175E+02  0.19599508650E+02  0.97999449758E+00  0.35233866476E+02  0.10566000000E+00 0. -1.
         23    2    1    0    0    0  0.42182406125E+01 -0.29597169835E+02  0.40970294610E+01  0.94824319949E+02  0.89894827367E+02 0.  0.
         13    1    3    3    0    0  0.33481067787E+02 -0.49196678486E+02  0.31170349634E+01  0.59590453473E+02  0.10566000000E+00 0.  1.
         22    1    1    0    0    0 -0.42182406125E+01  0.29597169835E+02 -0.40970294610E+01  0.30175680051E+02  0.00000000000E+00 0.  1.
</event>
<event>
 5    1  0.1245610E-004  0.9118800E+02  0.7818608E-02  0.1130116E+00
         25   -1    0    0    0    0  0.00000000000E+00  0.00000000000E+00  0.99999998245E-14  0.12500000000E+03  0.12500000000E+03 0.  0.
        -13    1    3    3    0    0 -0.38358852045E+02  0.99639608964E+01 -0.12566759122E+02  0.41576635817E+02  0.10566000000E+00 0.  1.
         23    2    1    0    0    0 -0.12405569874E+01 -0.28661121664E+02 -0.15289386029E+01  0.96271329130E+02  0.91884886040E+02 0.  0.
         13    1    3    3    0    0  0.37118295058E+02 -0.38625082560E+02  0.11037820519E+02  0.54694693314E+02  0.10566000000E+00 0. -1.
         22    1    1    0    0    0  0.12405569874E+01  0.28661121664E+02  0.15289386029E+01  0.28728670870E+02  0.00000000000E+00 0. -1.
</event>
<event>
 5    1  0.1245610E-004  0.9118800E+02  0.7818608E-02  0.1130116E+00
         25   -1    0    0    0    0  0.00000000000E+00  0.00000000000E+00  0.99999998245E-14  0.12500000000E+03  0.12500000000E+03 0.  0.
        -13    1    3    3    0    0 -0.20604450954E+02 -0.22992973330E+02 -0.40388484023E+02  0.50837594626E+02  0.10566000000E+00 0.  1.
         23    2    1    0    0    0 -0.66501572027E+01 -0.27132212027E+02  0.32844448863E+01  0.96872271714E+02  0.92698802196E+02 0.  0.
         13    1    3    3    0    0  0.13954293751E+02 -0.41392386971E+01  0.43672928909E+02  0.46034677088E+02  0.10566000000E+00 0. -1.
         22    1    1    0    0    0  0.66501572027E+01  0.27132212027E+02 -0.32844448863E+01  0.28127728286E+02  0.00000000000E+00 0.  1.
</event>
<event>
 5    1  0.1245610E-004  0.9118800E+02  0.7818608E-02  0.1130116E+00
         25   -1    0    0    0    0  0.00000000000E+00  0.00000000000E+00  0.99999998245E-14  0.12500000000E+03  0.12500000000E+03 0.  0.
        -13    1    3    3    0    0 -0.71442071488E+01 -0.58129434783E+01  0.43096252966E+02  0.44069583518E+02  0.10566000000E+00 0.  1.
         23    2    1    0    0    0 -0.15529505094E+02  0.23974512709E+02  0.86868917207E+00  0.96422081794E+02  0.92089741277E+02 0.  0.
         13    1    3    3    0    0 -0.83852979450E+01  0.29787456188E+02 -0.42227563794E+02  0.52352498276E+02  0.10566000000E+00 0. -1.
         22    1    1    0    0    0  0.15529505094E+02 -0.23974512709E+02 -0.86868917207E+00  0.28577918206E+02  0.00000000000E+00 0. -1.
</event>
<event>
 5    1  0.1245610E-004  0.9118800E+02  0.7818608E-02  0.1130116E+00
         25   -1    0    0    0    0  0.00000000000E+00  0.00000000000E+00  0.99999998245E-14  0.12500000000E+03  0.12500000000E+03 0.  0.
        -13    1    3    3    0    0 -0.32250218099E+02 -0.45051077335E+02  0.60688820050E+01  0.55736151906E+02  0.10566000000E+00 0.  1.
         23    2    1    0    0    0 -0.40019627529E+02 -0.24752112604E+02  0.66351427897E+01  0.77478817505E+02  0.61193989707E+02 0.  0.
         13    1    3    3    0    0 -0.77694094293E+01  0.20298964731E+02  0.56626078474E+00  0.21742665599E+02  0.10566000000E+00 0. -1.
         22    1    1    0    0    0  0.40019627529E+02  0.24752112604E+02 -0.66351427897E+01  0.47521182495E+02  0.00000000000E+00 0.  1.
</event>
<event>
 5    1  0.1245610E-004  0.9118800E+02  0.7818608E-02  0.1130116E+00
         25   -1    0    0    0    0  0.00000000000E+00  0.00000000000E+00  0.99999998245E-14  0.12500000000E+03  0.12500000000E+03 0.  0.
        -13    1    3    3    0    0  0.20418861461E+02 -0.36574816666E+02  0.20476271722E+02  0.46625486434E+02  0.10566000000E+00 0. -1.
         23    2    1    0    0    0  0.23960410439E+02  0.12089575238E+02  0.81629308136E+01  0.96948395103E+02  0.92801394256E+02 0.  0.
         13    1    3    3    0    0  0.35415489776E+01  0.48664391904E+02 -0.12313340908E+02  0.50322908669E+02  0.10566000000E+00 0.  1.
         22    1    1    0    0    0 -0.23960410439E+02 -0.12089575238E+02 -0.81629308136E+01  0.28051604897E+02  0.00000000000E+00 0.  1.
</event>
<event>
 5    1  0.1245610E-004  0.9118800E+02  0.7818608E-02  0.1130116E+00
         25   -1    0    0    0    0  0.00000000000E+00  0.00000000000E+00  0.99999998245E-14  0.12500000000E+03  0.12500000000E+03 0.  0.
        -13    1    3    3    0    0 -0.19172704035E+02  0.47040423194E+02 -0.46381826031E+00  0.50799805962E+02  0.10566000000E+00 0.  1.
         23    2    1    0    0    0  0.16858908031E+02  0.20303704538E+02 -0.10190898537E+02  0.96710114688E+02  0.92479882526E+02 0.  0.
         13    1    3    3    0    0  0.36031612067E+02 -0.26736718656E+02 -0.97270802764E+01  0.45910308727E+02  0.10566000000E+00 0. -1.
         22    1    1    0    0    0 -0.16858908031E+02 -0.20303704538E+02  0.10190898537E+02  0.28289885312E+02  0.00000000000E+00 0.  1.
</event>
<event>
 5    1  0.1245610E-004  0.9118800E+02  0.7818608E-02  0.1130116E+00
         25   -1    0    0    0    0  0.00000000000E+00  0.00000000000E+00  0.99999998245E-14  0.12500000000E+03  0.12500000000E+03 0.  0.
        -13    1    3    3    0    0 -0.24423163636E+02  0.22444491474E+02 -0.23787966847E+02  0.40818190189E+02  0.10566000000E+00 0.  1.
         23    2    1    0    0    0  0.26563337145E+02  0.80016340463E+01 -0.73837168109E+01  0.96291877427E+02  0.91912835648E+02 0.  0.
         13    1    3    3    0    0  0.50986500781E+02 -0.14442857428E+02  0.16404250036E+02  0.55473687239E+02  0.10566000000E+00 0. -1.
         22    1    1    0    0    0 -0.26563337145E+02 -0.80016340463E+01  0.73837168109E+01  0.28708122573E+02  0.00000000000E+00 0. -1.
</event>
<event>
 5    1  0.1245610E-004  0.9118800E+02  0.7818608E-02  0.1130116E+00
         25   -1    0    0    0    0  0.00000000000E+00  0.00000000000E+00  0.99999998245E-14  0.12500000000E+03  0.12500000000E+03 0.  0.
        -13    1    3    3    0    0  0.31603932575E+02 -0.72515122832E+00 -0.17074688596E+02  0.35928965379E+02  0.10566000000E+00 0. -1.
         23    2    1    0    0    0 -0.22475669213E+02 -0.18918973364E+02  0.45187954108E+00  0.95618246226E+02  0.90992096122E+02 0.  0.
         13    1    3    3    0    0 -0.54079601788E+02 -0.18193822135E+02  0.17526568137E+02  0.59689280848E+02  0.10566000000E+00 0.  1.
         22    1    1    0    0    0  0.22475669213E+02  0.18918973364E+02 -0.45187954108E+00  0.29381753774E+02  0.00000000000E+00 0.  1.
</event>
<event>
 5    1  0.1245610E-004  0.9118800E+02  0.7818608E-02  0.1130116E+00
         25   -1    0    0    0    0  0.00000000000E+00  0.00000000000E+00  0.99999998245E-14  0.12500000000E+03  0.12500000000E+03 0.  0.
        -13    1    3    3    0    0  0.21518643470E+02 -0.15411011237E+02 -0.22549207994E+02  0.34771097615E+02  0.10566000000E+00 0. -1.
         23    2    1    0    0    0  0.60874033032E+00  0.31080850180E+02  0.62061955606E+01  0.93299736972E+02  0.87749269188E+02 0.  0.
         13    1    3    3    0    0 -0.20909903140E+02  0.46491861418E+02  0.28755403554E+02  0.58528639357E+02  0.10566000000E+00 0.  1.
         22    1    1    0    0    0 -0.60874033032E+00 -0.31080850180E+02 -0.62061955606E+01  0.31700263028E+02  0.00000000000E+00 0.  1.
</event>
<event>
 5    1  0.1245610E-004  0.9118800E+02  0.7818608E-02  0.1130116E+00
         25   -1    0    0    0    0  0.00000000000E+00  0.00000000000E+00  0.99999998245E-14  0.12500000000E+03  0.12500000000E+03 0.  0.
        -13    1    3    3    0    0  0.26537092119E+02  0.42328126814E+02  0.32259267771E+01  0.50063013746E+02  0.10566000000E+00 0. -1.
         23    2    1    0    0    0  0.32757137599E+02  0.19736083618E+02  0.22696065720E+02  0.80529172940E+02  0.67136377881E+02 0.  0.
         13    1    3    3    0    0  0.62200454798E+01 -0.22592043196E+02  0.19470138943E+02  0.30466159194E+02  0.10566000000E+00 0.  1.
         22    1    1    0    0    0 -0.32757137599E+02 -0.19736083618E+02 -0.22696065720E+02  0.44470827060E+02  0.00000000000E+00 0. -1.
</event>
<event>
 5    1  0.1245610E-004  0.9118800E+02  0.7818608E-02  0.1130116E+00
         25   -1    0    0    0    0  0.00000000000E+00  0.00000000000E+00  0.99999998245E-14  0.12500000000E+03  0.12500000000E+03 0.  0.
        -13    1    3    3    0    0  0.33169364685E+02 -0.27464561417E+02  0.31261926953E+02  0.53214923924E+02  0.10566000000E+00 0. -1.
         23    2    1    0    0    0  0.22720876301E+02 -0.19784534560E+02 -0.73859211627E+01  0.93980363331E+02  0.88713532411E+02 0.  0.
         13    1    3    3    0    0 -0.10448488384E+02  0.76800268579E+01 -0.38647848116E+02  0.40765439407E+02  0.10566000000E+00 0.  1.
         22    1    1    0    0    0 -0.22720876301E+02  0.19784534560E+02  0.73859211627E+01  0.31019636669E+02  0.00000000000E+00 0. -1.
</event>
<event>
 5    1  0.1245610E-004  0.9118800E+02  0.7818608E-02  0.1130116E+00
         25   -1    0    0    0    0  0.00000000000E+00  0.00000000000E+00  0.99999998245E-14  0.12500000000E+03  0.12500000000E+03 0.  0.
        -13    1    3    3    0    0 -0.39473471361E+02  0.26026390425E+00 -0.28204681023E+02  0.48515336485E+02  0.10566000000E+00 0.  1.
         23    2    1    0    0    0 -0.25147211686E+02 -0.52953165297E+01  0.15600040306E+02  0.94937001309E+02  0.90051376043E+02 0.  0.
         13    1    3    3    0    0  0.14326259675E+02 -0.55555804340E+01  0.43804721330E+02  0.46421664824E+02  0.10566000000E+00 0. -1.
         22    1    1    0    0    0  0.25147211686E+02  0.52953165297E+01 -0.15600040306E+02  0.30062998691E+02  0.00000000000E+00 0. -1.
</event>
<event>
 5    1  0.1245610E-004  0.9118800E+02  0.7818608E-02  0.1130116E+00
         25   -1    0    0    0    0  0.00000000000E+00  0.00000000000E+00  0.99999998245E-14  0.12500000000E+03  0.12500000000E+03 0.  0.
        -13    1    3    3    0    0 -0.19922267929E+02 -0.42963228829E+02 -0.37654777754E+02  0.60503134155E+02  0.10566000000E+00 0. -1.
         23    2    1    0    0    0 -0.17446537572E+02 -0.20691133473E+02 -0.98864408890E+01  0.96186003556E+02  0.91768735901E+02 0.  0.
         13    1    3    3    0    0  0.24757303572E+01  0.22272095356E+02  0.27768336865E+02  0.35682869400E+02  0.10566000000E+00 0.  1.
         22    1    1    0    0    0  0.17446537572E+02  0.20691133473E+02  0.98864408890E+01  0.28813996444E+02  0.00000000000E+00 0. -1.
</event>
<event>
 5    1  0.1245610E-004  0.9118800E+02  0.7818608E-02  0.1130116E+00
         25   -1    0    0    0    0  0.00000000000E+00  0.00000000000E+00  0.99999998245E-14  0.12500000000E+03  0.12500000000E+03 0.  0.
        -13    1    3    3    0    0  0.40294273151E+02  0.21434372998E+02  0.16793573432E+02  0.48632253364E+02  0.10566000000E+00 0. -1.
         23    2    1    0    0    0  0.32370840504E+02 -0.14806676198E+02  0.16583626100E+02  0.85730092569E+02  0.76207106902E+02 0.  0.
         13    1    3    3    0    0 -0.79234326470E+01 -0.36241049197E+02 -0.20994733204E+00  0.37097839205E+02  0.10566000000E+00 0.  1.
         22    1    1    0    0    0 -0.32370840504E+02  0.14806676198E+02 -0.16583626100E+02  0.39269907431E+02  0.00000000000E+00 0.  1.
</event>
<event>
 5    1  0.1245610E-004  0.9118800E+02  0.7818608E-02  0.1130116E+00
         25   -1    0    0    0    0  0.00000000000E+00  0.00000000000E+00  0.99999998245E-14  0.12500000000E+03  0.12500000000E+03 0.  0.
        -13    1    3    3    0    0  0.81773817971E+00  0.99055491705E+01  0.50709217692E+02  0.51674215263E+02  0.10566000000E+00 0.  1.
         23    2    1    0    0    0 -0.41169984981E+01  0.24287521755E+02  0.49766252244E+01  0.99868342906E+02  0.96654465632E+02 0.  0.
         13    1    3    3    0    0 -0.49347366778E+01  0.14381972585E+02 -0.45732592467E+02  0.48194127643E+02  0.10566000000E+00 0. -1.
         22    1    1    0    0    0  0.41169984981E+01 -0.24287521755E+02 -0.49766252244E+01  0.25131657094E+02  0.00000000000E+00 0. -1.
</event>
<event>
 5    1  0.1245610E-004  0.9118800E+02  0.7818608E-02  0.1130116E+00
         25   -1    0    0    0    0  0.00000000000E+00  0.00000000000E+00  0.99999998245E-14  0.12500000000E+03  0.12500000000E+03 0.  0.
        -13    1    3    3    0    0 -0.56539396008E+02 -0.41812343137E+01 -0.18005617455E+02  0.59484447087E+02  0.10566000000E+00 0. -1.
         23    2    1    0    0    0 -0.29705790989E+02  0.75876244144E+01  0.85071096523E+00  0.94328681612E+02  0.89202973061E+02 0.  0.
         13    1    3    3    0    0  0.26833605019E+02  0.11768858728E+02  0.18856328420E+02  0.34844234524E+02  0.10566000000E+00 0.  1.
         22    1    1    0    0    0  0.29705790989E+02 -0.75876244144E+01 -0.85071096523E+00  0.30671318388E+02  0.00000000000E+00 0. -1.
</event>
<event>
 5    1  0.1245610E-004  0.9118800E+02  0.7818608E-02  0.1130116E+00
         25   -1    0    0    0    0  0.00000000000E+00  0.00000000000E+00  0.99999998245E-14  0.12500000000E+03  0.12500000000E+03 0.  0.
        -13    1    3    3    0    0  0.35667068542E+02 -0.10419249058E+02  0.34226499448E+02  0.50518956420E+02  0.10566000000E+00 0. -1.
         23    2    1    0    0    0  0.27591953341E+02  0.13077223719E+02 -0.19478283536E+01  0.94403861279E+02  0.89308260086E+02 0.  0.
         13    1    3    3    0    0 -0.80751152015E+01  0.23496472777E+02 -0.36174327802E+02  0.43884904858E+02  0.10566000000E+00 0.  1.
         22    1    1    0    0    0 -0.27591953341E+02 -0.13077223719E+02  0.19478283536E+01  0.30596138721E+02  0.00000000000E+00 0. -1.
</event>
<event>
 5    1  0.1245610E-004  0.9118800E+02  0.7818608E-02  0.1130116E+00
         25   -1    0    0    0    0  0.00000000000E+00  0.00000000000E+00  0.99999998245E-14  0.12500000000E+03  0.12500000000E+03 0.  0.
        -13    1    3    3    0    0  0.23307739156E+02 -0.73246525004E+01  0.48975539686E+02  0.54731306310E+02  0.10566000000E+00 0.  1.
         23    2    1    0    0    0  0.25202104568E+02 -0.77402490478E+01  0.57298549157E+01  0.98020586231E+02  0.94234529540E+02 0.  0.
         13    1    3    3    0    0  0.18943654122E+01 -0.41559654739E+00 -0.43245684770E+02  0.43289279921E+02  0.10566000000E+00 0. -1.
         22    1    1    0    0    0 -0.25202104568E+02  0.77402490478E+01 -0.57298549157E+01  0.26979413769E+02  0.00000000000E+00 0.  1.
</event>
<event>
 5    1  0.1245610E-004  0.9118800E+02  0.7818608E-02  0.1130116E+00
         25   -1    0    0    0    0  0.00000000000E+00  0.00000000000E+00  0.99999998245E-14  0.12500000000E+03  0.12500000000E+03 0.  0.
        -13    1    3    3    0    0  0.18615703575E+02  0.17124213486E+02 -0.33862973896E+02  0.42266952484E+02  0.10566000000E+00 0.  1.
         23    2    1    0    0    0 -0.25535009816E+02  0.14479545954E+02 -0.46350394817E+01  0.95281696409E+02  0.90528581687E+02 0.  0.
         13    1    3    3    0    0 -0.44150713391E+02 -0.26446675322E+01  0.29227934415E+02  0.53014743925E+02  0.10566000000E+00 0. -1.
         22    1    1    0    0    0  0.25535009816E+02 -0.14479545954E+02  0.46350394817E+01  0.29718303591E+02  0.00000000000E+00 0. -1.
</event>
<event>
 5    1  0.1245610E-004  0.9118800E+02  0.7818608E-02  0.1130116E+00
         25   -1    0    0    0    0  0.00000000000E+00  0.00000000000E+00  0.99999998245E-14  0.12500000000E+03  0.12500000000E+03 0.  0.
        -13    1    3    3    0    0  0.25373125266E+02 -0.39334454445E+02 -0.12828619951E+02  0.48534312050E+02  0.10566000000E+00 0. -1.
         23    2    1    0    0    0  0.61873193804E+01  0.12003989512E+01 -0.28324910039E+02  0.95982343177E+02  0.91490905528E+02 0.  0.
         13    1    3    3    0    0 -0.19185805885E+02  0.40534853396E+02 -0.15496290088E+02  0.47448031127E+02  0.10566000000E+00 0.  1.
         22    1    1    0    0    0 -0.61873193804E+01 -0.12003989512E+01  0.28324910039E+02  0.29017656823E+02  0.00000000000E+00 0. -1.
</event>
<event>
 5    1  0.1245610E-004  0.9118800E+02  0.7818608E-02  0.1130116E+00
         25   -1    0    0    0    0  0.00000000000E+00  0.00000000000E+00  0.99999998245E-14  0.12500000000E+03  0.12500000000E+03 0.  0.
        -13    1    3    3    0    0  0.22061953719E+02  0.23134108057E+02 -0.24010327905E+02  0.39980292240E+02  0.10566000000E+00 0.  1.
         23    2    1    0    0    0  0.67215981940E+01 -0.27533250411E+02 -0.50518679792E+01  0.96211440979E+02  0.91803378177E+02 0.  0.
         13    1    3    3    0    0 -0.15340355525E+02 -0.50667358467E+02  0.18958459926E+02  0.56231148739E+02  0.10566000000E+00 0. -1.
         22    1    1    0    0    0 -0.67215981940E+01  0.27533250411E+02  0.50518679792E+01  0.28788559021E+02  0.00000000000E+00 0. -1.
</event>
<event>
 5    1  0.1245610E-004  0.9118800E+02  0.7818608E-02  0.1130116E+00
         25   -1    0    0    0    0  0.00000000000E+00  0.00000000000E+00  0.99999998245E-14  0.12500000000E+03  0.12500000000E+03 0.  0.
        -13    1    3    3    0    0 -0.30791024465E+01 -0.43569411308E+02 -0.83925805230E+01  0.44477196915E+02  0.10566000000E+00 0.  1.
         23    2    1    0    0    0 -0.26762216588E+02  0.38849851712E+01 -0.23888518014E+01  0.97851962144E+02  0.94010587361E+02 0.  0.
         13    1    3    3    0    0 -0.23683114142E+02  0.47454396479E+02  0.60037287217E+01  0.53374765229E+02  0.10566000000E+00 0. -1.
         22    1    1    0    0    0  0.26762216588E+02 -0.38849851712E+01  0.23888518014E+01  0.27148037856E+02  0.00000000000E+00 0. -1.
</event>
<event>
 5    1  0.1245610E-004  0.9118800E+02  0.7818608E-02  0.1130116E+00
         25   -1    0    0    0    0  0.00000000000E+00  0.00000000000E+00  0.99999998245E-14  0.12500000000E+03  0.12500000000E+03 0.  0.
        -13    1    3    3    0    0  0.37484715887E+02  0.35430061752E+02 -0.14584229352E+02  0.53601344299E+02  0.10566000000E+00 0.  1.
         23    2    1    0    0    0 -0.31287644316E+01  0.24563078235E+02 -0.15739399720E+02  0.95659538470E+02  0.91048803493E+02 0.  0.
         13    1    3    3    0    0 -0.40613480318E+02 -0.10866983517E+02 -0.11551703684E+01  0.42058194171E+02  0.10566000000E+00 0. -1.
         22    1    1    0    0    0  0.31287644316E+01 -0.24563078235E+02  0.15739399720E+02  0.29340461530E+02  0.00000000000E+00 0.  1.
</event>
<event>
 5    1  0.1245610E-004  0.9118800E+02  0.7818608E-02  0.1130116E+00
         25   -1    0    0    0    0  0.00000000000E+00  0.00000000000E+00  0.99999998245E-14  0.12500000000E+03  0.12500000000E+03 0.  0.
        -13    1    3    3    0    0  0.61045441692E+01 -0.51813259284E+02  0.22218157575E+02  0.56705705068E+02  0.10566000000E+00 0.  1.
         23    2    1    0    0    0  0.28126267740E+01 -0.27559565867E+02 -0.85369154605E+01  0.96011735724E+02  0.91531054462E+02 0.  0.
         13    1    3    3    0    0 -0.32919173952E+01  0.24253693417E+02 -0.30755073035E+02  0.39306030656E+02  0.10566000000E+00 0. -1.
         22    1    1    0    0    0 -0.28126267740E+01  0.27559565867E+02  0.85369154605E+01  0.28988264276E+02  0.00000000000E+00 0.  1.
</event>
<event>
 5    1  0.1245610E-004  0.9118800E+02  0.7818608E-02  0.1130116E+00
         25   -1    0    0    0    0  0.00000000000E+00  0.00000000000E+00  0.99999998245E-14  0.12500000000E+03  0.12500000000E+03 0.  0.
        -13    1    3    3    0    0 -0.18378379106E+01 -0.35910036225E+02  0.12514083952E+02  0.38072586084E+02  0.10566000000E+00 0.  1.
         23    2    1    0    0    0 -0.22316370985E+02  0.15027926865E+02 -0.83891042214E+01  0.96817805809E+02  0.92625328351E+02 0.  0.
         13    1    3    3    0    0 -0.20478533075E+02  0.50937963090E+02 -0.20903188174E+02  0.58745219725E+02  0.10566000000E+00 0. -1.
         22    1    1    0    0    0  0.22316370985E+02 -0.15027926865E+02  0.83891042214E+01  0.28182194191E+02  0.00000000000E+00 0. -1.
</event>
<event>
 5    1  0.1245610E-004  0.9118800E+02  0.7818608E-02  0.1130116E+00
         25   -1    0    0    0    0  0.00000000000E+00  0.00000000000E+00  0.99999998245E-14  0.12500000000E+03  0.12500000000E+03 0.  0.
        -13    1    3    3    0    0  0.42212189122E+02 -0.21664010663E+02 -0.21975305072E+02  0.52288846473E+02  0.10566000000E+00 0.  1.
         23    2    1    0    0    0  0.21267868878E+02  0.14731950095E+02 -0.15672453566E+02  0.94751390098E+02  0.89793360136E+02 0.  0.
         13    1    3    3    0    0 -0.20944320244E+02  0.36395960758E+02  0.63028515056E+01  0.42462543625E+02  0.10566000000E+00 0. -1.
         22    1    1    0    0    0 -0.21267868878E+02 -0.14731950095E+02  0.15672453566E+02  0.30248609902E+02  0.00000000000E+00 0.  1.
</event>
<event>
 5    1  0.1245610E-004  0.9118800E+02  0.7818608E-02  0.1130116E+00
         25   -1    0    0    0    0  0.00000000000E+00  0.00000000000E+00  0.99999998245E-14  0.12500000000E+03  0.12500000000E+03 0.  0.
        -13    1    3    3    0    0  0.24878718578E+02 -0.43493467035E+02 -0.21881016609E+02  0.54675610327E+02  0.10566000000E+00 0. -1.
         23    2    1    0    0    0 -0.90829637406E+01 -0.23177513372E+02 -0.17667805058E+02  0.94473803185E+02  0.89406100443E+02 0.  0.
         13    1    3    3    0    0 -0.33961682318E+02  0.20315953664E+02  0.42132115509E+01  0.39798192858E+02  0.10566000000E+00 0.  1.
         22    1    1    0    0    0  0.90829637406E+01  0.23177513372E+02  0.17667805058E+02  0.30526196815E+02  0.00000000000E+00 0. -1.
</event>
<event>
 5    1  0.1245610E-004  0.9118800E+02  0.7818608E-02  0.1130116E+00
         25   -1    0    0    0    0  0.00000000000E+00  0.00000000000E+00  0.99999998245E-14  0.12500000000E+03  0.12500000000E+03 0.  0.
        -13    1    3    3    0    0  0.32645870352E+02 -0.22177757728E+02  0.55039517656E+01  0.39848593927E+02  0.10566000000E+00 0. -1.
         23    2    1    0    0    0 -0.24538536991E+02 -0.77455575432E+01 -0.14063872244E+01  0.99229641362E+02  0.95824894158E+02 0.  0.
         13    1    3    3    0    0 -0.57184407344E+02  0.14432200185E+02 -0.69103389900E+01  0.59381047434E+02  0.10566000000E+00 0.  1.
         22    1    1    0    0    0  0.24538536991E+02  0.77455575432E+01  0.14063872244E+01  0.25770358638E+02  0.00000000000E+00 0.  1.
</event>
<event>
 5    1  0.1245610E-004  0.9118800E+02  0.7818608E-02  0.1130116E+00
         25   -1    0    0    0    0  0.00000000000E+00  0.00000000000E+00  0.99999998245E-14  0.12500000000E+03  0.12500000000E+03 0.  0.
        -13    1    3    3    0    0 -0.32648410476E+02  0.13679989264E+02 -0.33596983925E+01  0.35557833879E+02  0.10566000000E+00 0.  1.
         23    2    1    0    0    0  0.25143183077E+02 -0.72324722245E+01  0.70776983968E+01  0.97896824460E+02  0.94070219066E+02 0.  0.
         13    1    3    3    0    0  0.57791593553E+02 -0.20912461488E+02  0.10437396789E+02  0.62338990581E+02  0.10566000000E+00 0. -1.
         22    1    1    0    0    0 -0.25143183077E+02  0.72324722245E+01 -0.70776983968E+01  0.27103175540E+02  0.00000000000E+00 0. -1.
</event>
<event>
 5    1  0.1245610E-004  0.9118800E+02  0.7818608E-02  0.1130116E+00
         25   -1    0    0    0    0  0.00000000000E+00  0.00000000000E+00  0.99999998245E-14  0.12500000000E+03  0.12500000000E+03 0.  0.
        -13    1    3    3    0    0 -0.14316967960E+02 -0.16924482476E+02 -0.54823698530E+02  0.59135968438E+02  0.10566000000E+00 0.  1.
         23    2    1    0    0    0 -0.54393364760E+01  0.78292774619E+00 -0.41795383921E+02  0.82844887922E+02  0.71317753614E+02 0.  0.
         13    1    3    3    0    0  0.88776314836E+01  0.17707410222E+02  0.13028314609E+02  0.23708919484E+02  0.10566000000E+00 0. -1.
         22    1    1    0    0    0  0.54393364760E+01 -0.78292774619E+00  0.41795383921E+02  0.42155112078E+02  0.00000000000E+00 0.  1.
</event>
<event>
 5    1  0.1245610E-004  0.9118800E+02  0.7818608E-02  0.1130116E+00
         25   -1    0    0    0    0  0.00000000000E+00  0.00000000000E+00  0.99999998245E-14  0.12500000000E+03  0.12500000000E+03 0.  0.
        -13    1    3    3    0    0  0.46527600639E+02 -0.79104763498E+01 -0.26676287556E+02  0.54212809733E+02  0.10566000000E+00 0.  1.
         23    2    1    0    0    0  0.24974814528E+02  0.17569220481E+02 -0.48695249120E+01  0.94078629689E+02  0.88851884742E+02 0.  0.
         13    1    3    3    0    0 -0.21552786111E+02  0.25479696831E+02  0.21806762644E+02  0.39865819956E+02  0.10566000000E+00 0. -1.
         22    1    1    0    0    0 -0.24974814528E+02 -0.17569220481E+02  0.48695249120E+01  0.30921370311E+02  0.00000000000E+00 0.  1.
</event>
<event>
 5    1  0.1245610E-004  0.9118800E+02  0.7818608E-02  0.1130116E+00
         25   -1    0    0    0    0  0.00000000000E+00  0.00000000000E+00  0.99999998245E-14  0.12500000000E+03  0.12500000000E+03 0.  0.
        -13    1    3    3    0    0 -0.48079370184E+01 -0.21304019443E+02 -0.36035699499E+02  0.42137397941E+02  0.10566000000E+00 0. -1.
         23    2    1    0    0    0 -0.11306968600E+02 -0.14789363103E+02  0.19271595022E+02  0.98205090510E+02  0.94478953357E+02 0.  0.
         13    1    3    3    0    0 -0.64990315815E+01  0.65146563404E+01  0.55307294521E+02  0.56067692569E+02  0.10566000000E+00 0.  1.
         22    1    1    0    0    0  0.11306968600E+02  0.14789363103E+02 -0.19271595022E+02  0.26794909490E+02  0.00000000000E+00 0.  1.
</event>
<event>
 5    1  0.1245610E-004  0.9118800E+02  0.7818608E-02  0.1130116E+00
         25   -1    0    0    0    0  0.00000000000E+00  0.00000000000E+00  0.99999998245E-14  0.12500000000E+03  0.12500000000E+03 0.  0.
        -13    1    3    3    0    0  0.68027001121E+01 -0.15115133646E+02 -0.40361481295E+02  0.43632606275E+02  0.10566000000E+00 0.  1.
         23    2    1    0    0    0  0.28298871455E+02  0.91028497625E+01 -0.13583915218E+00  0.95272799465E+02  0.90516296136E+02 0.  0.
         13    1    3    3    0    0  0.21496171342E+02  0.24217983409E+02  0.40225642143E+02  0.51640193189E+02  0.10566000000E+00 0. -1.
         22    1    1    0    0    0 -0.28298871455E+02 -0.91028497625E+01  0.13583915218E+00  0.29727200535E+02  0.00000000000E+00 0. -1.
</event>
<event>
 5    1  0.1245610E-004  0.9118800E+02  0.7818608E-02  0.1130116E+00
         25   -1    0    0    0    0  0.00000000000E+00  0.00000000000E+00  0.99999998245E-14  0.12500000000E+03  0.12500000000E+03 0.  0.
        -13    1    3    3    0    0  0.48706878090E+02 -0.21077949543E+02  0.66318536066E+01  0.53484881756E+02  0.10566000000E+00 0. -1.
         23    2    1    0    0    0  0.22931767876E+02 -0.96807433813E+01 -0.20611444095E+02  0.92682599145E+02  0.86865699711E+02 0.  0.
         13    1    3    3    0    0 -0.25775110214E+02  0.11397206162E+02 -0.27243297701E+02  0.39197717389E+02  0.10566000000E+00 0.  1.
         22    1    1    0    0    0 -0.22931767876E+02  0.96807433813E+01  0.20611444095E+02  0.32317400855E+02  0.00000000000E+00 0. -1.
</event>
<event>
 5    1  0.1245610E-004  0.9118800E+02  0.7818608E-02  0.1130116E+00
         25   -1    0    0    0    0  0.00000000000E+00  0.00000000000E+00  0.99999998245E-14  0.12500000000E+03  0.12500000000E+03 0.  0.
        -13    1    3    3    0    0  0.27111562811E+02 -0.31902301256E+02  0.71643923519E+01  0.42475090880E+02  0.10566000000E+00 0.  1.
         23    2    1    0    0    0  0.13306965034E+02  0.21252252372E+02  0.11192993766E+02  0.97540636229E+02  0.93595721362E+02 0.  0.
         13    1    3    3    0    0 -0.13804597778E+02  0.53154553627E+02  0.40286014140E+01  0.55065545348E+02  0.10566000000E+00 0. -1.
         22    1    1    0    0    0 -0.13306965034E+02 -0.21252252372E+02 -0.11192993766E+02  0.27459363771E+02  0.00000000000E+00 0. -1.
</event>
<event>
 5    1  0.1245610E-004  0.9118800E+02  0.7818608E-02  0.1130116E+00
         25   -1    0    0    0    0  0.00000000000E+00  0.00000000000E+00  0.99999998245E-14  0.12500000000E+03  0.12500000000E+03 0.  0.
        -13    1    3    3    0    0 -0.11782596421E+02 -0.27583100385E+02 -0.15544456406E+01  0.30034721084E+02  0.10566000000E+00 0.  1.
         23    2    1    0    0    0 -0.14978479015E+02  0.29546443828E+02  0.13543565629E+02  0.89212078205E+02  0.81719150456E+02 0.  0.
         13    1    3    3    0    0 -0.31958825938E+01  0.57129544213E+02  0.15098011269E+02  0.59177357121E+02  0.10566000000E+00 0. -1.
         22    1    1    0    0    0  0.14978479015E+02 -0.29546443828E+02 -0.13543565629E+02  0.35787921795E+02  0.00000000000E+00 0. -1.
</event>
<event>
 5    1  0.1245610E-004  0.9118800E+02  0.7818608E-02  0.1130116E+00
         25   -1    0    0    0    0  0.00000000000E+00  0.00000000000E+00  0.99999998245E-14  0.12500000000E+03  0.12500000000E+03 0.  0.
        -13    1    3    3    0    0  0.16949749576E+02 -0.33045162393E+02  0.81831474268E+01  0.38029617854E+02  0.10566000000E+00 0.  1.
         23    2    1    0    0    0 -0.12229197744E+02  0.14826396868E+02  0.22016999555E+02  0.95774607087E+02  0.91206643243E+02 0.  0.
         13    1    3    3    0    0 -0.29178947320E+02  0.47871559260E+02  0.13833852128E+02  0.57744989233E+02  0.10566000000E+00 0. -1.
         22    1    1    0    0    0  0.12229197744E+02 -0.14826396868E+02 -0.22016999555E+02  0.29225392913E+02  0.00000000000E+00 0. -1.
</event>
<event>
 5    1  0.1245610E-004  0.9118800E+02  0.7818608E-02  0.1130116E+00
         25   -1    0    0    0    0  0.00000000000E+00  0.00000000000E+00  0.99999998245E-14  0.12500000000E+03  0.12500000000E+03 0.  0.
        -13    1    3    3    0    0  0.34606087164E+02 -0.31005370805E+02 -0.36037703339E+02  0.58801713526E+02  0.10566000000E+00 0. -1.
         23    2    1    0    0    0  0.21442649616E+02 -0.25256940980E+00 -0.19033678141E+02  0.96327157144E+02  0.91960802987E+02 0.  0.
         13    1    3    3    0    0 -0.13163437548E+02  0.30752801396E+02  0.17004025197E+02  0.37525443618E+02  0.10566000000E+00 0.  1.
         22    1    1    0    0    0 -0.21442649616E+02  0.25256940980E+00  0.19033678141E+02  0.28672842856E+02  0.00000000000E+00 0. -1.
</event>
<event>
 5    1  0.1245610E-004  0.9118800E+02  0.7818608E-02  0.1130116E+00
         25   -1    0    0    0    0  0.00000000000E+00  0.00000000000E+00  0.99999998245E-14  0.12500000000E+03  0.12500000000E+03 0.  0.
        -13    1    3    3    0    0 -0.20720945497E+02  0.22677861285E+02 -0.11731401581E+02  0.32882821074E+02  0.10566000000E+00 0. -1.
         23    2    1    0    0    0  0.19790439513E+02 -0.20499112354E+02  0.81928586668E+01  0.95352098952E+02  0.90625739930E+02 0.  0.
         13    1    3    3    0    0  0.40511385010E+02 -0.43176973639E+02  0.19924260247E+02  0.62469277877E+02  0.10566000000E+00 0.  1.
         22    1    1    0    0    0 -0.19790439513E+02  0.20499112354E+02 -0.81928586668E+01  0.29647901048E+02  0.00000000000E+00 0.  1.
</event>
<event>
 5    1  0.1245610E-004  0.9118800E+02  0.7818608E-02  0.1130116E+00
         25   -1    0    0    0    0  0.00000000000E+00  0.00000000000E+00  0.99999998245E-14  0.12500000000E+03  0.12500000000E+03 0.  0.
        -13    1    3    3    0    0  0.18764904227E+02 -0.11408552853E+02  0.34166426015E+02  0.40615668646E+02  0.10566000000E+00 0.  1.
         23    2    1    0    0    0 -0.27913438046E+02 -0.44845159828E+01  0.44539454273E+01  0.96379927725E+02  0.92032504754E+02 0.  0.
         13    1    3    3    0    0 -0.46678342273E+02  0.69240368697E+01 -0.29712480588E+02  0.55764259079E+02  0.10566000000E+00 0. -1.
         22    1    1    0    0    0  0.27913438046E+02  0.44845159828E+01 -0.44539454273E+01  0.28620072275E+02  0.00000000000E+00 0. -1.
</event>
<event>
 5    1  0.1245610E-004  0.9118800E+02  0.7818608E-02  0.1130116E+00
         25   -1    0    0    0    0  0.00000000000E+00  0.00000000000E+00  0.99999998245E-14  0.12500000000E+03  0.12500000000E+03 0.  0.
        -13    1    3    3    0    0  0.57315390155E+02  0.85621921680E+01  0.75167490463E+01  0.58436955461E+02  0.10566000000E+00 0.  1.
         23    2    1    0    0    0  0.28417475652E+02  0.20976644746E+01 -0.12190010113E+02  0.94007267541E+02  0.88751433145E+02 0.  0.
         13    1    3    3    0    0 -0.28897914502E+02 -0.64645276934E+01 -0.19706759159E+02  0.35570312080E+02  0.10566000000E+00 0. -1.
         22    1    1    0    0    0 -0.28417475652E+02 -0.20976644746E+01  0.12190010113E+02  0.30992732459E+02  0.00000000000E+00 0.  1.
</event>
<event>
 5    1  0.1245610E-004  0.9118800E+02  0.7818608E-02  0.1130116E+00
         25   -1    0    0    0    0  0.00000000000E+00  0.00000000000E+00  0.99999998245E-14  0.12500000000E+03  0.12500000000E+03 0.  0.
        -13    1    3    3    0    0  0.50686386248E+00  0.25549027585E+02  0.42314107488E+02  0.49431817466E+02  0.10566000000E+00 0. -1.
         23    2    1    0    0    0 -0.24404256787E+02  0.97092037537E+01  0.30453612159E+01  0.98559300089E+02  0.94946432383E+02 0.  0.
         13    1    3    3    0    0 -0.24911120649E+02 -0.15839823832E+02 -0.39268746272E+02  0.49127482622E+02  0.10566000000E+00 0.  1.
         22    1    1    0    0    0  0.24404256787E+02 -0.97092037537E+01 -0.30453612159E+01  0.26440699911E+02  0.00000000000E+00 0. -1.
</event>
<event>
 5    1  0.1245610E-004  0.9118800E+02  0.7818608E-02  0.1130116E+00
         25   -1    0    0    0    0  0.00000000000E+00  0.00000000000E+00  0.99999998245E-14  0.12500000000E+03  0.12500000000E+03 0.  0.
        -13    1    3    3    0    0 -0.18846033074E+02 -0.27974567576E+02 -0.30581686495E-01  0.33730720315E+02  0.10566000000E+00 0.  1.
         23    2    1    0    0    0  0.21730982004E+02  0.18912296147E+02  0.42248061985E+01  0.95883689935E+02  0.91356020511E+02 0.  0.
         13    1    3    3    0    0  0.40577015078E+02  0.46886863723E+02  0.42553878850E+01  0.62152969619E+02  0.10566000000E+00 0. -1.
         22    1    1    0    0    0 -0.21730982004E+02 -0.18912296147E+02 -0.42248061985E+01  0.29116310065E+02  0.00000000000E+00 0. -1.
</event>
<event>
 5    1  0.1245610E-004  0.9118800E+02  0.7818608E-02  0.1130116E+00
         25   -1    0    0    0    0  0.00000000000E+00  0.00000000000E+00  0.99999998245E-14  0.12500000000E+03  0.12500000000E+03 0.  0.
        -13    1    3    3    0    0 -0.30433577911E+02 -0.34935902880E+01 -0.25428683277E+02  0.39812522337E+02  0.10566000000E+00 0. -1.
         23    2    1    0    0    0  0.10158644832E+02 -0.28985408995E+02  0.44471233285E+00  0.94282744776E+02  0.89138578596E+02 0.  0.
         13    1    3    3    0    0  0.40592222743E+02 -0.25491818707E+02  0.25873395610E+02  0.54470222440E+02  0.10566000000E+00 0.  1.
         22    1    1    0    0    0 -0.10158644832E+02  0.28985408995E+02 -0.44471233285E+00  0.30717255224E+02  0.00000000000E+00 0.  1.
</event>
<event>
 5    1  0.1245610E-004  0.9118800E+02  0.7818608E-02  0.1130116E+00
         25   -1    0    0    0    0  0.00000000000E+00  0.00000000000E+00  0.99999998245E-14  0.12500000000E+03  0.12500000000E+03 0.  0.
        -13    1    3    3    0    0  0.13295379396E+02 -0.52364641959E+02 -0.16522566593E+01  0.54051493568E+02  0.10566000000E+00 0. -1.
         23    2    1    0    0    0  0.27733582978E+02 -0.20807978881E+02  0.65607185467E+01  0.89713081208E+02  0.82481939248E+02 0.  0.
         13    1    3    3    0    0  0.14438203583E+02  0.31556663078E+02  0.82129752060E+01  0.35661587641E+02  0.10566000000E+00 0.  1.
         22    1    1    0    0    0 -0.27733582978E+02  0.20807978881E+02 -0.65607185467E+01  0.35286918792E+02  0.00000000000E+00 0. -1.
</event>
<event>
 5    1  0.1245610E-004  0.9118800E+02  0.7818608E-02  0.1130116E+00
         25   -1    0    0    0    0  0.00000000000E+00  0.00000000000E+00  0.99999998245E-14  0.12500000000E+03  0.12500000000E+03 0.  0.
        -13    1    3    3    0    0 -0.83844192623E+01 -0.87762536114E+01  0.30306190813E+02  0.32646553867E+02  0.10566000000E+00 0. -1.
         23    2    1    0    0    0  0.17239940892E+02 -0.99443122360E+01 -0.24664190517E+02  0.93307300499E+02  0.87760042871E+02 0.  0.
         13    1    3    3    0    0  0.25624360154E+02 -0.11680586246E+01 -0.54970381330E+02  0.60660746631E+02  0.10566000000E+00 0.  1.
         22    1    1    0    0    0 -0.17239940892E+02  0.99443122360E+01  0.24664190517E+02  0.31692699501E+02  0.00000000000E+00 0.  1.
</event>
<event>
 5    1  0.1245610E-004  0.9118800E+02  0.7818608E-02  0.1130116E+00
         25   -1    0    0    0    0  0.00000000000E+00  0.00000000000E+00  0.99999998245E-14  0.12500000000E+03  0.12500000000E+03 0.  0.
        -13    1    3    3    0    0  0.40296016835E+00  0.16545406844E+02  0.69032998839E+01  0.17932640014E+02  0.10566000000E+00 0.  1.
         23    2    1    0    0    0 -0.11739747062E+02 -0.33855263787E+02 -0.27222591595E+02  0.79999221781E+02  0.66142312064E+02 0.  0.
         13    1    3    3    0    0 -0.12142707230E+02 -0.50400670632E+02 -0.34125891479E+02  0.62066581767E+02  0.10566000000E+00 0. -1.
         22    1    1    0    0    0  0.11739747062E+02  0.33855263787E+02  0.27222591595E+02  0.45000778219E+02  0.00000000000E+00 0. -1.
</event>
<event>
 5    1  0.1245610E-004  0.9118800E+02  0.7818608E-02  0.1130116E+00
         25   -1    0    0    0    0  0.00000000000E+00  0.00000000000E+00  0.99999998245E-14  0.12500000000E+03  0.12500000000E+03 0.  0.
        -13    1    3    3    0    0  0.32980173841E+01  0.39336964842E+02  0.99848301373E+01  0.40718321657E+02  0.10566000000E+00 0. -1.
         23    2    1    0    0    0  0.16923747287E+02 -0.13424490161E+02  0.19337179326E+02  0.96007644756E+02  0.91525467434E+02 0.  0.
         13    1    3    3    0    0  0.13625729903E+02 -0.52761455003E+02  0.93523491886E+01  0.55289323099E+02  0.10566000000E+00 0.  1.
         22    1    1    0    0    0 -0.16923747287E+02  0.13424490161E+02 -0.19337179326E+02  0.28992355244E+02  0.00000000000E+00 0.  1.
</event>
<event>
 5    1  0.1245610E-004  0.9118800E+02  0.7818608E-02  0.1130116E+00
         25   -1    0    0    0    0  0.00000000000E+00  0.00000000000E+00  0.99999998245E-14  0.12500000000E+03  0.12500000000E+03 0.  0.
        -13    1    3    3    0    0 -0.15108813692E+02 -0.13358763355E+02  0.17318125737E+02  0.26583104646E+02  0.10566000000E+00 0.  1.
         23    2    1    0    0    0  0.95393792990E+01  0.17052288949E+02 -0.30745602113E+02  0.88570995551E+02  0.80732576373E+02 0.  0.
         13    1    3    3    0    0  0.24648192991E+02  0.30411052304E+02 -0.48063727850E+02  0.61987890905E+02  0.10566000000E+00 0. -1.
         22    1    1    0    0    0 -0.95393792990E+01 -0.17052288949E+02  0.30745602113E+02  0.36429004449E+02  0.00000000000E+00 0. -1.
</event>
<event>
 5    1  0.1245610E-004  0.9118800E+02  0.7818608E-02  0.1130116E+00
         25   -1    0    0    0    0  0.00000000000E+00  0.00000000000E+00  0.99999998245E-14  0.12500000000E+03  0.12500000000E+03 0.  0.
        -13    1    3    3    0    0  0.17610138799E+02  0.53649300355E+02 -0.55539148729E+01  0.56738184246E+02  0.10566000000E+00 0. -1.
         23    2    1    0    0    0 -0.10778583949E+02  0.24316524309E+02 -0.66840644812E+01  0.97574684242E+02  0.93641182503E+02 0.  0.
         13    1    3    3    0    0 -0.28388722748E+02 -0.29332776045E+02 -0.11301496083E+01  0.40836499996E+02  0.10566000000E+00 0.  1.
         22    1    1    0    0    0  0.10778583949E+02 -0.24316524309E+02  0.66840644812E+01  0.27425315758E+02  0.00000000000E+00 0. -1.
</event>
<event>
 5    1  0.1245610E-004  0.9118800E+02  0.7818608E-02  0.1130116E+00
         25   -1    0    0    0    0  0.00000000000E+00  0.00000000000E+00  0.99999998245E-14  0.12500000000E+03  0.12500000000E+03 0.  0.
        -13    1    3    3    0    0  0.30317201040E+02  0.25848222193E+02  0.13433624057E+02  0.42044460857E+02  0.10566000000E+00 0. -1.
         23    2    1    0    0    0  0.70522403562E+01 -0.15965450239E+01 -0.27513205877E+02  0.96552512454E+02  0.92266614295E+02 0.  0.
         13    1    3    3    0    0 -0.23264960684E+02 -0.27444767217E+02 -0.40946829934E+02  0.54508051597E+02  0.10566000000E+00 0.  1.
         22    1    1    0    0    0 -0.70522403562E+01  0.15965450239E+01  0.27513205877E+02  0.28447487546E+02  0.00000000000E+00 0.  1.
</event>
<event>
 5    1  0.1245610E-004  0.9118800E+02  0.7818608E-02  0.1130116E+00
         25   -1    0    0    0    0  0.00000000000E+00  0.00000000000E+00  0.99999998245E-14  0.12500000000E+03  0.12500000000E+03 0.  0.
        -13    1    3    3    0    0 -0.12275300579E+02 -0.14510184177E+02  0.29964334893E+02  0.35483812911E+02  0.10566000000E+00 0.  1.
         23    2    1    0    0    0  0.26545353196E+02  0.48988647439E+00 -0.13119083522E+02  0.95385710923E+02  0.90672089039E+02 0.  0.
         13    1    3    3    0    0  0.38820653775E+02  0.15000070651E+02 -0.43083418415E+02  0.59901898012E+02  0.10566000000E+00 0. -1.
         22    1    1    0    0    0 -0.26545353196E+02 -0.48988647439E+00  0.13119083522E+02  0.29614289077E+02  0.00000000000E+00 0. -1.
</event>
<event>
 5    1  0.1245610E-004  0.9118800E+02  0.7818608E-02  0.1130116E+00
         25   -1    0    0    0    0  0.00000000000E+00  0.00000000000E+00  0.99999998245E-14  0.12500000000E+03  0.12500000000E+03 0.  0.
        -13    1    3    3    0    0 -0.48624337569E+02 -0.15777596593E+02  0.17893689006E+02  0.54161370261E+02  0.10566000000E+00 0.  1.
         23    2    1    0    0    0 -0.25493063814E+02 -0.19677487033E+02 -0.10625255799E+02  0.91088411135E+02  0.84540539292E+02 0.  0.
         13    1    3    3    0    0  0.23131273754E+02 -0.38998904398E+01 -0.28518944804E+02  0.36927040874E+02  0.10566000000E+00 0. -1.
         22    1    1    0    0    0  0.25493063814E+02  0.19677487033E+02  0.10625255799E+02  0.33911588865E+02  0.00000000000E+00 0.  1.
</event>
<event>
 5    1  0.1245610E-004  0.9118800E+02  0.7818608E-02  0.1130116E+00
         25   -1    0    0    0    0  0.00000000000E+00  0.00000000000E+00  0.99999998245E-14  0.12500000000E+03  0.12500000000E+03 0.  0.
        -13    1    3    3    0    0  0.13260234939E+02 -0.16081349357E+02  0.30229875235E+02  0.36719206807E+02  0.10566000000E+00 0. -1.
         23    2    1    0    0    0  0.15780863198E+00  0.98111618162E+01 -0.24467754176E+02  0.98638004738E+02  0.95049993080E+02 0.  0.
         13    1    3    3    0    0 -0.13102426307E+02  0.25892511173E+02 -0.54697629411E+02  0.61918797931E+02  0.10566000000E+00 0.  1.
         22    1    1    0    0    0 -0.15780863198E+00 -0.98111618162E+01  0.24467754176E+02  0.26361995262E+02  0.00000000000E+00 0.  1.
</event>
<event>
 5    1  0.1245610E-004  0.9118800E+02  0.7818608E-02  0.1130116E+00
         25   -1    0    0    0    0  0.00000000000E+00  0.00000000000E+00  0.99999998245E-14  0.12500000000E+03  0.12500000000E+03 0.  0.
        -13    1    3    3    0    0 -0.13118032356E+02  0.25744309251E+02  0.23775574445E+02  0.37418462501E+02  0.10566000000E+00 0. -1.
         23    2    1    0    0    0  0.17059265610E+02 -0.21635116533E+02  0.12648457316E+02  0.94683663100E+02  0.89699028841E+02 0.  0.
         13    1    3    3    0    0  0.30177297966E+02 -0.47379425784E+02 -0.11127117129E+02  0.57265200600E+02  0.10566000000E+00 0.  1.
         22    1    1    0    0    0 -0.17059265610E+02  0.21635116533E+02 -0.12648457316E+02  0.30316336900E+02  0.00000000000E+00 0.  1.
</event>
<event>
 5    1  0.1245610E-004  0.9118800E+02  0.7818608E-02  0.1130116E+00
         25   -1    0    0    0    0  0.00000000000E+00  0.00000000000E+00  0.99999998245E-14  0.12500000000E+03  0.12500000000E+03 0.  0.
        -13    1    3    3    0    0 -0.52173742234E+01  0.65261849242E+00  0.33529667134E+02  0.33939602927E+02  0.10566000000E+00 0.  1.
         23    2    1    0    0    0  0.59931855294E+00  0.14834676407E+02 -0.25808495087E+02  0.95225762386E+02  0.90451316169E+02 0.  0.
         13    1    3    3    0    0  0.58166927764E+01  0.14182057915E+02 -0.59338162221E+02  0.61286159460E+02  0.10566000000E+00 0. -1.
         22    1    1    0    0    0 -0.59931855294E+00 -0.14834676407E+02  0.25808495087E+02  0.29774237614E+02  0.00000000000E+00 0. -1.
</event>
<event>
 5    1  0.1245610E-004  0.9118800E+02  0.7818608E-02  0.1130116E+00
         25   -1    0    0    0    0  0.00000000000E+00  0.00000000000E+00  0.99999998245E-14  0.12500000000E+03  0.12500000000E+03 0.  0.
        -13    1    3    3    0    0  0.41623913995E+02  0.27318262093E+02 -0.16888894389E+02  0.52574552568E+02  0.10566000000E+00 0.  1.
         23    2    1    0    0    0  0.52829070996E+01  0.28064749627E+02  0.63866612360E+01  0.95736905140E+02  0.91154957544E+02 0.  0.
         13    1    3    3    0    0 -0.36341006895E+02  0.74648753425E+00  0.23275555625E+02  0.43162352571E+02  0.10566000000E+00 0. -1.
         22    1    1    0    0    0 -0.52829070996E+01 -0.28064749627E+02 -0.63866612360E+01  0.29263094860E+02  0.00000000000E+00 0. -1.
</event>
<event>
 5    1  0.1245610E-004  0.9118800E+02  0.7818608E-02  0.1130116E+00
         25   -1    0    0    0    0  0.00000000000E+00  0.00000000000E+00  0.99999998245E-14  0.12500000000E+03  0.12500000000E+03 0.  0.
        -13    1    3    3    0    0  0.55658900501E+02  0.10156222118E+02 -0.16254986941E+02  0.58866780252E+02  0.10566000000E+00 0.  1.
         23    2    1    0    0    0  0.27430583332E+02  0.14680862843E+01  0.72226425050E+01  0.96596501201E+02  0.92326189677E+02 0.  0.
         13    1    3    3    0    0 -0.28228317169E+02 -0.86881358340E+01  0.23477629446E+02  0.37729720949E+02  0.10566000000E+00 0. -1.
         22    1    1    0    0    0 -0.27430583332E+02 -0.14680862843E+01 -0.72226425050E+01  0.28403498799E+02  0.00000000000E+00 0.  1.
</event>
<event>
 5    1  0.1245610E-004  0.9118800E+02  0.7818608E-02  0.1130116E+00
         25   -1    0    0    0    0  0.00000000000E+00  0.00000000000E+00  0.99999998245E-14  0.12500000000E+03  0.12500000000E+03 0.  0.
        -13    1    3    3    0    0  0.42832981249E+02 -0.25501774313E+02 -0.14759515729E+02  0.51989030039E+02  0.10566000000E+00 0. -1.
         23    2    1    0    0    0  0.33482195514E+02  0.17245633471E+01  0.10057878009E+02  0.89997250891E+02  0.82911475217E+02 0.  0.
         13    1    3    3    0    0 -0.93507857358E+01  0.27226337660E+02  0.24817393739E+02  0.38008220851E+02  0.10566000000E+00 0.  1.
         22    1    1    0    0    0 -0.33482195514E+02 -0.17245633471E+01 -0.10057878009E+02  0.35002749109E+02  0.00000000000E+00 0. -1.
</event>
<event>
 5    1  0.1245610E-004  0.9118800E+02  0.7818608E-02  0.1130116E+00
         25   -1    0    0    0    0  0.00000000000E+00  0.00000000000E+00  0.99999998245E-14  0.12500000000E+03  0.12500000000E+03 0.  0.
        -13    1    3    3    0    0  0.17330680176E+02  0.36566896016E+02 -0.10359722658E+02  0.41771106967E+02  0.10566000000E+00 0. -1.
         23    2    1    0    0    0  0.16405705820E+02 -0.71527390167E+01  0.22340343927E+02  0.96374839290E+02  0.92025593302E+02 0.  0.
         13    1    3    3    0    0 -0.92497435619E+00 -0.43719635033E+02  0.32700066585E+02  0.54603732324E+02  0.10566000000E+00 0.  1.
         22    1    1    0    0    0 -0.16405705820E+02  0.71527390167E+01 -0.22340343927E+02  0.28625160710E+02  0.00000000000E+00 0.  1.
</event>
<event>
 5    1  0.1245610E-004  0.9118800E+02  0.7818608E-02  0.1130116E+00
         25   -1    0    0    0    0  0.00000000000E+00  0.00000000000E+00  0.99999998245E-14  0.12500000000E+03  0.12500000000E+03 0.  0.
        -13    1    3    3    0    0  0.10424634822E+02  0.28965871782E+02 -0.15113803988E+02  0.34294795149E+02  0.10566000000E+00 0. -1.
         23    2    1    0    0    0 -0.18091372122E+02 -0.19640167874E+02  0.10641597072E+02  0.96254956469E+02  0.91862610007E+02 0.  0.
         13    1    3    3    0    0 -0.28516006944E+02 -0.48606039656E+02  0.25755401060E+02  0.61960161320E+02  0.10566000000E+00 0.  1.
         22    1    1    0    0    0  0.18091372122E+02  0.19640167874E+02 -0.10641597072E+02  0.28745043531E+02  0.00000000000E+00 0.  1.
</event>
<event>
 5    1  0.1245610E-004  0.9118800E+02  0.7818608E-02  0.1130116E+00
         25   -1    0    0    0    0  0.00000000000E+00  0.00000000000E+00  0.99999998245E-14  0.12500000000E+03  0.12500000000E+03 0.  0.
        -13    1    3    3    0    0 -0.18216486064E+02  0.18437074049E+02  0.21156147454E+02  0.33456834925E+02  0.10566000000E+00 0.  1.
         23    2    1    0    0    0  0.10530147360E+02 -0.74716650174E+01 -0.26902233851E+02  0.95159759255E+02  0.90360056517E+02 0.  0.
         13    1    3    3    0    0  0.28746633424E+02 -0.25908739067E+02 -0.48058381305E+02  0.61702924331E+02  0.10566000000E+00 0. -1.
         22    1    1    0    0    0 -0.10530147360E+02  0.74716650174E+01  0.26902233851E+02  0.29840240745E+02  0.00000000000E+00 0. -1.
</event>
<event>
 5    1  0.1245610E-004  0.9118800E+02  0.7818608E-02  0.1130116E+00
         25   -1    0    0    0    0  0.00000000000E+00  0.00000000000E+00  0.99999998245E-14  0.12500000000E+03  0.12500000000E+03 0.  0.
        -13    1    3    3    0    0  0.21277150309E+02 -0.55144655383E+02 -0.13389090847E+02  0.60604695035E+02  0.10566000000E+00 0. -1.
         23    2    1    0    0    0  0.36254898905E+00 -0.29953402846E+02 -0.33139746873E+01  0.94861648817E+02  0.89946718697E+02 0.  0.
         13    1    3    3    0    0 -0.20914601320E+02  0.25191252537E+02  0.10075116159E+02  0.34256953782E+02  0.10566000000E+00 0.  1.
         22    1    1    0    0    0 -0.36254898905E+00  0.29953402846E+02  0.33139746873E+01  0.30138351183E+02  0.00000000000E+00 0. -1.
</event>
<event>
 5    1  0.1245610E-004  0.9118800E+02  0.7818608E-02  0.1130116E+00
         25   -1    0    0    0    0  0.00000000000E+00  0.00000000000E+00  0.99999998245E-14  0.12500000000E+03  0.12500000000E+03 0.  0.
        -13    1    3    3    0    0 -0.10405706284E+02 -0.28798801106E+02  0.22569861444E+02  0.38040234989E+02  0.10566000000E+00 0. -1.
         23    2    1    0    0    0 -0.18137358534E+02  0.21107046869E+02 -0.66521262864E+01  0.96386681663E+02  0.92041677602E+02 0.  0.
         13    1    3    3    0    0 -0.77316522494E+01  0.49905847975E+02 -0.29221987730E+02  0.58346446674E+02  0.10566000000E+00 0.  1.
         22    1    1    0    0    0  0.18137358534E+02 -0.21107046869E+02  0.66521262864E+01  0.28613318337E+02  0.00000000000E+00 0.  1.
</event>
<event>
 5    1  0.1245610E-004  0.9118800E+02  0.7818608E-02  0.1130116E+00
         25   -1    0    0    0    0  0.00000000000E+00  0.00000000000E+00  0.99999998245E-14  0.12500000000E+03  0.12500000000E+03 0.  0.
        -13    1    3    3    0    0 -0.17465287113E+02  0.21154285782E+02 -0.52234469447E+02  0.58999923927E+02  0.10566000000E+00 0. -1.
         23    2    1    0    0    0 -0.13028283417E+02 -0.47939897902E+01 -0.20662096334E+02  0.10010741613E+03  0.96963158116E+02 0.  0.
         13    1    3    3    0    0  0.44370036962E+01 -0.25948275573E+02  0.31572373113E+02  0.41107492200E+02  0.10566000000E+00 0.  1.
         22    1    1    0    0    0  0.13028283417E+02  0.47939897902E+01  0.20662096334E+02  0.24892583872E+02  0.00000000000E+00 0. -1.
</event>
<event>
 5    1  0.1245610E-004  0.9118800E+02  0.7818608E-02  0.1130116E+00
         25   -1    0    0    0    0  0.00000000000E+00  0.00000000000E+00  0.99999998245E-14  0.12500000000E+03  0.12500000000E+03 0.  0.
        -13    1    3    3    0    0  0.44479441161E+02  0.25935042542E+02  0.15551683696E+02  0.53785808049E+02  0.10566000000E+00 0.  1.
         23    2    1    0    0    0  0.20402319371E+01  0.22777830558E+02  0.17216281940E+02  0.96374967683E+02  0.92025767700E+02 0.  0.
         13    1    3    3    0    0 -0.42439209224E+02 -0.31572119835E+01  0.16645982434E+01  0.42589159635E+02  0.10566000000E+00 0. -1.
         22    1    1    0    0    0 -0.20402319371E+01 -0.22777830558E+02 -0.17216281940E+02  0.28625032317E+02  0.00000000000E+00 0.  1.
</event>
<event>
 5    1  0.1245610E-004  0.9118800E+02  0.7818608E-02  0.1130116E+00
         25   -1    0    0    0    0  0.00000000000E+00  0.00000000000E+00  0.99999998245E-14  0.12500000000E+03  0.12500000000E+03 0.  0.
        -13    1    3    3    0    0  0.20060496640E+02 -0.50776537004E+02  0.72492932604E+01  0.55074891306E+02  0.10566000000E+00 0. -1.
         23    2    1    0    0    0  0.14937447025E+02 -0.13140896621E+02  0.21559109980E+02  0.95663917938E+02  0.91054815822E+02 0.  0.
         13    1    3    3    0    0 -0.51230496149E+01  0.37635640382E+02  0.14309816720E+02  0.40589026632E+02  0.10566000000E+00 0.  1.
         22    1    1    0    0    0 -0.14937447025E+02  0.13140896621E+02 -0.21559109980E+02  0.29336082062E+02  0.00000000000E+00 0.  1.
</event>
<event>
 5    1  0.1245610E-004  0.9118800E+02  0.7818608E-02  0.1130116E+00
         25   -1    0    0    0    0  0.00000000000E+00  0.00000000000E+00  0.99999998245E-14  0.12500000000E+03  0.12500000000E+03 0.  0.
        -13    1    3    3    0    0  0.40799889186E+01  0.22343331986E+02 -0.37113211998E+02  0.43511750857E+02  0.10566000000E+00 0.  1.
         23    2    1    0    0    0 -0.18041711520E+02  0.20227982472E+02  0.10402546649E+02  0.95967473306E+02  0.91470587221E+02 0.  0.
         13    1    3    3    0    0 -0.22121700438E+02 -0.21153495146E+01  0.47515758647E+02  0.52455722449E+02  0.10566000000E+00 0. -1.
         22    1    1    0    0    0  0.18041711520E+02 -0.20227982472E+02 -0.10402546649E+02  0.29032526694E+02  0.00000000000E+00 0. -1.
</event>
<event>
 5    1  0.1245610E-004  0.9118800E+02  0.7818608E-02  0.1130116E+00
         25   -1    0    0    0    0  0.00000000000E+00  0.00000000000E+00  0.99999998245E-14  0.12500000000E+03  0.12500000000E+03 0.  0.
        -13    1    3    3    0    0 -0.29940124404E+02  0.74949544348E+01 -0.30265445109E+02  0.43227233580E+02  0.10566000000E+00 0.  1.
         23    2    1    0    0    0  0.45432434869E+01 -0.26558160470E+02 -0.61331911778E+01  0.97366813738E+02  0.93363287402E+02 0.  0.
         13    1    3    3    0    0  0.34483367891E+02 -0.34053114905E+02  0.24132253931E+02  0.54139580158E+02  0.10566000000E+00 0. -1.
         22    1    1    0    0    0 -0.45432434869E+01  0.26558160470E+02  0.61331911778E+01  0.27633186262E+02  0.00000000000E+00 0. -1.
</event>
<event>
 5    1  0.1245610E-004  0.9118800E+02  0.7818608E-02  0.1130116E+00
         25   -1    0    0    0    0  0.00000000000E+00  0.00000000000E+00  0.99999998245E-14  0.12500000000E+03  0.12500000000E+03 0.  0.
        -13    1    3    3    0    0 -0.25359949429E+02  0.22444497427E+02  0.10974336164E+02  0.35599574690E+02  0.10566000000E+00 0.  1.
         23    2    1    0    0    0  0.27636882412E+01 -0.19998868153E+02 -0.21117221862E+02  0.95784768369E+02  0.91220568361E+02 0.  0.
         13    1    3    3    0    0  0.28123637670E+02 -0.42443365581E+02 -0.32091558026E+02  0.60185193679E+02  0.10566000000E+00 0. -1.
         22    1    1    0    0    0 -0.27636882412E+01  0.19998868153E+02  0.21117221862E+02  0.29215231631E+02  0.00000000000E+00 0. -1.
</event>
<event>
 5    1  0.1245610E-004  0.9118800E+02  0.7818608E-02  0.1130116E+00
         25   -1    0    0    0    0  0.00000000000E+00  0.00000000000E+00  0.99999998245E-14  0.12500000000E+03  0.12500000000E+03 0.  0.
        -13    1    3    3    0    0 -0.35394069679E+02  0.15743404912E+01  0.15351311262E+02  0.38612078912E+02  0.10566000000E+00 0.  1.
         23    2    1    0    0    0  0.65899572046E+01 -0.30409176977E+02 -0.10092476156E+01  0.93868598472E+02  0.88555912383E+02 0.  0.
         13    1    3    3    0    0  0.41984026884E+02 -0.31983517468E+02 -0.16360558878E+02  0.55256519559E+02  0.10566000000E+00 0. -1.
         22    1    1    0    0    0 -0.65899572046E+01  0.30409176977E+02  0.10092476156E+01  0.31131401528E+02  0.00000000000E+00 0.  1.
</event>
<event>
 5    1  0.1245610E-004  0.9118800E+02  0.7818608E-02  0.1130116E+00
         25   -1    0    0    0    0  0.00000000000E+00  0.00000000000E+00  0.99999998245E-14  0.12500000000E+03  0.12500000000E+03 0.  0.
        -13    1    3    3    0    0  0.96688510486E+01  0.23393790826E+02 -0.34704042312E+02  0.42955067764E+02  0.10566000000E+00 0.  1.
         23    2    1    0    0    0  0.28914252523E+02 -0.35578760381E+00  0.75565684609E+01  0.95112505781E+02  0.90294664544E+02 0.  0.
         13    1    3    3    0    0  0.19245401475E+02 -0.23749578430E+02  0.42260610773E+02  0.52157438016E+02  0.10566000000E+00 0. -1.
         22    1    1    0    0    0 -0.28914252523E+02  0.35578760381E+00 -0.75565684609E+01  0.29887494219E+02  0.00000000000E+00 0. -1.
</event>
<event>
 5    1  0.1245610E-004  0.9118800E+02  0.7818608E-02  0.1130116E+00
         25   -1    0    0    0    0  0.00000000000E+00  0.00000000000E+00  0.99999998245E-14  0.12500000000E+03  0.12500000000E+03 0.  0.
        -13    1    3    3    0    0  0.17410468297E+02  0.19611095970E+02  0.21368798169E+02  0.33828334140E+02  0.10566000000E+00 0.  1.
         23    2    1    0    0    0 -0.61368863363E+01 -0.21596332446E+02 -0.18574857245E+02  0.95860880749E+02  0.91324805980E+02 0.  0.
         13    1    3    3    0    0 -0.23547354633E+02 -0.41207428417E+02 -0.39943655414E+02  0.62032546609E+02  0.10566000000E+00 0. -1.
         22    1    1    0    0    0  0.61368863363E+01  0.21596332446E+02  0.18574857245E+02  0.29139119251E+02  0.00000000000E+00 0. -1.
</event>
<event>
 5    1  0.1245610E-004  0.9118800E+02  0.7818608E-02  0.1130116E+00
         25   -1    0    0    0    0  0.00000000000E+00  0.00000000000E+00  0.99999998245E-14  0.12500000000E+03  0.12500000000E+03 0.  0.
        -13    1    3    3    0    0 -0.57366653780E+02  0.76573536682E+01  0.18580316920E+02  0.60784927178E+02  0.10566000000E+00 0. -1.
         23    2    1    0    0    0 -0.26914424681E+02  0.13560939795E+02  0.59316133965E+01  0.94284053303E+02  0.89140413538E+02 0.  0.
         13    1    3    3    0    0  0.30452229099E+02  0.59035861263E+01 -0.12648703524E+02  0.33499126125E+02  0.10566000000E+00 0.  1.
         22    1    1    0    0    0  0.26914424681E+02 -0.13560939795E+02 -0.59316133965E+01  0.30715946697E+02  0.00000000000E+00 0. -1.
</event>
<event>
 5    1  0.1245610E-004  0.9118800E+02  0.7818608E-02  0.1130116E+00
         25   -1    0    0    0    0  0.00000000000E+00  0.00000000000E+00  0.99999998245E-14  0.12500000000E+03  0.12500000000E+03 0.  0.
        -13    1    3    3    0    0  0.20225278885E+01 -0.18751049945E+02  0.40846832117E+02  0.44990747395E+02  0.10566000000E+00 0. -1.
         23    2    1    0    0    0  0.20165097268E+02  0.17907497275E+02  0.99374634814E+01  0.96258691976E+02  0.91867692874E+02 0.  0.
         13    1    3    3    0    0  0.18142569379E+02  0.36658547221E+02 -0.30909368636E+02  0.51267944581E+02  0.10566000000E+00 0.  1.
         22    1    1    0    0    0 -0.20165097268E+02 -0.17907497275E+02 -0.99374634814E+01  0.28741308024E+02  0.00000000000E+00 0.  1.
</event>
<event>
 5    1  0.1245610E-004  0.9118800E+02  0.7818608E-02  0.1130116E+00
         25   -1    0    0    0    0  0.00000000000E+00  0.00000000000E+00  0.99999998245E-14  0.12500000000E+03  0.12500000000E+03 0.  0.
        -13    1    3    3    0    0  0.53666070483E+01  0.39709004974E+02 -0.34479255994E+02  0.52862423376E+02  0.10566000000E+00 0.  1.
         23    2    1    0    0    0 -0.13919872888E+02  0.23720868158E+00 -0.22741955627E+02  0.98335122822E+02  0.94650835736E+02 0.  0.
         13    1    3    3    0    0 -0.19286479937E+02 -0.39471796293E+02  0.11737300367E+02  0.45472699446E+02  0.10566000000E+00 0. -1.
         22    1    1    0    0    0  0.13919872888E+02 -0.23720868158E+00  0.22741955627E+02  0.26664877178E+02  0.00000000000E+00 0.  1.
</event>
<event>
 5    1  0.1245610E-004  0.9118800E+02  0.7818608E-02  0.1130116E+00
         25   -1    0    0    0    0  0.00000000000E+00  0.00000000000E+00  0.99999998245E-14  0.12500000000E+03  0.12500000000E+03 0.  0.
        -13    1    3    3    0    0  0.23210931625E+02 -0.24462273386E+02 -0.81182128746E+01  0.34685252059E+02  0.10566000000E+00 0.  1.
         23    2    1    0    0    0 -0.10999918583E+02  0.20754638545E+02  0.16288369925E+02  0.96415664697E+02  0.92081030479E+02 0.  0.
         13    1    3    3    0    0 -0.34210850207E+02  0.45216911930E+02  0.24406582799E+02  0.61730412637E+02  0.10566000000E+00 0. -1.
         22    1    1    0    0    0  0.10999918583E+02 -0.20754638545E+02 -0.16288369925E+02  0.28584335303E+02  0.00000000000E+00 0. -1.
</event>
<event>
 5    1  0.1245610E-004  0.9118800E+02  0.7818608E-02  0.1130116E+00
         25   -1    0    0    0    0  0.00000000000E+00  0.00000000000E+00  0.99999998245E-14  0.12500000000E+03  0.12500000000E+03 0.  0.
        -13    1    3    3    0    0  0.25526578985E+02 -0.38550466334E+01 -0.78067998798E+01  0.26970815850E+02  0.10566000000E+00 0. -1.
         23    2    1    0    0    0 -0.35142282287E+02 -0.35451668274E+01 -0.11770054121E+02  0.87769872600E+02  0.79482502163E+02 0.  0.
         13    1    3    3    0    0 -0.60668861272E+02  0.30987980599E+00 -0.39632542414E+01  0.60799056750E+02  0.10566000000E+00 0.  1.
         22    1    1    0    0    0  0.35142282287E+02  0.35451668274E+01  0.11770054121E+02  0.37230127400E+02  0.00000000000E+00 0.  1.
</event>
<event>
 5    1  0.1245610E-004  0.9118800E+02  0.7818608E-02  0.1130116E+00
         25   -1    0    0    0    0  0.00000000000E+00  0.00000000000E+00  0.99999998245E-14  0.12500000000E+03  0.12500000000E+03 0.  0.
        -13    1    3    3    0    0  0.46315058060E+02 -0.99245732668E+01 -0.23309504322E+02  0.52791343167E+02  0.10566000000E+00 0.  1.
         23    2    1    0    0    0  0.13730328419E+02 -0.27250487439E+02 -0.46886049114E+01  0.94127779474E+02  0.88921003529E+02 0.  0.
         13    1    3    3    0    0 -0.32584729641E+02 -0.17325914173E+02  0.18620899410E+02  0.41336436307E+02  0.10566000000E+00 0. -1.
         22    1    1    0    0    0 -0.13730328419E+02  0.27250487439E+02  0.46886049114E+01  0.30872220526E+02  0.00000000000E+00 0. -1.
</event>
<event>
 5    1  0.1245610E-004  0.9118800E+02  0.7818608E-02  0.1130116E+00
         25   -1    0    0    0    0  0.00000000000E+00  0.00000000000E+00  0.99999998245E-14  0.12500000000E+03  0.12500000000E+03 0.  0.
        -13    1    3    3    0    0  0.28746530713E+02 -0.49633948418E+02 -0.13184831448E+02  0.58853570902E+02  0.10566000000E+00 0. -1.
         23    2    1    0    0    0  0.78377787443E+00 -0.26727710118E+02 -0.13595119250E+02  0.95003132441E+02  0.90143125696E+02 0.  0.
         13    1    3    3    0    0 -0.27962752838E+02  0.22906238300E+02 -0.41028780163E+00  0.36149561539E+02  0.10566000000E+00 0.  1.
         22    1    1    0    0    0 -0.78377787443E+00  0.26727710118E+02  0.13595119250E+02  0.29996867559E+02  0.00000000000E+00 0. -1.
</event>
<event>
 5    1  0.1245610E-004  0.9118800E+02  0.7818608E-02  0.1130116E+00
         25   -1    0    0    0    0  0.00000000000E+00  0.00000000000E+00  0.99999998245E-14  0.12500000000E+03  0.12500000000E+03 0.  0.
        -13    1    3    3    0    0  0.37540270150E+02  0.24508279617E+02  0.18262016101E+02  0.48409090560E+02  0.10566000000E+00 0. -1.
         23    2    1    0    0    0  0.32908072159E+01 -0.48733540200E+01  0.29505454683E+02  0.94914275020E+02  0.90019824233E+02 0.  0.
         13    1    3    3    0    0 -0.34249462934E+02 -0.29381633637E+02  0.11243438581E+02  0.46505184460E+02  0.10566000000E+00 0.  1.
         22    1    1    0    0    0 -0.32908072159E+01  0.48733540200E+01 -0.29505454683E+02  0.30085724980E+02  0.00000000000E+00 0.  1.
</event>
<event>
 5    1  0.1245610E-004  0.9118800E+02  0.7818608E-02  0.1130116E+00
         25   -1    0    0    0    0  0.00000000000E+00  0.00000000000E+00  0.99999998245E-14  0.12500000000E+03  0.12500000000E+03 0.  0.
        -13    1    3    3    0    0  0.31894931223E+02  0.36572401078E+02  0.27034137470E+02  0.55548923582E+02  0.10566000000E+00 0.  1.
         23    2    1    0    0    0  0.59689511603E+01  0.51886069970E+01  0.27629444415E+02  0.96260893904E+02  0.91870688884E+02 0.  0.
         13    1    3    3    0    0 -0.25925980062E+02 -0.31383794081E+02  0.59530694431E+00  0.40711970322E+02  0.10566000000E+00 0. -1.
         22    1    1    0    0    0 -0.59689511603E+01 -0.51886069970E+01 -0.27629444415E+02  0.28739106096E+02  0.00000000000E+00 0.  1.
</event>
<event>
 5    1  0.1245610E-004  0.9118800E+02  0.7818608E-02  0.1130116E+00
         25   -1    0    0    0    0  0.00000000000E+00  0.00000000000E+00  0.99999998245E-14  0.12500000000E+03  0.12500000000E+03 0.  0.
        -13    1    3    3    0    0  0.34945389672E+02  0.76190091112E+01 -0.40641292518E+02  0.54138298650E+02  0.10566000000E+00 0. -1.
         23    2    1    0    0    0  0.29588777308E+02 -0.16120634481E+02 -0.24438486779E+02  0.83375365050E+02  0.72241548035E+02 0.  0.
         13    1    3    3    0    0 -0.53566123637E+01 -0.23739643592E+02  0.16202805738E+02  0.29237066400E+02  0.10566000000E+00 0.  1.
         22    1    1    0    0    0 -0.29588777308E+02  0.16120634481E+02  0.24438486779E+02  0.41624634950E+02  0.00000000000E+00 0. -1.
</event>
<event>
 5    1  0.1245610E-004  0.9118800E+02  0.7818608E-02  0.1130116E+00
         25   -1    0    0    0    0  0.00000000000E+00  0.00000000000E+00  0.99999998245E-14  0.12500000000E+03  0.12500000000E+03 0.  0.
        -13    1    3    3    0    0  0.35170714620E+01 -0.33647231789E+02 -0.41534153199E+02  0.53568675966E+02  0.10566000000E+00 0.  1.
         23    2    1    0    0    0  0.21329186469E+00  0.60683524986E+01 -0.29036743296E+02  0.95335157902E+02  0.90602370142E+02 0.  0.
         13    1    3    3    0    0 -0.33037795974E+01  0.39715584288E+02  0.12497409903E+02  0.41766481936E+02  0.10566000000E+00 0. -1.
         22    1    1    0    0    0 -0.21329186469E+00 -0.60683524986E+01  0.29036743296E+02  0.29664842098E+02  0.00000000000E+00 0. -1.
</event>
<event>
 5    1  0.1245610E-004  0.9118800E+02  0.7818608E-02  0.1130116E+00
         25   -1    0    0    0    0  0.00000000000E+00  0.00000000000E+00  0.99999998245E-14  0.12500000000E+03  0.12500000000E+03 0.  0.
        -13    1    3    3    0    0  0.18358730251E+02  0.38485536110E+02  0.68477613343E+01  0.43186600531E+02  0.10566000000E+00 0.  1.
         23    2    1    0    0    0 -0.16664762321E+02 -0.65284683804E+01  0.16051350052E+02  0.10095876374E+03  0.98054530411E+02 0.  0.
         13    1    3    3    0    0 -0.35023492572E+02 -0.45014004490E+02  0.92035887174E+01  0.57772163206E+02  0.10566000000E+00 0. -1.
         22    1    1    0    0    0  0.16664762321E+02  0.65284683804E+01 -0.16051350052E+02  0.24041236264E+02  0.00000000000E+00 0. -1.
</event>
<event>
 5    1  0.1245610E-004  0.9118800E+02  0.7818608E-02  0.1130116E+00
         25   -1    0    0    0    0  0.00000000000E+00  0.00000000000E+00  0.99999998245E-14  0.12500000000E+03  0.12500000000E+03 0.  0.
        -13    1    3    3    0    0 -0.18699865149E+02  0.36669294186E+02 -0.20725684506E+02  0.46085651292E+02  0.10566000000E+00 0. -1.
         23    2    1    0    0    0  0.16109809569E+02  0.25898786873E+02  0.90969190710E+01  0.93171913937E+02  0.87566994263E+02 0.  0.
         13    1    3    3    0    0  0.34809674718E+02 -0.10770507314E+02  0.29822603577E+02  0.47086262645E+02  0.10566000000E+00 0.  1.
         22    1    1    0    0    0 -0.16109809569E+02 -0.25898786873E+02 -0.90969190710E+01  0.31828086063E+02  0.00000000000E+00 0. -1.
</event>
<event>
 5    1  0.1245610E-004  0.9118800E+02  0.7818608E-02  0.1130116E+00
         25   -1    0    0    0    0  0.00000000000E+00  0.00000000000E+00  0.99999998245E-14  0.12500000000E+03  0.12500000000E+03 0.  0.
        -13    1    3    3    0    0  0.43889241974E+02  0.79244493332E+01 -0.37339423222E+01  0.44755066167E+02  0.10566000000E+00 0. -1.
         23    2    1    0    0    0  0.37503713975E+01 -0.17674453525E+02  0.20081404586E+02  0.97986773551E+02  0.94189667097E+02 0.  0.
         13    1    3    3    0    0 -0.40138870576E+02 -0.25598902858E+02  0.23815346908E+02  0.53231707385E+02  0.10566000000E+00 0.  1.
         22    1    1    0    0    0 -0.37503713975E+01  0.17674453525E+02 -0.20081404586E+02  0.27013226449E+02  0.00000000000E+00 0.  1.
</event>
<event>
 5    1  0.1245610E-004  0.9118800E+02  0.7818608E-02  0.1130116E+00
         25   -1    0    0    0    0  0.00000000000E+00  0.00000000000E+00  0.99999998245E-14  0.12500000000E+03  0.12500000000E+03 0.  0.
        -13    1    3    3    0    0  0.52949855201E+02 -0.13981645047E+02  0.87902415296E+01  0.55465782914E+02  0.10566000000E+00 0.  1.
         23    2    1    0    0    0  0.21150732515E+02 -0.12373785628E+02 -0.15927698178E+02  0.95774059024E+02  0.91205892112E+02 0.  0.
         13    1    3    3    0    0 -0.31799122687E+02  0.16078594192E+01 -0.24717939708E+02  0.40308276110E+02  0.10566000000E+00 0. -1.
         22    1    1    0    0    0 -0.21150732515E+02  0.12373785628E+02  0.15927698178E+02  0.29225940976E+02  0.00000000000E+00 0.  1.
</event>
<event>
 5    1  0.1245610E-004  0.9118800E+02  0.7818608E-02  0.1130116E+00
         25   -1    0    0    0    0  0.00000000000E+00  0.00000000000E+00  0.99999998245E-14  0.12500000000E+03  0.12500000000E+03 0.  0.
        -13    1    3    3    0    0  0.16602397457E+02  0.27281654719E+02  0.98277612518E+01  0.33414433121E+02  0.10566000000E+00 0.  1.
         23    2    1    0    0    0  0.72724046224E+01 -0.29957398167E+02 -0.61398809441E+01  0.93567028268E+02  0.88129206662E+02 0.  0.
         13    1    3    3    0    0 -0.93299928342E+01 -0.57239052886E+02 -0.15967642196E+02  0.60152595147E+02  0.10566000000E+00 0. -1.
         22    1    1    0    0    0 -0.72724046224E+01  0.29957398167E+02  0.61398809441E+01  0.31432971732E+02  0.00000000000E+00 0. -1.
</event>
<event>
 5    1  0.1245610E-004  0.9118800E+02  0.7818608E-02  0.1130116E+00
         25   -1    0    0    0    0  0.00000000000E+00  0.00000000000E+00  0.99999998245E-14  0.12500000000E+03  0.12500000000E+03 0.  0.
        -13    1    3    3    0    0 -0.32262866884E+02 -0.21474354964E+01 -0.14430586516E+02  0.35408431906E+02  0.10566000000E+00 0.  1.
         23    2    1    0    0    0  0.14229232726E+02 -0.85551944361E+01 -0.34701733942E+02  0.86530885708E+02  0.77509492496E+02 0.  0.
         13    1    3    3    0    0  0.46492099610E+02 -0.64077589397E+01 -0.20271147426E+02  0.51122453802E+02  0.10566000000E+00 0. -1.
         22    1    1    0    0    0 -0.14229232726E+02  0.85551944361E+01  0.34701733942E+02  0.38469114292E+02  0.00000000000E+00 0.  1.
</event>
<event>
 5    1  0.1245610E-004  0.9118800E+02  0.7818608E-02  0.1130116E+00
         25   -1    0    0    0    0  0.00000000000E+00  0.00000000000E+00  0.99999998245E-14  0.12500000000E+03  0.12500000000E+03 0.  0.
        -13    1    3    3    0    0 -0.37081219636E+02 -0.43076230161E+01  0.14094301366E+02  0.39902793897E+02  0.10566000000E+00 0.  1.
         23    2    1    0    0    0  0.71618876050E-01  0.28332836915E+02 -0.10051424618E+02  0.94936967655E+02  0.90051329328E+02 0.  0.
         13    1    3    3    0    0  0.37152838512E+02  0.32640459931E+02 -0.24145725984E+02  0.55034173759E+02  0.10566000000E+00 0. -1.
         22    1    1    0    0    0 -0.71618876050E-01 -0.28332836915E+02  0.10051424618E+02  0.30063032345E+02  0.00000000000E+00 0.  1.
</event>
<event>
 5    1  0.1245610E-004  0.9118800E+02  0.7818608E-02  0.1130116E+00
         25   -1    0    0    0    0  0.00000000000E+00  0.00000000000E+00  0.99999998245E-14  0.12500000000E+03  0.12500000000E+03 0.  0.
        -13    1    3    3    0    0  0.34096584583E+02 -0.37607516323E+02 -0.25419632372E+02  0.56772099117E+02  0.10566000000E+00 0.  1.
         23    2    1    0    0    0  0.39756694170E+01 -0.12604878622E+02 -0.25901603386E+02  0.95921107822E+02  0.91407204067E+02 0.  0.
         13    1    3    3    0    0 -0.30120915166E+02  0.25002637701E+02 -0.48197101375E+00  0.39149008705E+02  0.10566000000E+00 0. -1.
         22    1    1    0    0    0 -0.39756694170E+01  0.12604878622E+02  0.25901603386E+02  0.29078892178E+02  0.00000000000E+00 0.  1.
</event>
<event>
 5    1  0.1245610E-004  0.9118800E+02  0.7818608E-02  0.1130116E+00
         25   -1    0    0    0    0  0.00000000000E+00  0.00000000000E+00  0.99999998245E-14  0.12500000000E+03  0.12500000000E+03 0.  0.
        -13    1    3    3    0    0  0.13705911280E+02  0.29613236053E+02 -0.18336767730E+02  0.37430521882E+02  0.10566000000E+00 0.  1.
         23    2    1    0    0    0 -0.14896586128E+02 -0.20458014462E+02 -0.15830006859E+02  0.95149912041E+02  0.90346433301E+02 0.  0.
         13    1    3    3    0    0 -0.28602497408E+02 -0.50071250515E+02  0.25067608712E+01  0.57719390158E+02  0.10566000000E+00 0. -1.
         22    1    1    0    0    0  0.14896586128E+02  0.20458014462E+02  0.15830006859E+02  0.29850087959E+02  0.00000000000E+00 0. -1.
</event>
<event>
 5    1  0.1245610E-004  0.9118800E+02  0.7818608E-02  0.1130116E+00
         25   -1    0    0    0    0  0.00000000000E+00  0.00000000000E+00  0.99999998245E-14  0.12500000000E+03  0.12500000000E+03 0.  0.
        -13    1    3    3    0    0  0.24064810501E+02 -0.25565835699E+02 -0.18879483467E+02  0.39864434267E+02  0.10566000000E+00 0.  1.
         23    2    1    0    0    0 -0.20178939647E+02  0.12607983167E+02 -0.10848437945E+02  0.98849675898E+02  0.95327954842E+02 0.  0.
         13    1    3    3    0    0 -0.44243750148E+02  0.38173818866E+02  0.80310455225E+01  0.58985241630E+02  0.10566000000E+00 0. -1.
         22    1    1    0    0    0  0.20178939647E+02 -0.12607983167E+02  0.10848437945E+02  0.26150324102E+02  0.00000000000E+00 0. -1.
</event>
<event>
 5    1  0.1245610E-004  0.9118800E+02  0.7818608E-02  0.1130116E+00
         25   -1    0    0    0    0  0.00000000000E+00  0.00000000000E+00  0.99999998245E-14  0.12500000000E+03  0.12500000000E+03 0.  0.
        -13    1    3    3    0    0 -0.13188074568E+02  0.32946625998E+02 -0.95740783250E+01  0.36757034909E+02  0.10566000000E+00 0. -1.
         23    2    1    0    0    0  0.74947597298E+01 -0.21539390985E+02 -0.18394366853E+02  0.95700349501E+02  0.91104815324E+02 0.  0.
         13    1    3    3    0    0  0.20682834298E+02 -0.54486016984E+02 -0.88202885280E+01  0.58943314592E+02  0.10566000000E+00 0.  1.
         22    1    1    0    0    0 -0.74947597298E+01  0.21539390985E+02  0.18394366853E+02  0.29299650499E+02  0.00000000000E+00 0.  1.
</event>
<event>
 5    1  0.1245610E-004  0.9118800E+02  0.7818608E-02  0.1130116E+00
         25   -1    0    0    0    0  0.00000000000E+00  0.00000000000E+00  0.99999998245E-14  0.12500000000E+03  0.12500000000E+03 0.  0.
        -13    1    3    3    0    0 -0.29260583367E+02  0.16386179520E+02  0.33157154957E+02  0.47160329803E+02  0.10566000000E+00 0.  1.
         23    2    1    0    0    0 -0.21917246053E+02  0.17958763961E+02 -0.12929026274E+02  0.93854493134E+02  0.88535999929E+02 0.  0.
         13    1    3    3    0    0  0.73433373138E+01  0.15725844406E+01 -0.46086181231E+02  0.46694163331E+02  0.10566000000E+00 0. -1.
         22    1    1    0    0    0  0.21917246053E+02 -0.17958763961E+02  0.12929026274E+02  0.31145506866E+02  0.00000000000E+00 0.  1.
</event>
<event>
 5    1  0.1245610E-004  0.9118800E+02  0.7818608E-02  0.1130116E+00
         25   -1    0    0    0    0  0.00000000000E+00  0.00000000000E+00  0.99999998245E-14  0.12500000000E+03  0.12500000000E+03 0.  0.
        -13    1    3    3    0    0 -0.23609861690E+02 -0.30439660083E+02 -0.12061471582E+02  0.40366926261E+02  0.10566000000E+00 0.  1.
         23    2    1    0    0    0  0.19835739547E+02  0.71536518896E+00 -0.22667402471E+02  0.94870621554E+02  0.89959187349E+02 0.  0.
         13    1    3    3    0    0  0.43445601237E+02  0.31155025272E+02 -0.10605930889E+02  0.54503695293E+02  0.10566000000E+00 0. -1.
         22    1    1    0    0    0 -0.19835739547E+02 -0.71536518896E+00  0.22667402471E+02  0.30129378446E+02  0.00000000000E+00 0. -1.
</event>
<event>
 5    1  0.1245610E-004  0.9118800E+02  0.7818608E-02  0.1130116E+00
         25   -1    0    0    0    0  0.00000000000E+00  0.00000000000E+00  0.99999998245E-14  0.12500000000E+03  0.12500000000E+03 0.  0.
        -13    1    3    3    0    0  0.18445415724E+02  0.80855839092E+01 -0.20669252893E+02  0.28858953681E+02  0.10566000000E+00 0.  1.
         23    2    1    0    0    0  0.72291898876E+01  0.24628986730E+02  0.31289350958E+02  0.84529372909E+02  0.74211476385E+02 0.  0.
         13    1    3    3    0    0 -0.11216225836E+02  0.16543402821E+02  0.51958603851E+02  0.55670419228E+02  0.10566000000E+00 0. -1.
         22    1    1    0    0    0 -0.72291898876E+01 -0.24628986730E+02 -0.31289350958E+02  0.40470627091E+02  0.00000000000E+00 0. -1.
</event>
<event>
 5    1  0.1245610E-004  0.9118800E+02  0.7818608E-02  0.1130116E+00
         25   -1    0    0    0    0  0.00000000000E+00  0.00000000000E+00  0.99999998245E-14  0.12500000000E+03  0.12500000000E+03 0.  0.
        -13    1    3    3    0    0 -0.37393819082E+02  0.44614883616E+02  0.16896359147E+02  0.60615869722E+02  0.10566000000E+00 0.  1.
         23    2    1    0    0    0 -0.17337811943E+02  0.15388656948E+02  0.17316304667E+02  0.96064470060E+02  0.91603043153E+02 0.  0.
         13    1    3    3    0    0  0.20056007140E+02 -0.29226226668E+02  0.41994551977E+00  0.35448600338E+02  0.10566000000E+00 0. -1.
         22    1    1    0    0    0  0.17337811943E+02 -0.15388656948E+02 -0.17316304667E+02  0.28935529940E+02  0.00000000000E+00 0.  1.
</event>
<event>
 5    1  0.1245610E-004  0.9118800E+02  0.7818608E-02  0.1130116E+00
         25   -1    0    0    0    0  0.00000000000E+00  0.00000000000E+00  0.99999998245E-14  0.12500000000E+03  0.12500000000E+03 0.  0.
        -13    1    3    3    0    0 -0.27114778162E+02  0.42252014761E+02  0.19842196348E+02  0.53983033132E+02  0.10566000000E+00 0.  1.
         23    2    1    0    0    0  0.17797703592E+01  0.14991586352E+02  0.26731029015E+02  0.94300437201E+02  0.89163385424E+02 0.  0.
         13    1    3    3    0    0  0.28894548522E+02 -0.27260428409E+02  0.68888326673E+01  0.40317404069E+02  0.10566000000E+00 0. -1.
         22    1    1    0    0    0 -0.17797703592E+01 -0.14991586352E+02 -0.26731029015E+02  0.30699562799E+02  0.00000000000E+00 0.  1.
</event>
<event>
 5    1  0.1245610E-004  0.9118800E+02  0.7818608E-02  0.1130116E+00
         25   -1    0    0    0    0  0.00000000000E+00  0.00000000000E+00  0.99999998245E-14  0.12500000000E+03  0.12500000000E+03 0.  0.
        -13    1    3    3    0    0 -0.26119289070E+02 -0.23236279010E+02  0.99797607069E+01  0.36355862134E+02  0.10566000000E+00 0.  1.
         23    2    1    0    0    0  0.21852118008E+02  0.12819689907E+02  0.13160199605E+02  0.96450913072E+02  0.92128867724E+02 0.  0.
         13    1    3    3    0    0  0.47971407078E+02  0.36055968917E+02  0.31804388986E+01  0.60095050938E+02  0.10566000000E+00 0. -1.
         22    1    1    0    0    0 -0.21852118008E+02 -0.12819689907E+02 -0.13160199605E+02  0.28549086928E+02  0.00000000000E+00 0. -1.
</event>
<event>
 5    1  0.1245610E-004  0.9118800E+02  0.7818608E-02  0.1130116E+00
         25   -1    0    0    0    0  0.00000000000E+00  0.00000000000E+00  0.99999998245E-14  0.12500000000E+03  0.12500000000E+03 0.  0.
        -13    1    3    3    0    0  0.46489421522E+01  0.26758436512E+02  0.28950467818E+02  0.39695936046E+02  0.10566000000E+00 0.  1.
         23    2    1    0    0    0  0.10537294538E+02 -0.25245038325E+02  0.52647459739E+01  0.97142073186E+02  0.93061905721E+02 0.  0.
         13    1    3    3    0    0  0.58883523860E+01 -0.52003474837E+02 -0.23685721844E+02  0.57446137139E+02  0.10566000000E+00 0. -1.
         22    1    1    0    0    0 -0.10537294538E+02  0.25245038325E+02 -0.52647459739E+01  0.27857926814E+02  0.00000000000E+00 0. -1.
</event>
<event>
 5    1  0.1245610E-004  0.9118800E+02  0.7818608E-02  0.1130116E+00
         25   -1    0    0    0    0  0.00000000000E+00  0.00000000000E+00  0.99999998245E-14  0.12500000000E+03  0.12500000000E+03 0.  0.
        -13    1    3    3    0    0 -0.25975098591E+02  0.31877223098E+02 -0.40572803872E+02  0.57767003361E+02  0.10566000000E+00 0.  1.
         23    2    1    0    0    0  0.61081822614E+01  0.15893711413E+02 -0.18474059423E+02  0.99876090580E+02  0.96664484920E+02 0.  0.
         13    1    3    3    0    0  0.32083280853E+02 -0.15983511685E+02  0.22098744450E+02  0.42109087218E+02  0.10566000000E+00 0. -1.
         22    1    1    0    0    0 -0.61081822614E+01 -0.15893711413E+02  0.18474059423E+02  0.25123909420E+02  0.00000000000E+00 0.  1.
</event>
<event>
 5    1  0.1245610E-004  0.9118800E+02  0.7818608E-02  0.1130116E+00
         25   -1    0    0    0    0  0.00000000000E+00  0.00000000000E+00  0.99999998245E-14  0.12500000000E+03  0.12500000000E+03 0.  0.
        -13    1    3    3    0    0  0.32809850610E+02  0.44400210045E+01 -0.40792031138E+01  0.33359423641E+02  0.10566000000E+00 0. -1.
         23    2    1    0    0    0 -0.11751587570E+01 -0.11397633395E+02  0.35391548462E+02  0.87799882424E+02  0.79529683804E+02 0.  0.
         13    1    3    3    0    0 -0.33985009367E+02 -0.15837654399E+02  0.39470751576E+02  0.54440458783E+02  0.10566000000E+00 0.  1.
         22    1    1    0    0    0  0.11751587570E+01  0.11397633395E+02 -0.35391548462E+02  0.37200117576E+02  0.00000000000E+00 0.  1.
</event>
<event>
 5    1  0.1245610E-004  0.9118800E+02  0.7818608E-02  0.1130116E+00
         25   -1    0    0    0    0  0.00000000000E+00  0.00000000000E+00  0.99999998245E-14  0.12500000000E+03  0.12500000000E+03 0.  0.
        -13    1    3    3    0    0  0.19667487489E+02  0.12131817436E+02 -0.54759723959E+02  0.59435928449E+02  0.10566000000E+00 0. -1.
         23    2    1    0    0    0  0.16141445303E+02 -0.62070549468E+01 -0.24059598093E+02  0.95369980628E+02  0.90650400755E+02 0.  0.
         13    1    3    3    0    0 -0.35260421855E+01 -0.18338872383E+02  0.30700125866E+02  0.35934052179E+02  0.10566000000E+00 0.  1.
         22    1    1    0    0    0 -0.16141445303E+02  0.62070549468E+01  0.24059598093E+02  0.29630019372E+02  0.00000000000E+00 0. -1.
</event>
<event>
 5    1  0.1245610E-004  0.9118800E+02  0.7818608E-02  0.1130116E+00
         25   -1    0    0    0    0  0.00000000000E+00  0.00000000000E+00  0.99999998245E-14  0.12500000000E+03  0.12500000000E+03 0.  0.
        -13    1    3    3    0    0  0.39630630053E+02 -0.19101941547E+02  0.35030692129E+02  0.56237279133E+02  0.10566000000E+00 0. -1.
         23    2    1    0    0    0  0.28494345865E+02  0.63131819172E+01  0.85628042098E+01  0.94584450883E+02  0.89560665030E+02 0.  0.
         13    1    3    3    0    0 -0.11136284188E+02  0.25415123464E+02 -0.26467887919E+02  0.38347171749E+02  0.10566000000E+00 0.  1.
         22    1    1    0    0    0 -0.28494345865E+02 -0.63131819172E+01 -0.85628042098E+01  0.30415549117E+02  0.00000000000E+00 0. -1.
</event>
<event>
 5    1  0.1245610E-004  0.9118800E+02  0.7818608E-02  0.1130116E+00
         25   -1    0    0    0    0  0.00000000000E+00  0.00000000000E+00  0.99999998245E-14  0.12500000000E+03  0.12500000000E+03 0.  0.
        -13    1    3    3    0    0  0.19451690018E+02 -0.10697005958E+01 -0.38684617719E+02  0.43313084813E+02  0.10566000000E+00 0.  1.
         23    2    1    0    0    0  0.19327493693E+02  0.30518072944E+02 -0.67118710757E+01  0.88258279817E+02  0.80246931120E+02 0.  0.
         13    1    3    3    0    0 -0.12419632510E+00  0.31587773540E+02  0.31972746643E+02  0.44945195003E+02  0.10566000000E+00 0. -1.
         22    1    1    0    0    0 -0.19327493693E+02 -0.30518072944E+02  0.67118710757E+01  0.36741720183E+02  0.00000000000E+00 0. -1.
</event>
<event>
 5    1  0.1245610E-004  0.9118800E+02  0.7818608E-02  0.1130116E+00
         25   -1    0    0    0    0  0.00000000000E+00  0.00000000000E+00  0.99999998245E-14  0.12500000000E+03  0.12500000000E+03 0.  0.
        -13    1    3    3    0    0  0.13139302202E+02  0.55032915320E+01  0.33585777294E+02  0.36482092601E+02  0.10566000000E+00 0.  1.
         23    2    1    0    0    0 -0.44378002541E+01  0.13797728442E+02 -0.23835569750E+02  0.97103660337E+02  0.93010295582E+02 0.  0.
         13    1    3    3    0    0 -0.17577102456E+02  0.82944369097E+01 -0.57421347045E+02  0.60621567737E+02  0.10566000000E+00 0. -1.
         22    1    1    0    0    0  0.44378002541E+01 -0.13797728442E+02  0.23835569750E+02  0.27896339663E+02  0.00000000000E+00 0. -1.
</event>
<event>
 5    1  0.1245610E-004  0.9118800E+02  0.7818608E-02  0.1130116E+00
         25   -1    0    0    0    0  0.00000000000E+00  0.00000000000E+00  0.99999998245E-14  0.12500000000E+03  0.12500000000E+03 0.  0.
        -13    1    3    3    0    0  0.11137109030E+01 -0.28583366225E+02  0.27899333709E+02  0.39957892364E+02  0.10566000000E+00 0.  1.
         23    2    1    0    0    0 -0.30001946068E+02  0.50860360597E+00 -0.60023868273E+01  0.94399279532E+02  0.89301847031E+02 0.  0.
         13    1    3    3    0    0 -0.31115656971E+02  0.29091969831E+02 -0.33901720536E+02  0.54441387168E+02  0.10566000000E+00 0. -1.
         22    1    1    0    0    0  0.30001946068E+02 -0.50860360597E+00  0.60023868273E+01  0.30600720468E+02  0.00000000000E+00 0. -1.
</event>
<event>
 5    1  0.1245610E-004  0.9118800E+02  0.7818608E-02  0.1130116E+00
         25   -1    0    0    0    0  0.00000000000E+00  0.00000000000E+00  0.99999998245E-14  0.12500000000E+03  0.12500000000E+03 0.  0.
        -13    1    3    3    0    0 -0.33225293740E+02 -0.12750336766E+02 -0.56761497590E+01  0.36037772848E+02  0.10566000000E+00 0.  1.
         23    2    1    0    0    0  0.26467142088E+02 -0.11811368333E+02 -0.38174311611E+01  0.95766614755E+02  0.91195688982E+02 0.  0.
         13    1    3    3    0    0  0.59692435827E+02  0.93896843304E+00  0.18587185979E+01  0.59728841907E+02  0.10566000000E+00 0. -1.
         22    1    1    0    0    0 -0.26467142088E+02  0.11811368333E+02  0.38174311611E+01  0.29233385245E+02  0.00000000000E+00 0. -1.
</event>
<event>
 5    1  0.1245610E-004  0.9118800E+02  0.7818608E-02  0.1130116E+00
         25   -1    0    0    0    0  0.00000000000E+00  0.00000000000E+00  0.99999998245E-14  0.12500000000E+03  0.12500000000E+03 0.  0.
        -13    1    3    3    0    0 -0.32989199444E+02 -0.35257514594E+02  0.14754820439E+02  0.50488568067E+02  0.10566000000E+00 0.  1.
         23    2    1    0    0    0 -0.27447818756E+02 -0.90737583015E+01 -0.16561413364E+02  0.91683393678E+02  0.85415738711E+02 0.  0.
         13    1    3    3    0    0  0.55413806873E+01  0.26183756293E+02 -0.31316233802E+02  0.41194825611E+02  0.10566000000E+00 0. -1.
         22    1    1    0    0    0  0.27447818756E+02  0.90737583015E+01  0.16561413364E+02  0.33316606322E+02  0.00000000000E+00 0. -1.
</event>
<event>
 5    1  0.1245610E-004  0.9118800E+02  0.7818608E-02  0.1130116E+00
         25   -1    0    0    0    0  0.00000000000E+00  0.00000000000E+00  0.99999998245E-14  0.12500000000E+03  0.12500000000E+03 0.  0.
        -13    1    3    3    0    0  0.22170713276E+02  0.23023735100E+02 -0.78941578160E+01  0.32923575091E+02  0.10566000000E+00 0. -1.
         23    2    1    0    0    0 -0.12665231164E+02 -0.24720460415E+02  0.11225422797E+02  0.95041372519E+02  0.90196137000E+02 0.  0.
         13    1    3    3    0    0 -0.34835944441E+02 -0.47744195515E+02  0.19119580613E+02  0.62117797428E+02  0.10566000000E+00 0.  1.
         22    1    1    0    0    0  0.12665231164E+02  0.24720460415E+02 -0.11225422797E+02  0.29958627481E+02  0.00000000000E+00 0.  1.
</event>
<event>
 5    1  0.1245610E-004  0.9118800E+02  0.7818608E-02  0.1130116E+00
         25   -1    0    0    0    0  0.00000000000E+00  0.00000000000E+00  0.99999998245E-14  0.12500000000E+03  0.12500000000E+03 0.  0.
        -13    1    3    3    0    0  0.41971634167E+02  0.44352598296E+02  0.12956455414E+02  0.62423168384E+02  0.10566000000E+00 0. -1.
         23    2    1    0    0    0  0.18768607297E+02  0.21772386842E+02  0.43223363690E+01  0.95931459610E+02  0.91421359116E+02 0.  0.
         13    1    3    3    0    0 -0.23203026870E+02 -0.22580211453E+02 -0.86341190448E+01  0.33508291226E+02  0.10566000000E+00 0.  1.
         22    1    1    0    0    0 -0.18768607297E+02 -0.21772386842E+02 -0.43223363690E+01  0.29068540390E+02  0.00000000000E+00 0. -1.
</event>
<event>
 5    1  0.1245610E-004  0.9118800E+02  0.7818608E-02  0.1130116E+00
         25   -1    0    0    0    0  0.00000000000E+00  0.00000000000E+00  0.99999998245E-14  0.12500000000E+03  0.12500000000E+03 0.  0.
        -13    1    3    3    0    0  0.31003303564E+02 -0.56607574417E+01 -0.20537865859E+02  0.37617337822E+02  0.10566000000E+00 0. -1.
         23    2    1    0    0    0 -0.20483244658E+02 -0.56866437553E+01  0.13937470824E+02  0.99580434270E+02  0.96281403020E+02 0.  0.
         13    1    3    3    0    0 -0.51486548222E+02 -0.25886313661E-01  0.34475336684E+02  0.61963096448E+02  0.10566000000E+00 0.  1.
         22    1    1    0    0    0  0.20483244658E+02  0.56866437553E+01 -0.13937470824E+02  0.25419565730E+02  0.00000000000E+00 0.  1.
</event>
<event>
 5    1  0.1245610E-004  0.9118800E+02  0.7818608E-02  0.1130116E+00
         25   -1    0    0    0    0  0.00000000000E+00  0.00000000000E+00  0.99999998245E-14  0.12500000000E+03  0.12500000000E+03 0.  0.
        -13    1    3    3    0    0 -0.33170091859E+02  0.16579887652E+02  0.54244656447E+01  0.37477775548E+02  0.10566000000E+00 0.  1.
         23    2    1    0    0    0  0.98175074753E+01 -0.25337217109E+02  0.39851374091E+01  0.97536581712E+02  0.93590306272E+02 0.  0.
         13    1    3    3    0    0  0.42987599334E+02 -0.41917104761E+02 -0.14393282356E+01  0.60058806164E+02  0.10566000000E+00 0. -1.
         22    1    1    0    0    0 -0.98175074753E+01  0.25337217109E+02 -0.39851374091E+01  0.27463418288E+02  0.00000000000E+00 0. -1.
</event>
<event>
 5    1  0.1245610E-004  0.9118800E+02  0.7818608E-02  0.1130116E+00
         25   -1    0    0    0    0  0.00000000000E+00  0.00000000000E+00  0.99999998245E-14  0.12500000000E+03  0.12500000000E+03 0.  0.
        -13    1    3    3    0    0  0.38757607954E+02  0.12751524096E+02 -0.46912853702E+02  0.62173793093E+02  0.10566000000E+00 0.  1.
         23    2    1    0    0    0  0.16553914456E+02  0.37259308327E+01 -0.25831448649E+02  0.94094039674E+02  0.88873561414E+02 0.  0.
         13    1    3    3    0    0 -0.22203693498E+02 -0.90255932633E+01  0.21081405054E+02  0.31920246581E+02  0.10566000000E+00 0. -1.
         22    1    1    0    0    0 -0.16553914456E+02 -0.37259308327E+01  0.25831448649E+02  0.30905960326E+02  0.00000000000E+00 0.  1.
</event>
<event>
 5    1  0.1245610E-004  0.9118800E+02  0.7818608E-02  0.1130116E+00
         25   -1    0    0    0    0  0.00000000000E+00  0.00000000000E+00  0.99999998245E-14  0.12500000000E+03  0.12500000000E+03 0.  0.
        -13    1    3    3    0    0 -0.13209703719E+02  0.25579692501E+02 -0.17574141651E+02  0.33729490948E+02  0.10566000000E+00 0.  1.
         23    2    1    0    0    0 -0.12657424326E+02 -0.21960586623E+02  0.18675341174E+02  0.93515938582E+02  0.88056712666E+02 0.  0.
         13    1    3    3    0    0  0.55227939343E+00 -0.47540279124E+02  0.36249482825E+02  0.59786447635E+02  0.10566000000E+00 0. -1.
         22    1    1    0    0    0  0.12657424326E+02  0.21960586623E+02 -0.18675341174E+02  0.31484061418E+02  0.00000000000E+00 0. -1.
</event>
<event>
 5    1  0.1245610E-004  0.9118800E+02  0.7818608E-02  0.1130116E+00
         25   -1    0    0    0    0  0.00000000000E+00  0.00000000000E+00  0.99999998245E-14  0.12500000000E+03  0.12500000000E+03 0.  0.
        -13    1    3    3    0    0  0.22214720582E+02 -0.14044533382E+02 -0.49919289808E+02  0.56415329365E+02  0.10566000000E+00 0.  1.
         23    2    1    0    0    0 -0.93656871214E+01 -0.24590216801E+01 -0.24736095413E+02  0.98436165579E+02  0.94784183252E+02 0.  0.
         13    1    3    3    0    0 -0.31580407704E+02  0.11585511702E+02  0.25183194395E+02  0.42020836214E+02  0.10566000000E+00 0. -1.
         22    1    1    0    0    0  0.93656871214E+01  0.24590216801E+01  0.24736095413E+02  0.26563834421E+02  0.00000000000E+00 0.  1.
</event>
<event>
 5    1  0.1245610E-004  0.9118800E+02  0.7818608E-02  0.1130116E+00
         25   -1    0    0    0    0  0.00000000000E+00  0.00000000000E+00  0.99999998245E-14  0.12500000000E+03  0.12500000000E+03 0.  0.
        -13    1    3    3    0    0  0.85489606401E+01 -0.32942419346E+02 -0.13697605572E+01  0.34061343609E+02  0.10566000000E+00 0.  1.
         23    2    1    0    0    0 -0.85998518050E+01  0.26069053265E+02 -0.92839221320E+01  0.96021659824E+02  0.91544606373E+02 0.  0.
         13    1    3    3    0    0 -0.17148812445E+02  0.59011472611E+02 -0.79141615748E+01  0.61960316215E+02  0.10566000000E+00 0. -1.
         22    1    1    0    0    0  0.85998518050E+01 -0.26069053265E+02  0.92839221320E+01  0.28978340176E+02  0.00000000000E+00 0. -1.
</event>
<event>
 5    1  0.1245610E-004  0.9118800E+02  0.7818608E-02  0.1130116E+00
         25   -1    0    0    0    0  0.00000000000E+00  0.00000000000E+00  0.99999998245E-14  0.12500000000E+03  0.12500000000E+03 0.  0.
        -13    1    3    3    0    0 -0.53632082672E+02 -0.60146282199E+01 -0.19419886063E+02  0.57356073637E+02  0.10566000000E+00 0. -1.
         23    2    1    0    0    0 -0.23096107305E+02 -0.19295827576E+02 -0.22532371698E+01  0.94819936842E+02  0.89888732389E+02 0.  0.
         13    1    3    3    0    0  0.30535975367E+02 -0.13281199356E+02  0.17166648893E+02  0.37463863205E+02  0.10566000000E+00 0.  1.
         22    1    1    0    0    0  0.23096107305E+02  0.19295827576E+02  0.22532371698E+01  0.30180063158E+02  0.00000000000E+00 0. -1.
</event>
<event>
 5    1  0.1245610E-004  0.9118800E+02  0.7818608E-02  0.1130116E+00
         25   -1    0    0    0    0  0.00000000000E+00  0.00000000000E+00  0.99999998245E-14  0.12500000000E+03  0.12500000000E+03 0.  0.
        -13    1    3    3    0    0  0.15876694809E+02  0.23702556001E+02  0.20036019395E+02  0.34861638463E+02  0.10566000000E+00 0. -1.
         23    2    1    0    0    0  0.13601313116E+02 -0.28854243235E+02 -0.42785102537E+01  0.92815085504E+02  0.87056139220E+02 0.  0.
         13    1    3    3    0    0 -0.22753816932E+01 -0.52556799237E+02 -0.24314529649E+02  0.57953447041E+02  0.10566000000E+00 0.  1.
         22    1    1    0    0    0 -0.13601313116E+02  0.28854243235E+02  0.42785102537E+01  0.32184914496E+02  0.00000000000E+00 0.  1.
</event>
<event>
 5    1  0.1245610E-004  0.9118800E+02  0.7818608E-02  0.1130116E+00
         25   -1    0    0    0    0  0.00000000000E+00  0.00000000000E+00  0.99999998245E-14  0.12500000000E+03  0.12500000000E+03 0.  0.
        -13    1    3    3    0    0 -0.70617027446E+01  0.21954044241E+01  0.41950413013E+02  0.42597368020E+02  0.10566000000E+00 0. -1.
         23    2    1    0    0    0  0.28344647041E+02  0.48225505899E+01  0.18030155892E+01  0.96191548544E+02  0.91776288529E+02 0.  0.
         13    1    3    3    0    0  0.35406349785E+02  0.26271461658E+01 -0.40147397424E+02  0.53594180524E+02  0.10566000000E+00 0.  1.
         22    1    1    0    0    0 -0.28344647041E+02 -0.48225505899E+01 -0.18030155892E+01  0.28808451456E+02  0.00000000000E+00 0.  1.
</event>
<event>
 5    1  0.1245610E-004  0.9118800E+02  0.7818608E-02  0.1130116E+00
         25   -1    0    0    0    0  0.00000000000E+00  0.00000000000E+00  0.99999998245E-14  0.12500000000E+03  0.12500000000E+03 0.  0.
        -13    1    3    3    0    0  0.92460786805E+01  0.89923093850E+01 -0.46822388567E+02  0.48566437322E+02  0.10566000000E+00 0.  1.
         23    2    1    0    0    0 -0.16648102712E+02  0.21920997256E+02 -0.93190300806E+01  0.95939136863E+02  0.91431855586E+02 0.  0.
         13    1    3    3    0    0 -0.25894181392E+02  0.12928687871E+02  0.37503358486E+02  0.47372699541E+02  0.10566000000E+00 0. -1.
         22    1    1    0    0    0  0.16648102712E+02 -0.21920997256E+02  0.93190300806E+01  0.29060863137E+02  0.00000000000E+00 0. -1.
</event>
<event>
 5    1  0.1245610E-004  0.9118800E+02  0.7818608E-02  0.1130116E+00
         25   -1    0    0    0    0  0.00000000000E+00  0.00000000000E+00  0.99999998245E-14  0.12500000000E+03  0.12500000000E+03 0.  0.
        -13    1    3    3    0    0  0.12235419227E+02 -0.45547222746E+02 -0.10381407844E+02  0.48291197712E+02  0.10566000000E+00 0. -1.
         23    2    1    0    0    0  0.25226320727E+02  0.25619352452E+01 -0.88390839303E+01  0.98147436354E+02  0.94402643440E+02 0.  0.
         13    1    3    3    0    0  0.12990901501E+02  0.48109157992E+02  0.15423239132E+01  0.49856238642E+02  0.10566000000E+00 0.  1.
         22    1    1    0    0    0 -0.25226320727E+02 -0.25619352452E+01  0.88390839303E+01  0.26852563646E+02  0.00000000000E+00 0.  1.
</event>
<event>
 5    1  0.1245610E-004  0.9118800E+02  0.7818608E-02  0.1130116E+00
         25   -1    0    0    0    0  0.00000000000E+00  0.00000000000E+00  0.99999998245E-14  0.12500000000E+03  0.12500000000E+03 0.  0.
        -13    1    3    3    0    0 -0.19582015697E+02 -0.17353105020E+02 -0.83680878880E+01  0.27470377710E+02  0.10566000000E+00 0. -1.
         23    2    1    0    0    0 -0.64204540578E+00  0.25648109774E+02  0.28099969998E+02  0.86949427453E+02  0.78181563449E+02 0.  0.
         13    1    3    3    0    0  0.18939970291E+02  0.43001214794E+02  0.36468057886E+02  0.59479049743E+02  0.10566000000E+00 0.  1.
         22    1    1    0    0    0  0.64204540578E+00 -0.25648109774E+02 -0.28099969998E+02  0.38050572547E+02  0.00000000000E+00 0.  1.
</event>
<event>
 5    1  0.1245610E-004  0.9118800E+02  0.7818608E-02  0.1130116E+00
         25   -1    0    0    0    0  0.00000000000E+00  0.00000000000E+00  0.99999998245E-14  0.12500000000E+03  0.12500000000E+03 0.  0.
        -13    1    3    3    0    0 -0.16397795416E+02  0.11110570094E+01  0.44344885911E+02  0.47292728962E+02  0.10566000000E+00 0.  1.
         23    2    1    0    0    0  0.14398272760E+02 -0.20788073933E+02  0.12109602791E+02  0.96962582928E+02  0.92820502756E+02 0.  0.
         13    1    3    3    0    0  0.30796068176E+02 -0.21899130943E+02 -0.32235283120E+02  0.49669853966E+02  0.10566000000E+00 0. -1.
         22    1    1    0    0    0 -0.14398272760E+02  0.20788073933E+02 -0.12109602791E+02  0.28037417072E+02  0.00000000000E+00 0. -1.
</event>
<event>
 5    1  0.1245610E-004  0.9118800E+02  0.7818608E-02  0.1130116E+00
         25   -1    0    0    0    0  0.00000000000E+00  0.00000000000E+00  0.99999998245E-14  0.12500000000E+03  0.12500000000E+03 0.  0.
        -13    1    3    3    0    0 -0.47945386046E+02 -0.56021464585E+01 -0.93559039234E+01  0.49169992783E+02  0.10566000000E+00 0.  1.
         23    2    1    0    0    0 -0.10841396610E+02 -0.18030818355E+02  0.18323242550E+02  0.97100403075E+02  0.93005917924E+02 0.  0.
         13    1    3    3    0    0  0.37103989436E+02 -0.12428671896E+02  0.27679146474E+02  0.47930410292E+02  0.10566000000E+00 0. -1.
         22    1    1    0    0    0  0.10841396610E+02  0.18030818355E+02 -0.18323242550E+02  0.27899596925E+02  0.00000000000E+00 0.  1.
</event>
<event>
 5    1  0.1245610E-004  0.9118800E+02  0.7818608E-02  0.1130116E+00
         25   -1    0    0    0    0  0.00000000000E+00  0.00000000000E+00  0.99999998245E-14  0.12500000000E+03  0.12500000000E+03 0.  0.
        -13    1    3    3    0    0 -0.46964021408E+02 -0.28580356679E+02  0.84226606869E+01  0.55618418458E+02  0.10566000000E+00 0. -1.
         23    2    1    0    0    0 -0.44483004124E+02 -0.46496569397E+01  0.71064616979E+01  0.79713591846E+02  0.65600289341E+02 0.  0.
         13    1    3    3    0    0  0.24810172839E+01  0.23930699739E+02 -0.13161989890E+01  0.24095173388E+02  0.10566000000E+00 0.  1.
         22    1    1    0    0    0  0.44483004124E+02  0.46496569397E+01 -0.71064616979E+01  0.45286408154E+02  0.00000000000E+00 0. -1.
</event>
<event>
 5    1  0.1245610E-004  0.9118800E+02  0.7818608E-02  0.1130116E+00
         25   -1    0    0    0    0  0.00000000000E+00  0.00000000000E+00  0.99999998245E-14  0.12500000000E+03  0.12500000000E+03 0.  0.
        -13    1    3    3    0    0  0.15991404356E+02  0.29604049296E+02 -0.11591407806E+02  0.35587872189E+02  0.10566000000E+00 0.  1.
         23    2    1    0    0    0 -0.82481895745E+01 -0.26385828605E+02 -0.34332648256E+01  0.97142651063E+02  0.93062681918E+02 0.  0.
         13    1    3    3    0    0 -0.24239593930E+02 -0.55989877901E+02  0.81581429809E+01  0.61554778874E+02  0.10566000000E+00 0. -1.
         22    1    1    0    0    0  0.82481895745E+01  0.26385828605E+02  0.34332648256E+01  0.27857348937E+02  0.00000000000E+00 0. -1.
</event>
<event>
 5    1  0.1245610E-004  0.9118800E+02  0.7818608E-02  0.1130116E+00
         25   -1    0    0    0    0  0.00000000000E+00  0.00000000000E+00  0.99999998245E-14  0.12500000000E+03  0.12500000000E+03 0.  0.
        -13    1    3    3    0    0  0.82672048806E+01 -0.14500891255E+02  0.31106197082E+02  0.35301971399E+02  0.10566000000E+00 0. -1.
         23    2    1    0    0    0 -0.14595059730E+02 -0.16828368312E+02 -0.22323097814E+02  0.93463823241E+02  0.87982701767E+02 0.  0.
         13    1    3    3    0    0 -0.22862264610E+02 -0.23274770570E+01 -0.53429294896E+02  0.58161851842E+02  0.10566000000E+00 0.  1.
         22    1    1    0    0    0  0.14595059730E+02  0.16828368312E+02  0.22323097814E+02  0.31536176759E+02  0.00000000000E+00 0.  1.
</event>
<event>
 5    1  0.1245610E-004  0.9118800E+02  0.7818608E-02  0.1130116E+00
         25   -1    0    0    0    0  0.00000000000E+00  0.00000000000E+00  0.99999998245E-14  0.12500000000E+03  0.12500000000E+03 0.  0.
        -13    1    3    3    0    0 -0.22879598005E+02  0.20396489814E+02 -0.19498646203E+02  0.36327691496E+02  0.10566000000E+00 0.  1.
         23    2    1    0    0    0 -0.38561433783E+00 -0.15994839547E+02  0.23230196498E+02  0.96793163597E+02  0.92592067151E+02 0.  0.
         13    1    3    3    0    0  0.22493983667E+02 -0.36391329360E+02  0.42728842701E+02  0.60465472101E+02  0.10566000000E+00 0. -1.
         22    1    1    0    0    0  0.38561433783E+00  0.15994839547E+02 -0.23230196498E+02  0.28206836403E+02  0.00000000000E+00 0. -1.
</event>
<event>
 5    1  0.1245610E-004  0.9118800E+02  0.7818608E-02  0.1130116E+00
         25   -1    0    0    0    0  0.00000000000E+00  0.00000000000E+00  0.99999998245E-14  0.12500000000E+03  0.12500000000E+03 0.  0.
        -13    1    3    3    0    0  0.11747316551E+02  0.52853372873E+02  0.23715254249E+02  0.59109245625E+02  0.10566000000E+00 0.  1.
         23    2    1    0    0    0  0.37940986442E+01  0.28860943177E+02 -0.28175134212E+01  0.95754699396E+02  0.91179355388E+02 0.  0.
         13    1    3    3    0    0 -0.79532179071E+01 -0.23992429696E+02 -0.26532767670E+02  0.36645453771E+02  0.10566000000E+00 0. -1.
         22    1    1    0    0    0 -0.37940986442E+01 -0.28860943177E+02  0.28175134212E+01  0.29245300604E+02  0.00000000000E+00 0.  1.
</event>
<event>
 5    1  0.1245610E-004  0.9118800E+02  0.7818608E-02  0.1130116E+00
         25   -1    0    0    0    0  0.00000000000E+00  0.00000000000E+00  0.99999998245E-14  0.12500000000E+03  0.12500000000E+03 0.  0.
        -13    1    3    3    0    0  0.20049789501E+02  0.22680994388E+02  0.15413881499E+02  0.33970876826E+02  0.10566000000E+00 0.  1.
         23    2    1    0    0    0 -0.26937411652E+02 -0.34497596818E+01 -0.13121590751E+02  0.94838747834E+02  0.89914887301E+02 0.  0.
         13    1    3    3    0    0 -0.46987201153E+02 -0.26130754070E+02 -0.28535472250E+02  0.60867871008E+02  0.10566000000E+00 0. -1.
         22    1    1    0    0    0  0.26937411652E+02  0.34497596818E+01  0.13121590751E+02  0.30161252166E+02  0.00000000000E+00 0. -1.
</event>
<event>
 5    1  0.1245610E-004  0.9118800E+02  0.7818608E-02  0.1130116E+00
         25   -1    0    0    0    0  0.00000000000E+00  0.00000000000E+00  0.99999998245E-14  0.12500000000E+03  0.12500000000E+03 0.  0.
        -13    1    3    3    0    0  0.21658540008E+02 -0.12483389596E+02  0.35830288811E+02  0.43689222142E+02  0.10566000000E+00 0.  1.
         23    2    1    0    0    0 -0.23410662938E+02 -0.14127146574E+02  0.87647378822E+01  0.96286657463E+02  0.91905736304E+02 0.  0.
         13    1    3    3    0    0 -0.45069202946E+02 -0.16437569778E+01 -0.27065550929E+02  0.52597435321E+02  0.10566000000E+00 0. -1.
         22    1    1    0    0    0  0.23410662938E+02  0.14127146574E+02 -0.87647378822E+01  0.28713342537E+02  0.00000000000E+00 0. -1.
</event>
<event>
 5    1  0.1245610E-004  0.9118800E+02  0.7818608E-02  0.1130116E+00
         25   -1    0    0    0    0  0.00000000000E+00  0.00000000000E+00  0.99999998245E-14  0.12500000000E+03  0.12500000000E+03 0.  0.
        -13    1    3    3    0    0  0.23384891056E+02  0.63718801176E+01  0.30299761493E+02  0.38801297613E+02  0.10566000000E+00 0.  1.
         23    2    1    0    0    0 -0.27199234171E+02  0.10218324846E+02  0.49020289061E+01  0.95534046944E+02  0.90876354108E+02 0.  0.
         13    1    3    3    0    0 -0.50584125226E+02  0.38464447286E+01 -0.25397732587E+02  0.56732749330E+02  0.10566000000E+00 0. -1.
         22    1    1    0    0    0  0.27199234171E+02 -0.10218324846E+02 -0.49020289061E+01  0.29465953056E+02  0.00000000000E+00 0. -1.
</event>
<event>
 5    1  0.1245610E-004  0.9118800E+02  0.7818608E-02  0.1130116E+00
         25   -1    0    0    0    0  0.00000000000E+00  0.00000000000E+00  0.99999998245E-14  0.12500000000E+03  0.12500000000E+03 0.  0.
        -13    1    3    3    0    0  0.13221908501E+02 -0.40744724797E+02  0.24903643147E+02  0.49549511292E+02  0.10566000000E+00 0. -1.
         23    2    1    0    0    0  0.37459314046E+01  0.29683783954E+01  0.30049239744E+02  0.94573036931E+02  0.89544733138E+02 0.  0.
         13    1    3    3    0    0 -0.94759770963E+01  0.43713103192E+02  0.51455965967E+01  0.45023525640E+02  0.10566000000E+00 0.  1.
         22    1    1    0    0    0 -0.37459314046E+01 -0.29683783954E+01 -0.30049239744E+02  0.30426963069E+02  0.00000000000E+00 0. -1.
</event>
<event>
 5    1  0.1245610E-004  0.9118800E+02  0.7818608E-02  0.1130116E+00
         25   -1    0    0    0    0  0.00000000000E+00  0.00000000000E+00  0.99999998245E-14  0.12500000000E+03  0.12500000000E+03 0.  0.
        -13    1    3    3    0    0 -0.19490206315E+02  0.66080360060E+01 -0.35477080779E+02  0.41014250044E+02  0.10566000000E+00 0.  1.
         23    2    1    0    0    0  0.12331030888E+02  0.24586367256E+02  0.65649876990E+01  0.96722043194E+02  0.92496004230E+02 0.  0.
         13    1    3    3    0    0  0.31821237203E+02  0.17978331250E+02  0.42042068478E+02  0.55707793150E+02  0.10566000000E+00 0. -1.
         22    1    1    0    0    0 -0.12331030888E+02 -0.24586367256E+02 -0.65649876990E+01  0.28277956806E+02  0.00000000000E+00 0. -1.
</event>
<event>
 5    1  0.1245610E-004  0.9118800E+02  0.7818608E-02  0.1130116E+00
         25   -1    0    0    0    0  0.00000000000E+00  0.00000000000E+00  0.99999998245E-14  0.12500000000E+03  0.12500000000E+03 0.  0.
        -13    1    3    3    0    0  0.46192922250E+02 -0.89712742314E+01 -0.94300711605E+01  0.47991741305E+02  0.10566000000E+00 0. -1.
         23    2    1    0    0    0  0.17148295993E+02  0.13067857286E+02  0.20565372496E+02  0.95204572576E+02  0.90422027980E+02 0.  0.
         13    1    3    3    0    0 -0.29044626257E+02  0.22039131517E+02  0.29995443656E+02  0.47212831271E+02  0.10566000000E+00 0.  1.
         22    1    1    0    0    0 -0.17148295993E+02 -0.13067857286E+02 -0.20565372496E+02  0.29795427424E+02  0.00000000000E+00 0. -1.
</event>
<event>
 5    1  0.1245610E-004  0.9118800E+02  0.7818608E-02  0.1130116E+00
         25   -1    0    0    0    0  0.00000000000E+00  0.00000000000E+00  0.99999998245E-14  0.12500000000E+03  0.12500000000E+03 0.  0.
        -13    1    3    3    0    0  0.42373816923E+02  0.30156948144E+02 -0.14135665429E+02  0.53896290069E+02  0.10566000000E+00 0.  1.
         23    2    1    0    0    0  0.30368329471E+01  0.29712802280E+02 -0.19986926169E+01  0.95065609312E+02  0.90229719760E+02 0.  0.
         13    1    3    3    0    0 -0.39336983976E+02 -0.44414586384E+00  0.12136972812E+02  0.41169319243E+02  0.10566000000E+00 0. -1.
         22    1    1    0    0    0 -0.30368329471E+01 -0.29712802280E+02  0.19986926169E+01  0.29934390688E+02  0.00000000000E+00 0. -1.
</event>
<event>
 5    1  0.1245610E-004  0.9118800E+02  0.7818608E-02  0.1130116E+00
         25   -1    0    0    0    0  0.00000000000E+00  0.00000000000E+00  0.99999998245E-14  0.12500000000E+03  0.12500000000E+03 0.  0.
        -13    1    3    3    0    0 -0.21763855157E+02 -0.22702367030E+02  0.23252403278E+02  0.39111996654E+02  0.10566000000E+00 0.  1.
         23    2    1    0    0    0  0.28450588054E+02 -0.41827041111E+01  0.41188819793E+01  0.95950109070E+02  0.91446854880E+02 0.  0.
         13    1    3    3    0    0  0.50214443211E+02  0.18519662919E+02 -0.19133521299E+02  0.56838112415E+02  0.10566000000E+00 0. -1.
         22    1    1    0    0    0 -0.28450588054E+02  0.41827041111E+01 -0.41188819793E+01  0.29049890930E+02  0.00000000000E+00 0. -1.
</event>
<event>
 5    1  0.1245610E-004  0.9118800E+02  0.7818608E-02  0.1130116E+00
         25   -1    0    0    0    0  0.00000000000E+00  0.00000000000E+00  0.99999998245E-14  0.12500000000E+03  0.12500000000E+03 0.  0.
        -13    1    3    3    0    0 -0.23088040048E+02 -0.26658795449E+02 -0.86113156912E+01  0.36303097527E+02  0.10566000000E+00 0. -1.
         23    2    1    0    0    0  0.28830905432E+02  0.84613366076E+00 -0.80266488814E+01  0.95060658950E+02  0.90222861502E+02 0.  0.
         13    1    3    3    0    0  0.51918945480E+02  0.27504929110E+02  0.58466680972E+00  0.58757561424E+02  0.10566000000E+00 0.  1.
         22    1    1    0    0    0 -0.28830905432E+02 -0.84613366076E+00  0.80266488814E+01  0.29939341050E+02  0.00000000000E+00 0.  1.
</event>
<event>
 5    1  0.1245610E-004  0.9118800E+02  0.7818608E-02  0.1130116E+00
         25   -1    0    0    0    0  0.00000000000E+00  0.00000000000E+00  0.99999998245E-14  0.12500000000E+03  0.12500000000E+03 0.  0.
        -13    1    3    3    0    0 -0.35298800614E+02 -0.65910528432E+01  0.14270443794E+02  0.38640704348E+02  0.10566000000E+00 0. -1.
         23    2    1    0    0    0  0.38106220009E+01  0.11221844792E+02 -0.25301902913E+02  0.97060119335E+02  0.92951760789E+02 0.  0.
         13    1    3    3    0    0  0.39109422615E+02  0.17812897635E+02 -0.39572346707E+02  0.58419414987E+02  0.10566000000E+00 0.  1.
         22    1    1    0    0    0 -0.38106220009E+01 -0.11221844792E+02  0.25301902913E+02  0.27939880665E+02  0.00000000000E+00 0.  1.
</event>
<event>
 5    1  0.1245610E-004  0.9118800E+02  0.7818608E-02  0.1130116E+00
         25   -1    0    0    0    0  0.00000000000E+00  0.00000000000E+00  0.99999998245E-14  0.12500000000E+03  0.12500000000E+03 0.  0.
        -13    1    3    3    0    0 -0.29262897251E+02 -0.10301464806E+02  0.53330831780E+02  0.61697861511E+02  0.10566000000E+00 0. -1.
         23    2    1    0    0    0 -0.12455648511E+02 -0.11752319819E+02  0.24351605449E+02  0.95229865824E+02  0.90456986772E+02 0.  0.
         13    1    3    3    0    0  0.16807248740E+02 -0.14508550130E+01 -0.28979226331E+02  0.33532004313E+02  0.10566000000E+00 0.  1.
         22    1    1    0    0    0  0.12455648511E+02  0.11752319819E+02 -0.24351605449E+02  0.29770134176E+02  0.00000000000E+00 0. -1.
</event>
<event>
 5    1  0.1245610E-004  0.9118800E+02  0.7818608E-02  0.1130116E+00
         25   -1    0    0    0    0  0.00000000000E+00  0.00000000000E+00  0.99999998245E-14  0.12500000000E+03  0.12500000000E+03 0.  0.
        -13    1    3    3    0    0  0.20477324205E+02 -0.20329894814E+02  0.22672463937E+02  0.36697100904E+02  0.10566000000E+00 0.  1.
         23    2    1    0    0    0 -0.73053429143E+01  0.56082621610E+01 -0.25400863222E+02  0.97981034587E+02  0.94182050555E+02 0.  0.
         13    1    3    3    0    0 -0.27782667119E+02  0.25938156975E+02 -0.48073327159E+02  0.61283933683E+02  0.10566000000E+00 0. -1.
         22    1    1    0    0    0  0.73053429143E+01 -0.56082621610E+01  0.25400863222E+02  0.27018965413E+02  0.00000000000E+00 0. -1.
</event>
<event>
 5    1  0.1245610E-004  0.9118800E+02  0.7818608E-02  0.1130116E+00
         25   -1    0    0    0    0  0.00000000000E+00  0.00000000000E+00  0.99999998245E-14  0.12500000000E+03  0.12500000000E+03 0.  0.
        -13    1    3    3    0    0 -0.46954580549E+02  0.31131563416E+02  0.27010570686E+02  0.62477907841E+02  0.10566000000E+00 0. -1.
         23    2    1    0    0    0 -0.22235684154E+02  0.16083320628E+02  0.12749429625E+02  0.94740343558E+02  0.89777981096E+02 0.  0.
         13    1    3    3    0    0  0.24718896395E+02 -0.15048242789E+02 -0.14261141061E+02  0.32262435718E+02  0.10566000000E+00 0.  1.
         22    1    1    0    0    0  0.22235684154E+02 -0.16083320628E+02 -0.12749429625E+02  0.30259656442E+02  0.00000000000E+00 0. -1.
</event>
<event>
 5    1  0.1245610E-004  0.9118800E+02  0.7818608E-02  0.1130116E+00
         25   -1    0    0    0    0  0.00000000000E+00  0.00000000000E+00  0.99999998245E-14  0.12500000000E+03  0.12500000000E+03 0.  0.
        -13    1    3    3    0    0  0.36236198118E+02 -0.14661767132E+02 -0.39734829782E+01  0.39291591982E+02  0.10566000000E+00 0. -1.
         23    2    1    0    0    0 -0.92835242917E+01 -0.56042190907E+01 -0.30416597420E+02  0.92708197736E+02  0.86902528351E+02 0.  0.
         13    1    3    3    0    0 -0.45519722410E+02  0.90575480418E+01 -0.26443114442E+02  0.53416605753E+02  0.10566000000E+00 0.  1.
         22    1    1    0    0    0  0.92835242917E+01  0.56042190907E+01  0.30416597420E+02  0.32291802264E+02  0.00000000000E+00 0.  1.
</event>
<event>
 5    1  0.1245610E-004  0.9118800E+02  0.7818608E-02  0.1130116E+00
         25   -1    0    0    0    0  0.00000000000E+00  0.00000000000E+00  0.99999998245E-14  0.12500000000E+03  0.12500000000E+03 0.  0.
        -13    1    3    3    0    0 -0.49319575562E+02  0.66131680361E+01 -0.16358882504E+02  0.52381091301E+02  0.10566000000E+00 0.  1.
         23    2    1    0    0    0 -0.18990914874E+02  0.16014412374E+02  0.14146239501E+02  0.96412724098E+02  0.92077038531E+02 0.  0.
         13    1    3    3    0    0  0.30328660688E+02  0.94012443378E+01  0.30505122005E+02  0.44031632797E+02  0.10566000000E+00 0. -1.
         22    1    1    0    0    0  0.18990914874E+02 -0.16014412374E+02 -0.14146239501E+02  0.28587275902E+02  0.00000000000E+00 0. -1.
</event>
<event>
 5    1  0.1245610E-004  0.9118800E+02  0.7818608E-02  0.1130116E+00
         25   -1    0    0    0    0  0.00000000000E+00  0.00000000000E+00  0.99999998245E-14  0.12500000000E+03  0.12500000000E+03 0.  0.
        -13    1    3    3    0    0  0.39512643974E+02  0.29908794156E+02  0.95525995713E+00  0.49565196331E+02  0.10566000000E+00 0.  1.
         23    2    1    0    0    0  0.30173161000E+01  0.13263469666E+02  0.25148501493E+02  0.96408551080E+02  0.92071373238E+02 0.  0.
         13    1    3    3    0    0 -0.36495327874E+02 -0.16645324490E+02  0.24193241536E+02  0.46843354748E+02  0.10566000000E+00 0. -1.
         22    1    1    0    0    0 -0.30173161000E+01 -0.13263469666E+02 -0.25148501493E+02  0.28591448920E+02  0.00000000000E+00 0. -1.
</event>
<event>
 5    1  0.1245610E-004  0.9118800E+02  0.7818608E-02  0.1130116E+00
         25   -1    0    0    0    0  0.00000000000E+00  0.00000000000E+00  0.99999998245E-14  0.12500000000E+03  0.12500000000E+03 0.  0.
        -13    1    3    3    0    0  0.45141305012E+01 -0.54400633742E+02 -0.21411881681E+02  0.58636901068E+02  0.10566000000E+00 0.  1.
         23    2    1    0    0    0  0.17204089192E+02 -0.22261241522E+02 -0.75288617132E+01  0.95875657644E+02  0.91345029481E+02 0.  0.
         13    1    3    3    0    0  0.12689958690E+02  0.32139392220E+02  0.13883019967E+02  0.37238756576E+02  0.10566000000E+00 0. -1.
         22    1    1    0    0    0 -0.17204089192E+02  0.22261241522E+02  0.75288617132E+01  0.29124342356E+02  0.00000000000E+00 0.  1.
</event>
<event>
 5    1  0.1245610E-004  0.9118800E+02  0.7818608E-02  0.1130116E+00
         25   -1    0    0    0    0  0.00000000000E+00  0.00000000000E+00  0.99999998245E-14  0.12500000000E+03  0.12500000000E+03 0.  0.
        -13    1    3    3    0    0  0.11733376422E+02  0.55394854236E+02 -0.20056803020E+01  0.56659473308E+02  0.10566000000E+00 0. -1.
         23    2    1    0    0    0  0.20341345532E+02  0.19393080128E+02  0.93536068661E+01  0.95379874134E+02  0.90664042120E+02 0.  0.
         13    1    3    3    0    0  0.86079691096E+01 -0.36001774108E+02  0.11359287168E+02  0.38720400826E+02  0.10566000000E+00 0.  1.
         22    1    1    0    0    0 -0.20341345532E+02 -0.19393080128E+02 -0.93536068661E+01  0.29620125866E+02  0.00000000000E+00 0. -1.
</event>
<event>
 5    1  0.1245610E-004  0.9118800E+02  0.7818608E-02  0.1130116E+00
         25   -1    0    0    0    0  0.00000000000E+00  0.00000000000E+00  0.99999998245E-14  0.12500000000E+03  0.12500000000E+03 0.  0.
        -13    1    3    3    0    0  0.14034424066E+02 -0.43476282821E+02  0.18055564656E+02  0.49123994197E+02  0.10566000000E+00 0. -1.
         23    2    1    0    0    0  0.17777231345E+02  0.28753041686E+01  0.22887852043E+02  0.95876966169E+02  0.91346820099E+02 0.  0.
         13    1    3    3    0    0  0.37428072796E+01  0.46351586990E+02  0.48322873866E+01  0.46752971972E+02  0.10566000000E+00 0.  1.
         22    1    1    0    0    0 -0.17777231345E+02 -0.28753041686E+01 -0.22887852043E+02  0.29123033831E+02  0.00000000000E+00 0. -1.
</event>
<event>
 5    1  0.1245610E-004  0.9118800E+02  0.7818608E-02  0.1130116E+00
         25   -1    0    0    0    0  0.00000000000E+00  0.00000000000E+00  0.99999998245E-14  0.12500000000E+03  0.12500000000E+03 0.  0.
        -13    1    3    3    0    0 -0.52020305233E+02 -0.24276889243E+02  0.69843132203E+00  0.57410612941E+02  0.10566000000E+00 0. -1.
         23    2    1    0    0    0 -0.17557989015E+02 -0.16438907767E+02 -0.15601377463E+02  0.96330789240E+02  0.91965739871E+02 0.  0.
         13    1    3    3    0    0  0.34462316218E+02  0.78379814754E+01 -0.16299808785E+02  0.38920176300E+02  0.10566000000E+00 0.  1.
         22    1    1    0    0    0  0.17557989015E+02  0.16438907767E+02  0.15601377463E+02  0.28669210760E+02  0.00000000000E+00 0. -1.
</event>
<event>
 5    1  0.1245610E-004  0.9118800E+02  0.7818608E-02  0.1130116E+00
         25   -1    0    0    0    0  0.00000000000E+00  0.00000000000E+00  0.99999998245E-14  0.12500000000E+03  0.12500000000E+03 0.  0.
        -13    1    3    3    0    0 -0.30325403875E+02  0.81735882732E+01  0.20225841267E+02  0.37356839862E+02  0.10566000000E+00 0. -1.
         23    2    1    0    0    0  0.38460760310E+00 -0.21195931197E+02 -0.19989193142E+02  0.95862682608E+02  0.91327272225E+02 0.  0.
         13    1    3    3    0    0  0.30710011478E+02 -0.29369519470E+02 -0.40215034410E+02  0.58505842747E+02  0.10566000000E+00 0.  1.
         22    1    1    0    0    0 -0.38460760310E+00  0.21195931197E+02  0.19989193142E+02  0.29137317392E+02  0.00000000000E+00 0.  1.
</event>
<event>
 5    1  0.1245610E-004  0.9118800E+02  0.7818608E-02  0.1130116E+00
         25   -1    0    0    0    0  0.00000000000E+00  0.00000000000E+00  0.99999998245E-14  0.12500000000E+03  0.12500000000E+03 0.  0.
        -13    1    3    3    0    0 -0.28856781573E+02  0.52089477758E+02  0.18513182397E+02  0.62360056305E+02  0.10566000000E+00 0. -1.
         23    2    1    0    0    0 -0.11445317089E+02  0.26014226659E+02  0.10280212924E+02  0.94777193219E+02  0.89829273095E+02 0.  0.
         13    1    3    3    0    0  0.17411464484E+02 -0.26075251099E+02 -0.82329694736E+01  0.32417136914E+02  0.10566000000E+00 0.  1.
         22    1    1    0    0    0  0.11445317089E+02 -0.26014226659E+02 -0.10280212924E+02  0.30222806781E+02  0.00000000000E+00 0. -1.
</event>
<event>
 5    1  0.1245610E-004  0.9118800E+02  0.7818608E-02  0.1130116E+00
         25   -1    0    0    0    0  0.00000000000E+00  0.00000000000E+00  0.99999998245E-14  0.12500000000E+03  0.12500000000E+03 0.  0.
        -13    1    3    3    0    0 -0.37511976959E+02  0.28060394646E+02  0.33024455171E+02  0.57316315011E+02  0.10566000000E+00 0. -1.
         23    2    1    0    0    0 -0.54439749717E+01  0.26030122731E+02  0.11288100206E+02  0.96110116664E+02  0.91665310592E+02 0.  0.
         13    1    3    3    0    0  0.32068001987E+02 -0.20302719150E+01 -0.21736354965E+02  0.38793801653E+02  0.10566000000E+00 0.  1.
         22    1    1    0    0    0  0.54439749717E+01 -0.26030122731E+02 -0.11288100206E+02  0.28889883336E+02  0.00000000000E+00 0. -1.
</event>
<event>
 5    1  0.1245610E-004  0.9118800E+02  0.7818608E-02  0.1130116E+00
         25   -1    0    0    0    0  0.00000000000E+00  0.00000000000E+00  0.99999998245E-14  0.12500000000E+03  0.12500000000E+03 0.  0.
        -13    1    3    3    0    0  0.30825810460E+01  0.16244022274E+02 -0.32996457081E+02  0.36907288026E+02  0.10566000000E+00 0.  1.
         23    2    1    0    0    0 -0.79388468591E+01 -0.29537447006E+02  0.13060031575E-01  0.94414280527E+02  0.89322842162E+02 0.  0.
         13    1    3    3    0    0 -0.11021427905E+02 -0.45781469280E+02  0.33009517112E+02  0.57506992501E+02  0.10566000000E+00 0. -1.
         22    1    1    0    0    0  0.79388468591E+01  0.29537447006E+02 -0.13060031575E-01  0.30585719473E+02  0.00000000000E+00 0. -1.
</event>
<event>
 5    1  0.1245610E-004  0.9118800E+02  0.7818608E-02  0.1130116E+00
         25   -1    0    0    0    0  0.00000000000E+00  0.00000000000E+00  0.99999998245E-14  0.12500000000E+03  0.12500000000E+03 0.  0.
        -13    1    3    3    0    0 -0.25922993795E+02 -0.12396414443E+01 -0.24936267324E+02  0.35991206014E+02  0.10566000000E+00 0.  1.
         23    2    1    0    0    0 -0.16527836082E+02 -0.80229671166E+01  0.28731940959E+02  0.90896308144E+02  0.84256020771E+02 0.  0.
         13    1    3    3    0    0  0.93951577134E+01 -0.67833256723E+01  0.53668208283E+02  0.54905102131E+02  0.10566000000E+00 0. -1.
         22    1    1    0    0    0  0.16527836082E+02  0.80229671166E+01 -0.28731940959E+02  0.34103691856E+02  0.00000000000E+00 0. -1.
</event>
<event>
 5    1  0.1245610E-004  0.9118800E+02  0.7818608E-02  0.1130116E+00
         25   -1    0    0    0    0  0.00000000000E+00  0.00000000000E+00  0.99999998245E-14  0.12500000000E+03  0.12500000000E+03 0.  0.
        -13    1    3    3    0    0 -0.35463924594E+02  0.99692520000E+00  0.35950631571E+02  0.50508839641E+02  0.10566000000E+00 0. -1.
         23    2    1    0    0    0 -0.25496535111E+02  0.11156516245E+02 -0.74548225305E+01  0.96188274325E+02  0.91771828909E+02 0.  0.
         13    1    3    3    0    0  0.99673894826E+01  0.10159591045E+02 -0.43405454101E+02  0.45679434684E+02  0.10566000000E+00 0.  1.
         22    1    1    0    0    0  0.25496535111E+02 -0.11156516245E+02  0.74548225305E+01  0.28811725675E+02  0.00000000000E+00 0.  1.
</event>
<event>
 5    1  0.1245610E-004  0.9118800E+02  0.7818608E-02  0.1130116E+00
         25   -1    0    0    0    0  0.00000000000E+00  0.00000000000E+00  0.99999998245E-14  0.12500000000E+03  0.12500000000E+03 0.  0.
        -13    1    3    3    0    0  0.30870659998E+02 -0.40167386574E+01  0.15823359262E+02  0.34921650885E+02  0.10566000000E+00 0. -1.
         23    2    1    0    0    0 -0.18122740333E+02  0.25591370901E+02  0.73647685125E+01  0.92788328249E+02  0.87017711198E+02 0.  0.
         13    1    3    3    0    0 -0.48993400332E+02  0.29608109558E+02 -0.84585907493E+01  0.57866677364E+02  0.10566000000E+00 0.  1.
         22    1    1    0    0    0  0.18122740333E+02 -0.25591370901E+02 -0.73647685125E+01  0.32211671751E+02  0.00000000000E+00 0.  1.
</event>
<event>
 5    1  0.1245610E-004  0.9118800E+02  0.7818608E-02  0.1130116E+00
         25   -1    0    0    0    0  0.00000000000E+00  0.00000000000E+00  0.99999998245E-14  0.12500000000E+03  0.12500000000E+03 0.  0.
        -13    1    3    3    0    0 -0.21377734567E+02 -0.31099650271E+02  0.13714185151E+02  0.40153279076E+02  0.10566000000E+00 0. -1.
         23    2    1    0    0    0 -0.15437369042E+01 -0.18491604453E+01 -0.29174108733E+02  0.95726613821E+02  0.91140844056E+02 0.  0.
         13    1    3    3    0    0  0.19833997663E+02  0.29250489825E+02 -0.42888293884E+02  0.55573334745E+02  0.10566000000E+00 0.  1.
         22    1    1    0    0    0  0.15437369042E+01  0.18491604453E+01  0.29174108733E+02  0.29273386179E+02  0.00000000000E+00 0.  1.
</event>
<event>
 5    1  0.1245610E-004  0.9118800E+02  0.7818608E-02  0.1130116E+00
         25   -1    0    0    0    0  0.00000000000E+00  0.00000000000E+00  0.99999998245E-14  0.12500000000E+03  0.12500000000E+03 0.  0.
        -13    1    3    3    0    0 -0.34904260389E+02  0.60742591520E+00  0.23646860857E+02  0.42164695564E+02  0.10566000000E+00 0.  1.
         23    2    1    0    0    0  0.68156731487E+01 -0.26783105956E+02  0.65722289428E-01  0.97363204156E+02  0.93358454566E+02 0.  0.
         13    1    3    3    0    0  0.41719933538E+02 -0.27390531871E+02 -0.23581138568E+02  0.55198508592E+02  0.10566000000E+00 0. -1.
         22    1    1    0    0    0 -0.68156731487E+01  0.26783105956E+02 -0.65722289428E-01  0.27636795844E+02  0.00000000000E+00 0. -1.
</event>
<event>
 5    1  0.1245610E-004  0.9118800E+02  0.7818608E-02  0.1130116E+00
         25   -1    0    0    0    0  0.00000000000E+00  0.00000000000E+00  0.99999998245E-14  0.12500000000E+03  0.12500000000E+03 0.  0.
        -13    1    3    3    0    0  0.42274136988E+02 -0.44254437882E+02  0.97406467216E+01  0.61971358650E+02  0.10566000000E+00 0.  1.
         23    2    1    0    0    0  0.15662566142E+02 -0.23260810042E+02  0.76563828817E+01  0.95931091166E+02  0.91420855343E+02 0.  0.
         13    1    3    3    0    0 -0.26611570846E+02  0.20993627840E+02 -0.20842638399E+01  0.33959732516E+02  0.10566000000E+00 0. -1.
         22    1    1    0    0    0 -0.15662566142E+02  0.23260810042E+02 -0.76563828817E+01  0.29068908834E+02  0.00000000000E+00 0.  1.
</event>
<event>
 5    1  0.1245610E-004  0.9118800E+02  0.7818608E-02  0.1130116E+00
         25   -1    0    0    0    0  0.00000000000E+00  0.00000000000E+00  0.99999998245E-14  0.12500000000E+03  0.12500000000E+03 0.  0.
        -13    1    3    3    0    0 -0.18663344980E+02  0.58221601633E+01 -0.46023585847E+02  0.50003995971E+02  0.10566000000E+00 0.  1.
         23    2    1    0    0    0  0.19471071796E+02 -0.56357577702E+00 -0.22399487852E+02  0.95315369119E+02  0.90575064337E+02 0.  0.
         13    1    3    3    0    0  0.38134416776E+02 -0.63857359403E+01  0.23624097996E+02  0.45311373147E+02  0.10566000000E+00 0. -1.
         22    1    1    0    0    0 -0.19471071796E+02  0.56357577702E+00  0.22399487852E+02  0.29684630881E+02  0.00000000000E+00 0.  1.
</event>
<event>
 5    1  0.1245610E-004  0.9118800E+02  0.7818608E-02  0.1130116E+00
         25   -1    0    0    0    0  0.00000000000E+00  0.00000000000E+00  0.99999998245E-14  0.12500000000E+03  0.12500000000E+03 0.  0.
        -13    1    3    3    0    0 -0.50056566864E+02 -0.14485813576E+02  0.26809961427E+02  0.58602763390E+02  0.10566000000E+00 0.  1.
         23    2    1    0    0    0 -0.27635100160E+02 -0.47097481018E+01 -0.25894371527E+01  0.96847101876E+02  0.92664855630E+02 0.  0.
         13    1    3    3    0    0  0.22421466705E+02  0.97760654742E+01 -0.29399398580E+02  0.38244338486E+02  0.10566000000E+00 0. -1.
         22    1    1    0    0    0  0.27635100160E+02  0.47097481018E+01  0.25894371527E+01  0.28152898124E+02  0.00000000000E+00 0.  1.
</event>
<event>
 5    1  0.1245610E-004  0.9118800E+02  0.7818608E-02  0.1130116E+00
         25   -1    0    0    0    0  0.00000000000E+00  0.00000000000E+00  0.99999998245E-14  0.12500000000E+03  0.12500000000E+03 0.  0.
        -13    1    3    3    0    0  0.12940039440E+02 -0.13504438288E+02 -0.21994220287E+02  0.28871635981E+02  0.10566000000E+00 0.  1.
         23    2    1    0    0    0  0.25122098272E+02  0.19802758001E+02  0.22588416121E+02  0.85840000142E+02  0.76387171930E+02 0.  0.
         13    1    3    3    0    0  0.12182058832E+02  0.33307196288E+02  0.44582636408E+02  0.56968364160E+02  0.10566000000E+00 0. -1.
         22    1    1    0    0    0 -0.25122098272E+02 -0.19802758001E+02 -0.22588416121E+02  0.39159999858E+02  0.00000000000E+00 0. -1.
</event>
<event>
 5    1  0.1245610E-004  0.9118800E+02  0.7818608E-02  0.1130116E+00
         25   -1    0    0    0    0  0.00000000000E+00  0.00000000000E+00  0.99999998245E-14  0.12500000000E+03  0.12500000000E+03 0.  0.
        -13    1    3    3    0    0  0.15955884989E+02 -0.26024662791E+02  0.30839759563E+02  0.43393262992E+02  0.10566000000E+00 0.  1.
         23    2    1    0    0    0 -0.14627015136E+02  0.14890477220E+02  0.20955571224E+02  0.95422781588E+02  0.90723180043E+02 0.  0.
         13    1    3    3    0    0 -0.30582900125E+02  0.40915140011E+02 -0.98841883392E+01  0.52029518596E+02  0.10566000000E+00 0. -1.
         22    1    1    0    0    0  0.14627015136E+02 -0.14890477220E+02 -0.20955571224E+02  0.29577218412E+02  0.00000000000E+00 0. -1.
</event>
<event>
 5    1  0.1245610E-004  0.9118800E+02  0.7818608E-02  0.1130116E+00
         25   -1    0    0    0    0  0.00000000000E+00  0.00000000000E+00  0.99999998245E-14  0.12500000000E+03  0.12500000000E+03 0.  0.
        -13    1    3    3    0    0  0.12117572769E+02  0.28479534723E+02  0.18924815350E+02  0.36277806824E+02  0.10566000000E+00 0. -1.
         23    2    1    0    0    0 -0.24974246819E+02 -0.13586399983E+02 -0.28212564932E+01  0.96429687490E+02  0.92100064455E+02 0.  0.
         13    1    3    3    0    0 -0.37091819588E+02 -0.42065934706E+02 -0.21746071843E+02  0.60151880667E+02  0.10566000000E+00 0.  1.
         22    1    1    0    0    0  0.24974246819E+02  0.13586399983E+02  0.28212564932E+01  0.28570312510E+02  0.00000000000E+00 0.  1.
</event>
<event>
 5    1  0.1245610E-004  0.9118800E+02  0.7818608E-02  0.1130116E+00
         25   -1    0    0    0    0  0.00000000000E+00  0.00000000000E+00  0.99999998245E-14  0.12500000000E+03  0.12500000000E+03 0.  0.
        -13    1    3    3    0    0  0.71644162957E+00 -0.33497865759E+02 -0.84077636796E+01  0.34544492370E+02  0.10566000000E+00 0.  1.
         23    2    1    0    0    0  0.13887767883E+01  0.25052617780E+02  0.12814303397E+02  0.96826098421E+02  0.92636518745E+02 0.  0.
         13    1    3    3    0    0  0.67233515873E+00  0.58550483539E+02  0.21222067077E+02  0.62281606051E+02  0.10566000000E+00 0. -1.
         22    1    1    0    0    0 -0.13887767883E+01 -0.25052617780E+02 -0.12814303397E+02  0.28173901579E+02  0.00000000000E+00 0. -1.
</event>
<event>
 5    1  0.1245610E-004  0.9118800E+02  0.7818608E-02  0.1130116E+00
         25   -1    0    0    0    0  0.00000000000E+00  0.00000000000E+00  0.99999998245E-14  0.12500000000E+03  0.12500000000E+03 0.  0.
        -13    1    3    3    0    0  0.21836903982E+01  0.36072599838E+02 -0.28817243228E+01  0.36253502754E+02  0.10566000000E+00 0. -1.
         23    2    1    0    0    0  0.10767407712E+02 -0.83973072095E+01  0.29877483560E+02  0.92150101049E+02  0.86096023498E+02 0.  0.
         13    1    3    3    0    0  0.85837173142E+01 -0.44469907048E+02  0.32759207883E+02  0.55896598295E+02  0.10566000000E+00 0.  1.
         22    1    1    0    0    0 -0.10767407712E+02  0.83973072095E+01 -0.29877483560E+02  0.32849898951E+02  0.00000000000E+00 0.  1.
</event>
<event>
 5    1  0.1245610E-004  0.9118800E+02  0.7818608E-02  0.1130116E+00
         25   -1    0    0    0    0  0.00000000000E+00  0.00000000000E+00  0.99999998245E-14  0.12500000000E+03  0.12500000000E+03 0.  0.
        -13    1    3    3    0    0 -0.26990638272E+02 -0.45569126012E+00 -0.48554206755E+02  0.55553797049E+02  0.10566000000E+00 0.  1.
         23    2    1    0    0    0 -0.21358420063E+02 -0.14764823761E+02 -0.98008187623E+01  0.97246834835E+02  0.93202514498E+02 0.  0.
         13    1    3    3    0    0  0.56322182082E+01 -0.14309132500E+02  0.38753387993E+02  0.41693037786E+02  0.10566000000E+00 0. -1.
         22    1    1    0    0    0  0.21358420063E+02  0.14764823761E+02  0.98008187623E+01  0.27753165165E+02  0.00000000000E+00 0.  1.
</event>
<event>
 5    1  0.1245610E-004  0.9118800E+02  0.7818608E-02  0.1130116E+00
         25   -1    0    0    0    0  0.00000000000E+00  0.00000000000E+00  0.99999998245E-14  0.12500000000E+03  0.12500000000E+03 0.  0.
        -13    1    3    3    0    0 -0.11732681453E+01 -0.10165318518E+02 -0.38574477460E+02  0.39908792691E+02  0.10566000000E+00 0. -1.
         23    2    1    0    0    0 -0.27945080011E+02 -0.14058242049E+02  0.70336235846E+01  0.92937038081E+02  0.87231069695E+02 0.  0.
         13    1    3    3    0    0 -0.26771811866E+02 -0.38929235303E+01  0.45608101044E+02  0.53028245390E+02  0.10566000000E+00 0.  1.
         22    1    1    0    0    0  0.27945080011E+02  0.14058242049E+02 -0.70336235846E+01  0.32062961919E+02  0.00000000000E+00 0. -1.
</event>
<event>
 5    1  0.1245610E-004  0.9118800E+02  0.7818608E-02  0.1130116E+00
         25   -1    0    0    0    0  0.00000000000E+00  0.00000000000E+00  0.99999998245E-14  0.12500000000E+03  0.12500000000E+03 0.  0.
        -13    1    3    3    0    0  0.32108806594E+02  0.20257370269E+02  0.25552110600E+02  0.45763064050E+02  0.10566000000E+00 0.  1.
         23    2    1    0    0    0 -0.58987569551E-01  0.25298933241E+02 -0.13269888881E+02  0.96432020485E+02  0.92103230786E+02 0.  0.
         13    1    3    3    0    0 -0.32167794163E+02  0.50415629720E+01 -0.38821999481E+02  0.50668956435E+02  0.10566000000E+00 0. -1.
         22    1    1    0    0    0  0.58987569551E-01 -0.25298933241E+02  0.13269888881E+02  0.28567979515E+02  0.00000000000E+00 0. -1.
</event>
<event>
 5    1  0.1245610E-004  0.9118800E+02  0.7818608E-02  0.1130116E+00
         25   -1    0    0    0    0  0.00000000000E+00  0.00000000000E+00  0.99999998245E-14  0.12500000000E+03  0.12500000000E+03 0.  0.
        -13    1    3    3    0    0  0.38974493292E+02 -0.35919397023E+01  0.11660076575E+02  0.40839707491E+02  0.10566000000E+00 0. -1.
         23    2    1    0    0    0 -0.41033625447E+01 -0.23128106790E+02 -0.16871589552E+02  0.96079463319E+02  0.91623500423E+02 0.  0.
         13    1    3    3    0    0 -0.43077855836E+02 -0.19536167088E+02 -0.28531666127E+02  0.55239755828E+02  0.10566000000E+00 0.  1.
         22    1    1    0    0    0  0.41033625447E+01  0.23128106790E+02  0.16871589552E+02  0.28920536681E+02  0.00000000000E+00 0.  1.
</event>
<event>
 5    1  0.1245610E-004  0.9118800E+02  0.7818608E-02  0.1130116E+00
         25   -1    0    0    0    0  0.00000000000E+00  0.00000000000E+00  0.99999998245E-14  0.12500000000E+03  0.12500000000E+03 0.  0.
        -13    1    3    3    0    0 -0.29209196220E+02 -0.27278661958E+02 -0.14074868146E+02  0.42372344983E+02  0.10566000000E+00 0. -1.
         23    2    1    0    0    0 -0.20171798931E+02  0.61418607408E+00  0.26036763004E+02  0.92057751680E+02  0.85961839906E+02 0.  0.
         13    1    3    3    0    0  0.90373972889E+01  0.27892848032E+02  0.40111631150E+02  0.49685406697E+02  0.10566000000E+00 0.  1.
         22    1    1    0    0    0  0.20171798931E+02 -0.61418607408E+00 -0.26036763004E+02  0.32942248320E+02  0.00000000000E+00 0. -1.
</event>
<event>
 5    1  0.1245610E-004  0.9118800E+02  0.7818608E-02  0.1130116E+00
         25   -1    0    0    0    0  0.00000000000E+00  0.00000000000E+00  0.99999998245E-14  0.12500000000E+03  0.12500000000E+03 0.  0.
        -13    1    3    3    0    0  0.30402827378E+02  0.88518209690E+01 -0.20263094131E+02  0.37593760052E+02  0.10566000000E+00 0.  1.
         23    2    1    0    0    0  0.27198926182E+02 -0.99222570377E+01  0.25029889033E+02  0.86728233446E+02  0.77827105571E+02 0.  0.
         13    1    3    3    0    0 -0.32039011960E+01 -0.18774078007E+02  0.45292983163E+02  0.49134473394E+02  0.10566000000E+00 0. -1.
         22    1    1    0    0    0 -0.27198926182E+02  0.99222570377E+01 -0.25029889033E+02  0.38271766554E+02  0.00000000000E+00 0. -1.
</event>
<event>
 5    1  0.1245610E-004  0.9118800E+02  0.7818608E-02  0.1130116E+00
         25   -1    0    0    0    0  0.00000000000E+00  0.00000000000E+00  0.99999998245E-14  0.12500000000E+03  0.12500000000E+03 0.  0.
        -13    1    3    3    0    0  0.16785901746E+02 -0.57761836042E+02 -0.32432339793E+00  0.60152411008E+02  0.10566000000E+00 0.  1.
         23    2    1    0    0    0  0.18856087877E+02 -0.21974282489E+02 -0.13288816601E+01  0.96014019468E+02  0.91534173220E+02 0.  0.
         13    1    3    3    0    0  0.20701861308E+01  0.35787553554E+02 -0.10045582621E+01  0.35861608460E+02  0.10566000000E+00 0. -1.
         22    1    1    0    0    0 -0.18856087877E+02  0.21974282489E+02  0.13288816601E+01  0.28985980532E+02  0.00000000000E+00 0.  1.
</event>
<event>
 5    1  0.1245610E-004  0.9118800E+02  0.7818608E-02  0.1130116E+00
         25   -1    0    0    0    0  0.00000000000E+00  0.00000000000E+00  0.99999998245E-14  0.12500000000E+03  0.12500000000E+03 0.  0.
        -13    1    3    3    0    0  0.47659172090E+02 -0.29402383144E+02 -0.22746417123E+02  0.60442596526E+02  0.10566000000E+00 0.  1.
         23    2    1    0    0    0  0.27980419197E+02 -0.50192328128E+01 -0.60915783983E+01  0.95927609595E+02  0.91416094856E+02 0.  0.
         13    1    3    3    0    0 -0.19678752893E+02  0.24383150332E+02  0.16654838724E+02  0.35485013069E+02  0.10566000000E+00 0. -1.
         22    1    1    0    0    0 -0.27980419197E+02  0.50192328128E+01  0.60915783983E+01  0.29072390405E+02  0.00000000000E+00 0.  1.
</event>
<event>
 5    1  0.1245610E-004  0.9118800E+02  0.7818608E-02  0.1130116E+00
         25   -1    0    0    0    0  0.00000000000E+00  0.00000000000E+00  0.99999998245E-14  0.12500000000E+03  0.12500000000E+03 0.  0.
        -13    1    3    3    0    0  0.37271146473E+01 -0.12566352152E+02 -0.36357028591E+02  0.38647759082E+02  0.10566000000E+00 0.  1.
         23    2    1    0    0    0  0.25166959512E+01  0.28236916158E+02  0.43759356222E+01  0.96315404741E+02  0.91944826854E+02 0.  0.
         13    1    3    3    0    0 -0.12104186962E+01  0.40803268310E+02  0.40732964214E+02  0.57667645659E+02  0.10566000000E+00 0. -1.
         22    1    1    0    0    0 -0.25166959512E+01 -0.28236916158E+02 -0.43759356222E+01  0.28684595259E+02  0.00000000000E+00 0. -1.
</event>
<event>
 5    1  0.1245610E-004  0.9118800E+02  0.7818608E-02  0.1130116E+00
         25   -1    0    0    0    0  0.00000000000E+00  0.00000000000E+00  0.99999998245E-14  0.12500000000E+03  0.12500000000E+03 0.  0.
        -13    1    3    3    0    0  0.18309013325E+02 -0.12390488034E+02 -0.32799999911E+02  0.39554965818E+02  0.10566000000E+00 0. -1.
         23    2    1    0    0    0 -0.28718449336E+02  0.85114647364E+00 -0.47858022030E+01  0.95873076281E+02  0.91341496978E+02 0.  0.
         13    1    3    3    0    0 -0.47027462661E+02  0.13241634508E+02  0.28014197708E+02  0.56318110463E+02  0.10566000000E+00 0.  1.
         22    1    1    0    0    0  0.28718449336E+02 -0.85114647364E+00  0.47858022030E+01  0.29126923719E+02  0.00000000000E+00 0.  1.
</event>
<event>
 5    1  0.1245610E-004  0.9118800E+02  0.7818608E-02  0.1130116E+00
         25   -1    0    0    0    0  0.00000000000E+00  0.00000000000E+00  0.99999998245E-14  0.12500000000E+03  0.12500000000E+03 0.  0.
        -13    1    3    3    0    0 -0.42550389863E+02  0.41226323141E+02  0.19814017094E+02  0.62472008409E+02  0.10566000000E+00 0. -1.
         23    2    1    0    0    0 -0.19687367992E+02  0.17422063229E+02  0.81925721083E+01  0.97463860413E+02  0.93493128642E+02 0.  0.
         13    1    3    3    0    0  0.22863021872E+02 -0.23804259911E+02 -0.11621444986E+02  0.34991852003E+02  0.10566000000E+00 0.  1.
         22    1    1    0    0    0  0.19687367992E+02 -0.17422063229E+02 -0.81925721083E+01  0.27536139587E+02  0.00000000000E+00 0. -1.
</event>
<event>
 5    1  0.1245610E-004  0.9118800E+02  0.7818608E-02  0.1130116E+00
         25   -1    0    0    0    0  0.00000000000E+00  0.00000000000E+00  0.99999998245E-14  0.12500000000E+03  0.12500000000E+03 0.  0.
        -13    1    3    3    0    0  0.34803301714E+02  0.13390535869E+02  0.55524506945E+00  0.37294714400E+02  0.10566000000E+00 0.  1.
         23    2    1    0    0    0 -0.67019855575E+01 -0.18434818374E+02  0.23483431682E+02  0.94402112778E+02  0.89305812770E+02 0.  0.
         13    1    3    3    0    0 -0.41505287271E+02 -0.31825354243E+02  0.22928186613E+02  0.57107398378E+02  0.10566000000E+00 0. -1.
         22    1    1    0    0    0  0.67019855575E+01  0.18434818374E+02 -0.23483431682E+02  0.30597887222E+02  0.00000000000E+00 0. -1.
</event>
<event>
 5    1  0.1245610E-004  0.9118800E+02  0.7818608E-02  0.1130116E+00
         25   -1    0    0    0    0  0.00000000000E+00  0.00000000000E+00  0.99999998245E-14  0.12500000000E+03  0.12500000000E+03 0.  0.
        -13    1    3    3    0    0  0.49879541828E+02 -0.27346027920E+02  0.14032037799E+02  0.58589104659E+02  0.10566000000E+00 0. -1.
         23    2    1    0    0    0  0.15211867611E+02 -0.14430530720E+02  0.19953487617E+02  0.96055522095E+02  0.91590832094E+02 0.  0.
         13    1    3    3    0    0 -0.34667674216E+02  0.12915497199E+02  0.59214498184E+01  0.37466417436E+02  0.10566000000E+00 0.  1.
         22    1    1    0    0    0 -0.15211867611E+02  0.14430530720E+02 -0.19953487617E+02  0.28944477905E+02  0.00000000000E+00 0. -1.
</event>
<event>
 5    1  0.1245610E-004  0.9118800E+02  0.7818608E-02  0.1130116E+00
         25   -1    0    0    0    0  0.00000000000E+00  0.00000000000E+00  0.99999998245E-14  0.12500000000E+03  0.12500000000E+03 0.  0.
        -13    1    3    3    0    0  0.40195803364E+02 -0.25496603257E+02 -0.32687169017E+02  0.57742891927E+02  0.10566000000E+00 0. -1.
         23    2    1    0    0    0  0.26612952675E+02  0.25891392524E+01 -0.94620833228E+01  0.96636574379E+02  0.92380428634E+02 0.  0.
         13    1    3    3    0    0 -0.13582850688E+02  0.28085742509E+02  0.23225085694E+02  0.38893682452E+02  0.10566000000E+00 0.  1.
         22    1    1    0    0    0 -0.26612952675E+02 -0.25891392524E+01  0.94620833228E+01  0.28363425621E+02  0.00000000000E+00 0. -1.
</event>
<event>
 5    1  0.1245610E-004  0.9118800E+02  0.7818608E-02  0.1130116E+00
         25   -1    0    0    0    0  0.00000000000E+00  0.00000000000E+00  0.99999998245E-14  0.12500000000E+03  0.12500000000E+03 0.  0.
        -13    1    3    3    0    0 -0.55696939550E+02  0.84669904257E+01 -0.18970470708E+02  0.59445175793E+02  0.10566000000E+00 0. -1.
         23    2    1    0    0    0 -0.25196385547E+02  0.16168382244E+02 -0.24898444258E+01  0.94958799053E+02  0.90081628334E+02 0.  0.
         13    1    3    3    0    0  0.30500554003E+02  0.77013918184E+01  0.16480626282E+02  0.35513623261E+02  0.10566000000E+00 0.  1.
         22    1    1    0    0    0  0.25196385547E+02 -0.16168382244E+02  0.24898444258E+01  0.30041200947E+02  0.00000000000E+00 0. -1.
</event>
<event>
 5    1  0.1245610E-004  0.9118800E+02  0.7818608E-02  0.1130116E+00
         25   -1    0    0    0    0  0.00000000000E+00  0.00000000000E+00  0.99999998245E-14  0.12500000000E+03  0.12500000000E+03 0.  0.
        -13    1    3    3    0    0  0.18207200220E+01  0.50827025961E+02  0.18029723597E+02  0.53960945937E+02  0.10566000000E+00 0. -1.
         23    2    1    0    0    0 -0.22066614629E+02  0.21647223199E+02  0.63077054871E+01  0.93451229788E+02  0.87964808003E+02 0.  0.
         13    1    3    3    0    0 -0.23887334651E+02 -0.29179802762E+02 -0.11722018110E+02  0.39490283850E+02  0.10566000000E+00 0.  1.
         22    1    1    0    0    0  0.22066614629E+02 -0.21647223199E+02 -0.63077054871E+01  0.31548770212E+02  0.00000000000E+00 0. -1.
</event>
<event>
 5    1  0.1245610E-004  0.9118800E+02  0.7818608E-02  0.1130116E+00
         25   -1    0    0    0    0  0.00000000000E+00  0.00000000000E+00  0.99999998245E-14  0.12500000000E+03  0.12500000000E+03 0.  0.
        -13    1    3    3    0    0  0.50125531467E+02 -0.14843358608E+02 -0.24283925300E+02  0.57642123413E+02  0.10566000000E+00 0.  1.
         23    2    1    0    0    0  0.29701522056E+02 -0.16238037914E+02 -0.30910676289E+02  0.79159797160E+02  0.64536418324E+02 0.  0.
         13    1    3    3    0    0 -0.20424009411E+02 -0.13946793063E+01 -0.66267509894E+01  0.21517673747E+02  0.10566000000E+00 0. -1.
         22    1    1    0    0    0 -0.29701522056E+02  0.16238037914E+02  0.30910676289E+02  0.45840202840E+02  0.00000000000E+00 0.  1.
</event>
<event>
 5    1  0.1245610E-004  0.9118800E+02  0.7818608E-02  0.1130116E+00
         25   -1    0    0    0    0  0.00000000000E+00  0.00000000000E+00  0.99999998245E-14  0.12500000000E+03  0.12500000000E+03 0.  0.
        -13    1    3    3    0    0 -0.22493668856E+02 -0.33068801471E+02 -0.12501541695E+02  0.41902392272E+02  0.10566000000E+00 0.  1.
         23    2    1    0    0    0 -0.36545745417E+02 -0.18394268449E+02  0.19396160129E+02  0.79721399673E+02  0.65615165306E+02 0.  0.
         13    1    3    3    0    0 -0.14052076561E+02  0.14674533022E+02  0.31897701824E+02  0.37819007401E+02  0.10566000000E+00 0. -1.
         22    1    1    0    0    0  0.36545745417E+02  0.18394268449E+02 -0.19396160129E+02  0.45278600327E+02  0.00000000000E+00 0. -1.
</event>
<event>
 5    1  0.1245610E-004  0.9118800E+02  0.7818608E-02  0.1130116E+00
         25   -1    0    0    0    0  0.00000000000E+00  0.00000000000E+00  0.99999998245E-14  0.12500000000E+03  0.12500000000E+03 0.  0.
        -13    1    3    3    0    0 -0.18218881411E+00 -0.25029224617E+02 -0.38845392161E+02  0.46211155946E+02  0.10566000000E+00 0. -1.
         23    2    1    0    0    0 -0.96681316994E+01 -0.34166531276E+02  0.23040942855E+01  0.89417230568E+02  0.82032357286E+02 0.  0.
         13    1    3    3    0    0 -0.94859428853E+01 -0.91373066594E+01  0.41149486446E+02  0.43206074622E+02  0.10566000000E+00 0.  1.
         22    1    1    0    0    0  0.96681316994E+01  0.34166531276E+02 -0.23040942855E+01  0.35582769432E+02  0.00000000000E+00 0.  1.
</event>
<event>
 5    1  0.1245610E-004  0.9118800E+02  0.7818608E-02  0.1130116E+00
         25   -1    0    0    0    0  0.00000000000E+00  0.00000000000E+00  0.99999998245E-14  0.12500000000E+03  0.12500000000E+03 0.  0.
        -13    1    3    3    0    0 -0.35567411154E+02 -0.44365485368E+01 -0.13829385543E+02  0.38418573212E+02  0.10566000000E+00 0. -1.
         23    2    1    0    0    0  0.70178284868E+01  0.29382378931E+02  0.96571688683E+00  0.94775726354E+02  0.89827231887E+02 0.  0.
         13    1    3    3    0    0  0.42585239641E+02  0.33818927468E+02  0.14795102430E+02  0.56357153142E+02  0.10566000000E+00 0.  1.
         22    1    1    0    0    0 -0.70178284868E+01 -0.29382378931E+02 -0.96571688683E+00  0.30224273646E+02  0.00000000000E+00 0.  1.
</event>
<event>
 5    1  0.1245610E-004  0.9118800E+02  0.7818608E-02  0.1130116E+00
         25   -1    0    0    0    0  0.00000000000E+00  0.00000000000E+00  0.99999998245E-14  0.12500000000E+03  0.12500000000E+03 0.  0.
        -13    1    3    3    0    0  0.24742545300E+02  0.16674286439E+02 -0.51648022071E+01  0.30280550227E+02  0.10566000000E+00 0.  1.
         23    2    1    0    0    0 -0.23630902948E+02 -0.21109859968E+02  0.62201063359E+01  0.92708584968E+02  0.86903085342E+02 0.  0.
         13    1    3    3    0    0 -0.48373448247E+02 -0.37784146407E+02  0.11384908543E+02  0.62428034741E+02  0.10566000000E+00 0. -1.
         22    1    1    0    0    0  0.23630902948E+02  0.21109859968E+02 -0.62201063359E+01  0.32291415032E+02  0.00000000000E+00 0. -1.
</event>
<event>
 5    1  0.1245610E-004  0.9118800E+02  0.7818608E-02  0.1130116E+00
         25   -1    0    0    0    0  0.00000000000E+00  0.00000000000E+00  0.99999998245E-14  0.12500000000E+03  0.12500000000E+03 0.  0.
        -13    1    3    3    0    0  0.16911669316E+02 -0.41741942507E+01  0.45953708295E+02  0.49144510647E+02  0.10566000000E+00 0.  1.
         23    2    1    0    0    0 -0.20631790021E+02  0.55687886559E+01  0.19278281536E+02  0.96219202486E+02  0.91813945681E+02 0.  0.
         13    1    3    3    0    0 -0.37543459337E+02  0.97429829067E+01 -0.26675426759E+02  0.47074691839E+02  0.10566000000E+00 0. -1.
         22    1    1    0    0    0  0.20631790021E+02 -0.55687886559E+01 -0.19278281536E+02  0.28780797514E+02  0.00000000000E+00 0. -1.
</event>
<event>
 5    1  0.1245610E-004  0.9118800E+02  0.7818608E-02  0.1130116E+00
         25   -1    0    0    0    0  0.00000000000E+00  0.00000000000E+00  0.99999998245E-14  0.12500000000E+03  0.12500000000E+03 0.  0.
        -13    1    3    3    0    0 -0.20875950878E+02  0.11865668806E+02  0.23832170313E+02  0.33831685254E+02  0.10566000000E+00 0. -1.
         23    2    1    0    0    0  0.14489013909E+02 -0.18893871290E+01 -0.25223067329E+02  0.95850309894E+02  0.91310336072E+02 0.  0.
         13    1    3    3    0    0  0.35364964786E+02 -0.13755055935E+02 -0.49055237642E+02  0.62018624640E+02  0.10566000000E+00 0.  1.
         22    1    1    0    0    0 -0.14489013909E+02  0.18893871290E+01  0.25223067329E+02  0.29149690106E+02  0.00000000000E+00 0.  1.
</event>
<event>
 5    1  0.1245610E-004  0.9118800E+02  0.7818608E-02  0.1130116E+00
         25   -1    0    0    0    0  0.00000000000E+00  0.00000000000E+00  0.99999998245E-14  0.12500000000E+03  0.12500000000E+03 0.  0.
        -13    1    3    3    0    0 -0.37846843600E+02  0.13387789981E+02 -0.15579747508E+02  0.43062236211E+02  0.10566000000E+00 0. -1.
         23    2    1    0    0    0  0.14915720058E+02  0.14624304336E+02 -0.20072294868E+02  0.96030257104E+02  0.91556344816E+02 0.  0.
         13    1    3    3    0    0  0.52762563658E+02  0.12365143541E+01 -0.44925473604E+01  0.52968020893E+02  0.10566000000E+00 0.  1.
         22    1    1    0    0    0 -0.14915720058E+02 -0.14624304336E+02  0.20072294868E+02  0.28969742896E+02  0.00000000000E+00 0.  1.
</event>
<event>
 5    1  0.1245610E-004  0.9118800E+02  0.7818608E-02  0.1130116E+00
         25   -1    0    0    0    0  0.00000000000E+00  0.00000000000E+00  0.99999998245E-14  0.12500000000E+03  0.12500000000E+03 0.  0.
        -13    1    3    3    0    0  0.21034814056E+01 -0.22102785789E+02 -0.30697227865E+02  0.37885204715E+02  0.10566000000E+00 0. -1.
         23    2    1    0    0    0  0.11577040151E+02 -0.89588084579E+01  0.25075814594E+02  0.95964081120E+02  0.91465951480E+02 0.  0.
         13    1    3    3    0    0  0.94735587459E+01  0.13143977331E+02  0.55773042459E+02  0.58078876405E+02  0.10566000000E+00 0.  1.
         22    1    1    0    0    0 -0.11577040151E+02  0.89588084579E+01 -0.25075814594E+02  0.29035918880E+02  0.00000000000E+00 0.  1.
</event>
<event>
 5    1  0.1245610E-004  0.9118800E+02  0.7818608E-02  0.1130116E+00
         25   -1    0    0    0    0  0.00000000000E+00  0.00000000000E+00  0.99999998245E-14  0.12500000000E+03  0.12500000000E+03 0.  0.
        -13    1    3    3    0    0 -0.29022945418E+02  0.31517945419E+02 -0.23263310413E+02  0.48753512895E+02  0.10566000000E+00 0. -1.
         23    2    1    0    0    0  0.96958648718E+01  0.27831751707E+02  0.25242320273E+01  0.95419804835E+02  0.90719078527E+02 0.  0.
         13    1    3    3    0    0  0.38718810289E+02 -0.36861937127E+01  0.25787542440E+02  0.46666291940E+02  0.10566000000E+00 0.  1.
         22    1    1    0    0    0 -0.96958648718E+01 -0.27831751707E+02 -0.25242320273E+01  0.29580195165E+02  0.00000000000E+00 0. -1.
</event>
<event>
 5    1  0.1245610E-004  0.9118800E+02  0.7818608E-02  0.1130116E+00
         25   -1    0    0    0    0  0.00000000000E+00  0.00000000000E+00  0.99999998245E-14  0.12500000000E+03  0.12500000000E+03 0.  0.
        -13    1    3    3    0    0 -0.48558263556E+02 -0.11733764130E+02  0.34350898231E+02  0.60626574648E+02  0.10566000000E+00 0. -1.
         23    2    1    0    0    0 -0.27008126665E+02 -0.12859605136E+02  0.93355522745E+01  0.93663744856E+02  0.88266280164E+02 0.  0.
         13    1    3    3    0    0  0.21550136891E+02 -0.11258410054E+01 -0.25015345957E+02  0.33037170208E+02  0.10566000000E+00 0.  1.
         22    1    1    0    0    0  0.27008126665E+02  0.12859605136E+02 -0.93355522745E+01  0.31336255144E+02  0.00000000000E+00 0. -1.
</event>
<event>
 5    1  0.1245610E-004  0.9118800E+02  0.7818608E-02  0.1130116E+00
         25   -1    0    0    0    0  0.00000000000E+00  0.00000000000E+00  0.99999998245E-14  0.12500000000E+03  0.12500000000E+03 0.  0.
        -13    1    3    3    0    0  0.78819053038E+01 -0.47281409013E+02  0.32993632100E+01  0.48047404000E+02  0.10566000000E+00 0. -1.
         23    2    1    0    0    0  0.67045522482E+01  0.26162761471E+01 -0.20449423098E+02  0.10332109720E+03  0.10102115768E+03 0.  0.
         13    1    3    3    0    0 -0.11773530556E+01  0.49897685160E+02 -0.23748786308E+02  0.55273693197E+02  0.10566000000E+00 0.  1.
         22    1    1    0    0    0 -0.67045522482E+01 -0.26162761471E+01  0.20449423098E+02  0.21678902803E+02  0.00000000000E+00 0.  1.
</event>
<event>
 5    1  0.1245610E-004  0.9118800E+02  0.7818608E-02  0.1130116E+00
         25   -1    0    0    0    0  0.00000000000E+00  0.00000000000E+00  0.99999998245E-14  0.12500000000E+03  0.12500000000E+03 0.  0.
        -13    1    3    3    0    0  0.20819505045E+02 -0.50742551888E+02  0.20513465426E+02  0.58558276873E+02  0.10566000000E+00 0.  1.
         23    2    1    0    0    0  0.14848808517E+02 -0.15622964649E+02 -0.56032142535E+01  0.10272983725E+03  0.10028688505E+03 0.  0.
         13    1    3    3    0    0 -0.59706965277E+01  0.35119587239E+02 -0.26116679680E+02  0.44171560380E+02  0.10566000000E+00 0. -1.
         22    1    1    0    0    0 -0.14848808517E+02  0.15622964649E+02  0.56032142535E+01  0.22270162747E+02  0.00000000000E+00 0.  1.
</event>
<event>
 5    1  0.1245610E-004  0.9118800E+02  0.7818608E-02  0.1130116E+00
         25   -1    0    0    0    0  0.00000000000E+00  0.00000000000E+00  0.99999998245E-14  0.12500000000E+03  0.12500000000E+03 0.  0.
        -13    1    3    3    0    0  0.48763684177E+02  0.27871046363E+02  0.19285296037E+02  0.59385401634E+02  0.10566000000E+00 0.  1.
         23    2    1    0    0    0  0.27772033905E+02  0.50076336273E+00  0.47318686458E+01  0.96823285996E+02  0.92632723694E+02 0.  0.
         13    1    3    3    0    0 -0.20991650272E+02 -0.27370283001E+02 -0.14553427391E+02  0.37437884363E+02  0.10566000000E+00 0. -1.
         22    1    1    0    0    0 -0.27772033905E+02 -0.50076336273E+00 -0.47318686458E+01  0.28176714004E+02  0.00000000000E+00 0.  1.
</event>
<event>
 5    1  0.1245610E-004  0.9118800E+02  0.7818608E-02  0.1130116E+00
         25   -1    0    0    0    0  0.00000000000E+00  0.00000000000E+00  0.99999998245E-14  0.12500000000E+03  0.12500000000E+03 0.  0.
        -13    1    3    3    0    0 -0.41107173334E+01  0.74599488883E+01  0.48666159967E+02  0.49406023159E+02  0.10566000000E+00 0.  1.
         23    2    1    0    0    0  0.15163278621E+02  0.26640317667E+02  0.25739659217E+02  0.84972989113E+02  0.74954968336E+02 0.  0.
         13    1    3    3    0    0  0.19273995954E+02  0.19180368779E+02 -0.22926500750E+02  0.35566965954E+02  0.10566000000E+00 0. -1.
         22    1    1    0    0    0 -0.15163278621E+02 -0.26640317667E+02 -0.25739659217E+02  0.40027010887E+02  0.00000000000E+00 0.  1.
</event>
<event>
 5    1  0.1245610E-004  0.9118800E+02  0.7818608E-02  0.1130116E+00
         25   -1    0    0    0    0  0.00000000000E+00  0.00000000000E+00  0.99999998245E-14  0.12500000000E+03  0.12500000000E+03 0.  0.
        -13    1    3    3    0    0  0.10810848816E+01  0.35358827723E+02  0.58404961562E+01  0.35854400035E+02  0.10566000000E+00 0. -1.
         23    2    1    0    0    0 -0.14311314841E+02 -0.18028194851E+02 -0.17465112259E+02  0.96106061392E+02  0.91659780427E+02 0.  0.
         13    1    3    3    0    0 -0.15392399723E+02 -0.53387022575E+02 -0.23305608415E+02  0.60251661357E+02  0.10566000000E+00 0.  1.
         22    1    1    0    0    0  0.14311314841E+02  0.18028194851E+02  0.17465112259E+02  0.28893938608E+02  0.00000000000E+00 0.  1.
</event>
<event>
 5    1  0.1245610E-004  0.9118800E+02  0.7818608E-02  0.1130116E+00
         25   -1    0    0    0    0  0.00000000000E+00  0.00000000000E+00  0.99999998245E-14  0.12500000000E+03  0.12500000000E+03 0.  0.
        -13    1    3    3    0    0 -0.45984477243E+01 -0.30383307845E+02  0.72294708384E+00  0.30738004711E+02  0.10566000000E+00 0. -1.
         23    2    1    0    0    0  0.16306610101E+02  0.20604790300E+02  0.22904471648E+02  0.90142034802E+02  0.83129469507E+02 0.  0.
         13    1    3    3    0    0  0.20905057826E+02  0.50988098144E+02  0.22181524564E+02  0.59404030091E+02  0.10566000000E+00 0.  1.
         22    1    1    0    0    0 -0.16306610101E+02 -0.20604790300E+02 -0.22904471648E+02  0.34857965198E+02  0.00000000000E+00 0.  1.
</event>
<event>
 5    1  0.1245610E-004  0.9118800E+02  0.7818608E-02  0.1130116E+00
         25   -1    0    0    0    0  0.00000000000E+00  0.00000000000E+00  0.99999998245E-14  0.12500000000E+03  0.12500000000E+03 0.  0.
        -13    1    3    3    0    0 -0.28961838738E+02 -0.12315460432E+02  0.29342530185E+00  0.31473098532E+02  0.10566000000E+00 0.  1.
         23    2    1    0    0    0  0.23968313600E+02  0.20191703222E+02  0.18208916412E+01  0.93607316422E+02  0.88186331739E+02 0.  0.
         13    1    3    3    0    0  0.52930152338E+02  0.32507163654E+02  0.15274663394E+01  0.62134217890E+02  0.10566000000E+00 0. -1.
         22    1    1    0    0    0 -0.23968313600E+02 -0.20191703222E+02 -0.18208916412E+01  0.31392683578E+02  0.00000000000E+00 0. -1.
</event>
<event>
 5    1  0.1245610E-004  0.9118800E+02  0.7818608E-02  0.1130116E+00
         25   -1    0    0    0    0  0.00000000000E+00  0.00000000000E+00  0.99999998245E-14  0.12500000000E+03  0.12500000000E+03 0.  0.
        -13    1    3    3    0    0  0.21843109169E+02 -0.23920898467E+02 -0.22182154211E+02  0.39260539109E+02  0.10566000000E+00 0.  1.
         23    2    1    0    0    0 -0.18780303773E+02 -0.13068894671E+02  0.16812553241E+02  0.96607082499E+02  0.92340514536E+02 0.  0.
         13    1    3    3    0    0 -0.40623412942E+02  0.10852003796E+02  0.38994707453E+02  0.57346543390E+02  0.10566000000E+00 0. -1.
         22    1    1    0    0    0  0.18780303773E+02  0.13068894671E+02 -0.16812553241E+02  0.28392917501E+02  0.00000000000E+00 0. -1.
</event>
<event>
 5    1  0.1245610E-004  0.9118800E+02  0.7818608E-02  0.1130116E+00
         25   -1    0    0    0    0  0.00000000000E+00  0.00000000000E+00  0.99999998245E-14  0.12500000000E+03  0.12500000000E+03 0.  0.
        -13    1    3    3    0    0 -0.54374165642E+01 -0.25092196611E+02 -0.31140064511E+02  0.40359616096E+02  0.10566000000E+00 0. -1.
         23    2    1    0    0    0  0.26988719992E+02 -0.17256710135E+01  0.85001610984E+01  0.96651778081E+02  0.92400998481E+02 0.  0.
         13    1    3    3    0    0  0.32426136557E+02  0.23366525598E+02  0.39640225609E+02  0.56292161985E+02  0.10566000000E+00 0.  1.
         22    1    1    0    0    0 -0.26988719992E+02  0.17256710135E+01 -0.85001610984E+01  0.28348221919E+02  0.00000000000E+00 0.  1.
</event>
<event>
 5    1  0.1245610E-004  0.9118800E+02  0.7818608E-02  0.1130116E+00
         25   -1    0    0    0    0  0.00000000000E+00  0.00000000000E+00  0.99999998245E-14  0.12500000000E+03  0.12500000000E+03 0.  0.
        -13    1    3    3    0    0  0.99340685227E+01 -0.30946526497E+02 -0.35168905005E+02  0.47887746480E+02  0.10566000000E+00 0.  1.
         23    2    1    0    0    0 -0.22599577238E+02 -0.12176252862E+01 -0.20852517874E+02  0.94225806195E+02  0.89058697210E+02 0.  0.
         13    1    3    3    0    0 -0.32533645760E+02  0.29728901210E+02  0.14316387132E+02  0.46338059715E+02  0.10566000000E+00 0. -1.
         22    1    1    0    0    0  0.22599577238E+02  0.12176252862E+01  0.20852517874E+02  0.30774193805E+02  0.00000000000E+00 0. -1.
</event>
<event>
 5    1  0.1245610E-004  0.9118800E+02  0.7818608E-02  0.1130116E+00
         25   -1    0    0    0    0  0.00000000000E+00  0.00000000000E+00  0.99999998245E-14  0.12500000000E+03  0.12500000000E+03 0.  0.
        -13    1    3    3    0    0  0.10590060654E+01  0.51850540987E+02  0.16307748472E+02  0.54365006381E+02  0.10566000000E+00 0.  1.
         23    2    1    0    0    0  0.22018909184E+02  0.16462317110E+02  0.84457992553E+01  0.96239405928E+02  0.91841447517E+02 0.  0.
         13    1    3    3    0    0  0.20959903119E+02 -0.35388223877E+02 -0.78619492172E+01  0.41874399548E+02  0.10566000000E+00 0. -1.
         22    1    1    0    0    0 -0.22018909184E+02 -0.16462317110E+02 -0.84457992553E+01  0.28760594072E+02  0.00000000000E+00 0. -1.
</event>
<event>
 5    1  0.1245610E-004  0.9118800E+02  0.7818608E-02  0.1130116E+00
         25   -1    0    0    0    0  0.00000000000E+00  0.00000000000E+00  0.99999998245E-14  0.12500000000E+03  0.12500000000E+03 0.  0.
        -13    1    3    3    0    0  0.46345824616E+02 -0.17490536725E+02 -0.15751041559E+02  0.51980388691E+02  0.10566000000E+00 0. -1.
         23    2    1    0    0    0  0.15696090829E+02 -0.40935457893E+01  0.18866818067E+02  0.10011865742E+03  0.96977648743E+02 0.  0.
         13    1    3    3    0    0 -0.30649733787E+02  0.13396990935E+02  0.34617859627E+02  0.48138268732E+02  0.10566000000E+00 0.  1.
         22    1    1    0    0    0 -0.15696090829E+02  0.40935457893E+01 -0.18866818067E+02  0.24881342577E+02  0.00000000000E+00 0. -1.
</event>
<event>
 5    1  0.1245610E-004  0.9118800E+02  0.7818608E-02  0.1130116E+00
         25   -1    0    0    0    0  0.00000000000E+00  0.00000000000E+00  0.99999998245E-14  0.12500000000E+03  0.12500000000E+03 0.  0.
        -13    1    3    3    0    0  0.17236219841E+02  0.56205330024E+02 -0.81367159500E+01  0.59349336205E+02  0.10566000000E+00 0. -1.
         23    2    1    0    0    0  0.74708511221E+01  0.27135123397E+02  0.10181078243E+02  0.95070367653E+02  0.90236311500E+02 0.  0.
         13    1    3    3    0    0 -0.97653687187E+01 -0.29070206627E+02  0.18317794193E+02  0.35721031448E+02  0.10566000000E+00 0.  1.
         22    1    1    0    0    0 -0.74708511221E+01 -0.27135123397E+02 -0.10181078243E+02  0.29929632347E+02  0.00000000000E+00 0. -1.
</event>
<event>
 5    1  0.1245610E-004  0.9118800E+02  0.7818608E-02  0.1130116E+00
         25   -1    0    0    0    0  0.00000000000E+00  0.00000000000E+00  0.99999998245E-14  0.12500000000E+03  0.12500000000E+03 0.  0.
        -13    1    3    3    0    0 -0.88474637037E+01 -0.30075898079E+02  0.16921750581E+02  0.35625750041E+02  0.10566000000E+00 0.  1.
         23    2    1    0    0    0  0.24622218354E+01  0.33138279302E+01 -0.30224536104E+02  0.94494810694E+02  0.89435466530E+02 0.  0.
         13    1    3    3    0    0  0.11309685539E+02  0.33389726009E+02 -0.47146286684E+02  0.58869060653E+02  0.10566000000E+00 0. -1.
         22    1    1    0    0    0 -0.24622218354E+01 -0.33138279302E+01  0.30224536104E+02  0.30505189306E+02  0.00000000000E+00 0. -1.
</event>
<event>
 5    1  0.1245610E-004  0.9118800E+02  0.7818608E-02  0.1130116E+00
         25   -1    0    0    0    0  0.00000000000E+00  0.00000000000E+00  0.99999998245E-14  0.12500000000E+03  0.12500000000E+03 0.  0.
        -13    1    3    3    0    0  0.31814016325E+02  0.18686516424E+02 -0.15440477617E+01  0.36928481939E+02  0.10566000000E+00 0. -1.
         23    2    1    0    0    0  0.12974385948E+01 -0.29985084402E+02 -0.53993894920E+01  0.94505048936E+02  0.89449774925E+02 0.  0.
         13    1    3    3    0    0 -0.30516577730E+02 -0.48671600826E+02 -0.38553417303E+01  0.57576566997E+02  0.10566000000E+00 0.  1.
         22    1    1    0    0    0 -0.12974385948E+01  0.29985084402E+02  0.53993894920E+01  0.30494951064E+02  0.00000000000E+00 0.  1.
</event>
<event>
 5    1  0.1245610E-004  0.9118800E+02  0.7818608E-02  0.1130116E+00
         25   -1    0    0    0    0  0.00000000000E+00  0.00000000000E+00  0.99999998245E-14  0.12500000000E+03  0.12500000000E+03 0.  0.
        -13    1    3    3    0    0 -0.45456802506E+02  0.82870396089E+01 -0.20524193711E+02  0.50559367194E+02  0.10566000000E+00 0.  1.
         23    2    1    0    0    0 -0.32211745322E+02 -0.20258448060E+02 -0.24057707000E+01  0.86871415091E+02  0.78056734320E+02 0.  0.
         13    1    3    3    0    0  0.13245057184E+02 -0.28545487668E+02  0.18118423010E+02  0.36312047897E+02  0.10566000000E+00 0. -1.
         22    1    1    0    0    0  0.32211745322E+02  0.20258448060E+02  0.24057707000E+01  0.38128584909E+02  0.00000000000E+00 0.  1.
</event>
<event>
 5    1  0.1245610E-004  0.9118800E+02  0.7818608E-02  0.1130116E+00
         25   -1    0    0    0    0  0.00000000000E+00  0.00000000000E+00  0.99999998245E-14  0.12500000000E+03  0.12500000000E+03 0.  0.
        -13    1    3    3    0    0 -0.34870616418E+02  0.14804835230E+02  0.18697456752E+02  0.42246290826E+02  0.10566000000E+00 0.  1.
         23    2    1    0    0    0 -0.16017633995E+02 -0.26263880617E+02 -0.58699066520E+01  0.93682084553E+02  0.88292248460E+02 0.  0.
         13    1    3    3    0    0  0.18852982423E+02 -0.41068715847E+02 -0.24567363404E+02  0.51435793726E+02  0.10566000000E+00 0. -1.
         22    1    1    0    0    0  0.16017633995E+02  0.26263880617E+02  0.58699066520E+01  0.31317915447E+02  0.00000000000E+00 0. -1.
</event>
<event>
 5    1  0.1245610E-004  0.9118800E+02  0.7818608E-02  0.1130116E+00
         25   -1    0    0    0    0  0.00000000000E+00  0.00000000000E+00  0.99999998245E-14  0.12500000000E+03  0.12500000000E+03 0.  0.
        -13    1    3    3    0    0 -0.15461590044E+02 -0.29261529032E+02  0.23608610036E+02  0.40653111564E+02  0.10566000000E+00 0.  1.
         23    2    1    0    0    0 -0.16490725594E+02 -0.17008114005E+01 -0.24093197692E+02  0.95754163287E+02  0.91178620420E+02 0.  0.
         13    1    3    3    0    0 -0.10291355496E+01  0.27560717631E+02 -0.47701807728E+02  0.55101051722E+02  0.10566000000E+00 0. -1.
         22    1    1    0    0    0  0.16490725594E+02  0.17008114005E+01  0.24093197692E+02  0.29245836713E+02  0.00000000000E+00 0. -1.
</event>
<event>
 5    1  0.1245610E-004  0.9118800E+02  0.7818608E-02  0.1130116E+00
         25   -1    0    0    0    0  0.00000000000E+00  0.00000000000E+00  0.99999998245E-14  0.12500000000E+03  0.12500000000E+03 0.  0.
        -13    1    3    3    0    0  0.32817847424E+02  0.14286399664E+01 -0.45764984023E+02  0.56333800230E+02  0.10566000000E+00 0. -1.
         23    2    1    0    0    0  0.22500231779E+01 -0.13819420013E+02 -0.25102401907E+02  0.96256834633E+02  0.91865165641E+02 0.  0.
         13    1    3    3    0    0 -0.30567824246E+02 -0.15248059980E+02  0.20662582116E+02  0.39923034404E+02  0.10566000000E+00 0.  1.
         22    1    1    0    0    0 -0.22500231779E+01  0.13819420013E+02  0.25102401907E+02  0.28743165367E+02  0.00000000000E+00 0. -1.
</event>
<event>
 5    1  0.1245610E-004  0.9118800E+02  0.7818608E-02  0.1130116E+00
         25   -1    0    0    0    0  0.00000000000E+00  0.00000000000E+00  0.99999998245E-14  0.12500000000E+03  0.12500000000E+03 0.  0.
        -13    1    3    3    0    0 -0.40953480748E+02 -0.75810466328E+01 -0.13307754720E+02  0.43723761882E+02  0.10566000000E+00 0. -1.
         23    2    1    0    0    0 -0.10827313269E+02  0.16565115413E+02  0.21551295782E+02  0.95740948219E+02  0.91160501615E+02 0.  0.
         13    1    3    3    0    0  0.30126167479E+02  0.24146162046E+02  0.34859050501E+02  0.52017186337E+02  0.10566000000E+00 0.  1.
         22    1    1    0    0    0  0.10827313269E+02 -0.16565115413E+02 -0.21551295782E+02  0.29259051781E+02  0.00000000000E+00 0.  1.
</event>
<event>
 5    1  0.1245610E-004  0.9118800E+02  0.7818608E-02  0.1130116E+00
         25   -1    0    0    0    0  0.00000000000E+00  0.00000000000E+00  0.99999998245E-14  0.12500000000E+03  0.12500000000E+03 0.  0.
        -13    1    3    3    0    0 -0.40542846294E+02  0.15117452331E+02  0.32227607219E+02  0.53952660562E+02  0.10566000000E+00 0.  1.
         23    2    1    0    0    0 -0.28934216913E+02  0.84052862002E+01 -0.58362735924E+01  0.94309613331E+02  0.89176248703E+02 0.  0.
         13    1    3    3    0    0  0.11608629381E+02 -0.67121661305E+01 -0.38063880812E+02  0.40356952769E+02  0.10566000000E+00 0. -1.
         22    1    1    0    0    0  0.28934216913E+02 -0.84052862002E+01  0.58362735924E+01  0.30690386669E+02  0.00000000000E+00 0.  1.
</event>
<event>
 5    1  0.1245610E-004  0.9118800E+02  0.7818608E-02  0.1130116E+00
         25   -1    0    0    0    0  0.00000000000E+00  0.00000000000E+00  0.99999998245E-14  0.12500000000E+03  0.12500000000E+03 0.  0.
        -13    1    3    3    0    0 -0.13648752932E+02  0.22733268008E+02 -0.31207493609E+02  0.40951297321E+02  0.10566000000E+00 0.  1.
         23    2    1    0    0    0  0.20808717962E+02 -0.15961739181E+02 -0.10264498043E+02  0.96837262545E+02  0.92651581941E+02 0.  0.
         13    1    3    3    0    0  0.34457470893E+02 -0.38695007189E+02  0.20942995566E+02  0.55885965224E+02  0.10566000000E+00 0. -1.
         22    1    1    0    0    0 -0.20808717962E+02  0.15961739181E+02  0.10264498043E+02  0.28162737455E+02  0.00000000000E+00 0. -1.
</event>
<event>
 5    1  0.1245610E-004  0.9118800E+02  0.7818608E-02  0.1130116E+00
         25   -1    0    0    0    0  0.00000000000E+00  0.00000000000E+00  0.99999998245E-14  0.12500000000E+03  0.12500000000E+03 0.  0.
        -13    1    3    3    0    0 -0.22509562895E+02 -0.25221778852E+02 -0.22504458144E+01  0.33880587665E+02  0.10566000000E+00 0.  1.
         23    2    1    0    0    0  0.12210251883E+02  0.24589534842E+02  0.99246161960E+01  0.95806961765E+02  0.91250975015E+02 0.  0.
         13    1    3    3    0    0  0.34719814778E+02  0.49811313693E+02  0.12175062010E+02  0.61926374099E+02  0.10566000000E+00 0. -1.
         22    1    1    0    0    0 -0.12210251883E+02 -0.24589534842E+02 -0.99246161960E+01  0.29193038235E+02  0.00000000000E+00 0. -1.
</event>
<event>
 5    1  0.1245610E-004  0.9118800E+02  0.7818608E-02  0.1130116E+00
         25   -1    0    0    0    0  0.00000000000E+00  0.00000000000E+00  0.99999998245E-14  0.12500000000E+03  0.12500000000E+03 0.  0.
        -13    1    3    3    0    0  0.51343122736E+02 -0.16910147470E+02 -0.14708669691E+02  0.56021651777E+02  0.10566000000E+00 0.  1.
         23    2    1    0    0    0  0.13879661338E+02 -0.25137402935E+02 -0.96340034949E+01  0.94712245898E+02  0.89738851534E+02 0.  0.
         13    1    3    3    0    0 -0.37463461398E+02 -0.82272554652E+01  0.50746661965E+01  0.38690594121E+02  0.10566000000E+00 0. -1.
         22    1    1    0    0    0 -0.13879661338E+02  0.25137402935E+02  0.96340034949E+01  0.30287754102E+02  0.00000000000E+00 0.  1.
</event>
<event>
 5    1  0.1245610E-004  0.9118800E+02  0.7818608E-02  0.1130116E+00
         25   -1    0    0    0    0  0.00000000000E+00  0.00000000000E+00  0.99999998245E-14  0.12500000000E+03  0.12500000000E+03 0.  0.
        -13    1    3    3    0    0  0.92824481257E+01 -0.28522742062E+02  0.47901300642E+02  0.56517753186E+02  0.10566000000E+00 0.  1.
         23    2    1    0    0    0  0.22975238631E+02 -0.96695792125E+01  0.18913273828E+02  0.93709837341E+02  0.88331530810E+02 0.  0.
         13    1    3    3    0    0  0.13692790506E+02  0.18853162850E+02 -0.28988026813E+02  0.37192084155E+02  0.10566000000E+00 0. -1.
         22    1    1    0    0    0 -0.22975238631E+02  0.96695792125E+01 -0.18913273828E+02  0.31290162659E+02  0.00000000000E+00 0.  1.
</event>
<event>
 5    1  0.1245610E-004  0.9118800E+02  0.7818608E-02  0.1130116E+00
         25   -1    0    0    0    0  0.00000000000E+00  0.00000000000E+00  0.99999998245E-14  0.12500000000E+03  0.12500000000E+03 0.  0.
        -13    1    3    3    0    0  0.56042939738E+02  0.18296011257E+02 -0.69588123801E+01  0.59363215514E+02  0.10566000000E+00 0. -1.
         23    2    1    0    0    0  0.31786410915E+02 -0.31661690649E+01  0.20779387394E+01  0.92988777361E+02  0.87305179344E+02 0.  0.
         13    1    3    3    0    0 -0.24256528823E+02 -0.21462180322E+02  0.90367511195E+01  0.33625561847E+02  0.10566000000E+00 0.  1.
         22    1    1    0    0    0 -0.31786410915E+02  0.31661690649E+01 -0.20779387394E+01  0.32011222639E+02  0.00000000000E+00 0. -1.
</event>
<event>
 5    1  0.1245610E-004  0.9118800E+02  0.7818608E-02  0.1130116E+00
         25   -1    0    0    0    0  0.00000000000E+00  0.00000000000E+00  0.99999998245E-14  0.12500000000E+03  0.12500000000E+03 0.  0.
        -13    1    3    3    0    0  0.79628919889E+01 -0.45434614006E+02  0.11973704659E+02  0.47655981430E+02  0.10566000000E+00 0.  1.
         23    2    1    0    0    0  0.10284825382E+02 -0.13758577107E+02 -0.23898624260E+02  0.95568378932E+02  0.90923565334E+02 0.  0.
         13    1    3    3    0    0  0.23219333934E+01  0.31676036900E+02 -0.35872328919E+02  0.47912397503E+02  0.10566000000E+00 0. -1.
         22    1    1    0    0    0 -0.10284825382E+02  0.13758577107E+02  0.23898624260E+02  0.29431621068E+02  0.00000000000E+00 0.  1.
</event>
<event>
 5    1  0.1245610E-004  0.9118800E+02  0.7818608E-02  0.1130116E+00
         25   -1    0    0    0    0  0.00000000000E+00  0.00000000000E+00  0.99999998245E-14  0.12500000000E+03  0.12500000000E+03 0.  0.
        -13    1    3    3    0    0 -0.24012276911E+02  0.76675306359E+01  0.23423310358E+02  0.34409927356E+02  0.10566000000E+00 0.  1.
         23    2    1    0    0    0  0.68178959310E+01  0.15416141486E+02 -0.26498816060E+02  0.93594134690E+02  0.88167645271E+02 0.  0.
         13    1    3    3    0    0  0.30830172842E+02  0.77486108503E+01 -0.49922126418E+02  0.59184207334E+02  0.10566000000E+00 0. -1.
         22    1    1    0    0    0 -0.68178959310E+01 -0.15416141486E+02  0.26498816060E+02  0.31405865310E+02  0.00000000000E+00 0. -1.
</event>
<event>
 5    1  0.1245610E-004  0.9118800E+02  0.7818608E-02  0.1130116E+00
         25   -1    0    0    0    0  0.00000000000E+00  0.00000000000E+00  0.99999998245E-14  0.12500000000E+03  0.12500000000E+03 0.  0.
        -13    1    3    3    0    0 -0.51032551359E+01 -0.39229462721E+02 -0.12332815792E+02  0.41437947195E+02  0.10566000000E+00 0. -1.
         23    2    1    0    0    0  0.15619158446E+02  0.11844440113E+02 -0.19893043330E+02  0.97071841359E+02  0.92967523037E+02 0.  0.
         13    1    3    3    0    0  0.20722413582E+02  0.51073902834E+02 -0.75602275377E+01  0.55633894164E+02  0.10566000000E+00 0.  1.
         22    1    1    0    0    0 -0.15619158446E+02 -0.11844440113E+02  0.19893043330E+02  0.27928158641E+02  0.00000000000E+00 0.  1.
</event>
<event>
 5    1  0.1245610E-004  0.9118800E+02  0.7818608E-02  0.1130116E+00
         25   -1    0    0    0    0  0.00000000000E+00  0.00000000000E+00  0.99999998245E-14  0.12500000000E+03  0.12500000000E+03 0.  0.
        -13    1    3    3    0    0  0.51416757278E+02  0.30270834532E+02 -0.18121235664E+02  0.62357010018E+02  0.10566000000E+00 0.  1.
         23    2    1    0    0    0  0.23136200810E+02  0.15677297022E+02 -0.59701642521E+01  0.96421961386E+02  0.92089577838E+02 0.  0.
         13    1    3    3    0    0 -0.28280556469E+02 -0.14593537510E+02  0.12151071412E+02  0.34064951368E+02  0.10566000000E+00 0. -1.
         22    1    1    0    0    0 -0.23136200810E+02 -0.15677297022E+02  0.59701642521E+01  0.28578038614E+02  0.00000000000E+00 0.  1.
</event>
<event>
 5    1  0.1245610E-004  0.9118800E+02  0.7818608E-02  0.1130116E+00
         25   -1    0    0    0    0  0.00000000000E+00  0.00000000000E+00  0.99999998245E-14  0.12500000000E+03  0.12500000000E+03 0.  0.
        -13    1    3    3    0    0 -0.44010224029E+02  0.24835730243E+02  0.14864584151E+01  0.50556246285E+02  0.10566000000E+00 0. -1.
         23    2    1    0    0    0 -0.56321747895E+01  0.29715710596E+02  0.14613441712E+02  0.91409859665E+02  0.85014498270E+02 0.  0.
         13    1    3    3    0    0  0.38378049239E+02  0.48799803525E+01  0.13126983297E+02  0.40853613380E+02  0.10566000000E+00 0.  1.
         22    1    1    0    0    0  0.56321747895E+01 -0.29715710596E+02 -0.14613441712E+02  0.33590140335E+02  0.00000000000E+00 0.  1.
</event>
<event>
 5    1  0.1245610E-004  0.9118800E+02  0.7818608E-02  0.1130116E+00
         25   -1    0    0    0    0  0.00000000000E+00  0.00000000000E+00  0.99999998245E-14  0.12500000000E+03  0.12500000000E+03 0.  0.
        -13    1    3    3    0    0  0.96418202259E+01  0.30604132826E+02 -0.52168195641E+02  0.61246301470E+02  0.10566000000E+00 0.  1.
         23    2    1    0    0    0  0.11094871776E+02  0.16877600587E+02 -0.18596865891E+02  0.97544709029E+02  0.93601160556E+02 0.  0.
         13    1    3    3    0    0  0.14530515502E+01 -0.13726532239E+02  0.33571329750E+02  0.36298407559E+02  0.10566000000E+00 0. -1.
         22    1    1    0    0    0 -0.11094871776E+02 -0.16877600587E+02  0.18596865891E+02  0.27455290971E+02  0.00000000000E+00 0.  1.
</event>
<event>
 5    1  0.1245610E-004  0.9118800E+02  0.7818608E-02  0.1130116E+00
         25   -1    0    0    0    0  0.00000000000E+00  0.00000000000E+00  0.99999998245E-14  0.12500000000E+03  0.12500000000E+03 0.  0.
        -13    1    3    3    0    0  0.89434604776E+01  0.61675000526E+01 -0.40964750003E+02  0.42380956207E+02  0.10566000000E+00 0. -1.
         23    2    1    0    0    0  0.27625921812E+02 -0.46432719904E+01  0.79784309044E+01  0.95872574944E+02  0.91340810900E+02 0.  0.
         13    1    3    3    0    0  0.18682461334E+02 -0.10810772043E+02  0.48943180907E+02  0.53491618736E+02  0.10566000000E+00 0.  1.
         22    1    1    0    0    0 -0.27625921812E+02  0.46432719904E+01 -0.79784309044E+01  0.29127425056E+02  0.00000000000E+00 0.  1.
</event>
<event>
 5    1  0.1245610E-004  0.9118800E+02  0.7818608E-02  0.1130116E+00
         25   -1    0    0    0    0  0.00000000000E+00  0.00000000000E+00  0.99999998245E-14  0.12500000000E+03  0.12500000000E+03 0.  0.
        -13    1    3    3    0    0 -0.39597775552E+02 -0.24224630844E+02  0.17331534454E+02  0.49550073852E+02  0.10566000000E+00 0.  1.
         23    2    1    0    0    0  0.17760006043E+01 -0.28676953642E+02 -0.34469014647E+01  0.96062084076E+02  0.91599787221E+02 0.  0.
         13    1    3    3    0    0  0.41373776156E+02 -0.44523227982E+01 -0.20778435919E+02  0.46512010223E+02  0.10566000000E+00 0. -1.
         22    1    1    0    0    0 -0.17760006043E+01  0.28676953642E+02  0.34469014647E+01  0.28937915924E+02  0.00000000000E+00 0.  1.
</event>
<event>
 5    1  0.1245610E-004  0.9118800E+02  0.7818608E-02  0.1130116E+00
         25   -1    0    0    0    0  0.00000000000E+00  0.00000000000E+00  0.99999998245E-14  0.12500000000E+03  0.12500000000E+03 0.  0.
        -13    1    3    3    0    0  0.31425985702E+02 -0.16777920489E+02 -0.20699999789E+02  0.41201848849E+02  0.10566000000E+00 0.  1.
         23    2    1    0    0    0 -0.25281864111E+00  0.21319258447E+02  0.11968318444E+02  0.10054973734E+03  0.97531709376E+02 0.  0.
         13    1    3    3    0    0 -0.31678804344E+02  0.38097178936E+02  0.32668318233E+02  0.59347888486E+02  0.10566000000E+00 0. -1.
         22    1    1    0    0    0  0.25281864111E+00 -0.21319258447E+02 -0.11968318444E+02  0.24450262665E+02  0.00000000000E+00 0. -1.
</event>
<event>
 5    1  0.1245610E-004  0.9118800E+02  0.7818608E-02  0.1130116E+00
         25   -1    0    0    0    0  0.00000000000E+00  0.00000000000E+00  0.99999998245E-14  0.12500000000E+03  0.12500000000E+03 0.  0.
        -13    1    3    3    0    0  0.20276962948E+02  0.62973038687E+01 -0.26668843149E+02  0.34088848930E+02  0.10566000000E+00 0.  1.
         23    2    1    0    0    0 -0.24659082050E+02 -0.39902070635E+01  0.14689539394E+02  0.96021134467E+02  0.91543889019E+02 0.  0.
         13    1    3    3    0    0 -0.44936044998E+02 -0.10287510932E+02  0.41358382543E+02  0.61932285537E+02  0.10566000000E+00 0. -1.
         22    1    1    0    0    0  0.24659082050E+02  0.39902070635E+01 -0.14689539394E+02  0.28978865533E+02  0.00000000000E+00 0. -1.
</event>
<event>
 5    1  0.1245610E-004  0.9118800E+02  0.7818608E-02  0.1130116E+00
         25   -1    0    0    0    0  0.00000000000E+00  0.00000000000E+00  0.99999998245E-14  0.12500000000E+03  0.12500000000E+03 0.  0.
        -13    1    3    3    0    0 -0.43913507461E+01 -0.26761142071E+01  0.39057815420E+02  0.39395046110E+02  0.10566000000E+00 0.  1.
         23    2    1    0    0    0  0.19335278745E+02  0.16918689283E+02 -0.10103114289E+02  0.97392610237E+02  0.93397818814E+02 0.  0.
         13    1    3    3    0    0  0.23726629491E+02  0.19594803490E+02 -0.49160929708E+02  0.57997564127E+02  0.10566000000E+00 0. -1.
         22    1    1    0    0    0 -0.19335278745E+02 -0.16918689283E+02  0.10103114289E+02  0.27607389763E+02  0.00000000000E+00 0. -1.
</event>
<event>
 5    1  0.1245610E-004  0.9118800E+02  0.7818608E-02  0.1130116E+00
         25   -1    0    0    0    0  0.00000000000E+00  0.00000000000E+00  0.99999998245E-14  0.12500000000E+03  0.12500000000E+03 0.  0.
        -13    1    3    3    0    0 -0.17906266709E+02  0.17844696284E+02 -0.33372189360E+02  0.41866236512E+02  0.10566000000E+00 0. -1.
         23    2    1    0    0    0  0.21052675615E+02 -0.14205187088E+02 -0.14678305102E+02  0.95666484503E+02  0.91058339133E+02 0.  0.
         13    1    3    3    0    0  0.38958942324E+02 -0.32049883372E+02  0.18693884259E+02  0.53800247991E+02  0.10566000000E+00 0.  1.
         22    1    1    0    0    0 -0.21052675615E+02  0.14205187088E+02  0.14678305102E+02  0.29333515497E+02  0.00000000000E+00 0.  1.
</event>
<event>
 5    1  0.1245610E-004  0.9118800E+02  0.7818608E-02  0.1130116E+00
         25   -1    0    0    0    0  0.00000000000E+00  0.00000000000E+00  0.99999998245E-14  0.12500000000E+03  0.12500000000E+03 0.  0.
        -13    1    3    3    0    0  0.65100726755E+01  0.22309627190E+02  0.38568689708E+02  0.45029495905E+02  0.10566000000E+00 0. -1.
         23    2    1    0    0    0  0.28304746645E+02  0.80083796261E+01 -0.43695959816E+01  0.95261368628E+02  0.90500509153E+02 0.  0.
         13    1    3    3    0    0  0.21794673969E+02 -0.14301247564E+02 -0.42938285689E+02  0.50231872723E+02  0.10566000000E+00 0.  1.
         22    1    1    0    0    0 -0.28304746645E+02 -0.80083796261E+01  0.43695959816E+01  0.29738631372E+02  0.00000000000E+00 0.  1.
</event>
<event>
 5    1  0.1245610E-004  0.9118800E+02  0.7818608E-02  0.1130116E+00
         25   -1    0    0    0    0  0.00000000000E+00  0.00000000000E+00  0.99999998245E-14  0.12500000000E+03  0.12500000000E+03 0.  0.
        -13    1    3    3    0    0  0.26320396571E+02  0.34609148614E+02  0.19879986433E+02  0.47809846977E+02  0.10566000000E+00 0.  1.
         23    2    1    0    0    0  0.26271436683E+02 -0.11014312281E+02  0.34350880249E+01  0.96306737896E+02  0.91933043428E+02 0.  0.
         13    1    3    3    0    0 -0.48959887476E-01 -0.45623460895E+02 -0.16444898408E+02  0.48496890919E+02  0.10566000000E+00 0. -1.
         22    1    1    0    0    0 -0.26271436683E+02  0.11014312281E+02 -0.34350880249E+01  0.28693262104E+02  0.00000000000E+00 0.  1.
</event>
<event>
 5    1  0.1245610E-004  0.9118800E+02  0.7818608E-02  0.1130116E+00
         25   -1    0    0    0    0  0.00000000000E+00  0.00000000000E+00  0.99999998245E-14  0.12500000000E+03  0.12500000000E+03 0.  0.
        -13    1    3    3    0    0  0.53693515400E+02  0.22404506389E+02 -0.12582754182E+02  0.59525560639E+02  0.10566000000E+00 0. -1.
         23    2    1    0    0    0  0.25996661752E+02  0.14445676942E+02  0.70999110130E+01  0.94423657169E+02  0.89335963039E+02 0.  0.
         13    1    3    3    0    0 -0.27696853648E+02 -0.79588294473E+01  0.19682665195E+02  0.34898096529E+02  0.10566000000E+00 0.  1.
         22    1    1    0    0    0 -0.25996661752E+02 -0.14445676942E+02 -0.70999110130E+01  0.30576342831E+02  0.00000000000E+00 0. -1.
</event>
<event>
 5    1  0.1245610E-004  0.9118800E+02  0.7818608E-02  0.1130116E+00
         25   -1    0    0    0    0  0.00000000000E+00  0.00000000000E+00  0.99999998245E-14  0.12500000000E+03  0.12500000000E+03 0.  0.
        -13    1    3    3    0    0 -0.93168311247E+01  0.24327017004E+02 -0.34069142019E+02  0.42887348956E+02  0.10566000000E+00 0.  1.
         23    2    1    0    0    0 -0.21016232069E+02 -0.18778648913E+02 -0.44849186633E+01  0.96461707115E+02  0.92143511865E+02 0.  0.
         13    1    3    3    0    0 -0.11699400944E+02 -0.43105665917E+02  0.29584223355E+02  0.53574358159E+02  0.10566000000E+00 0. -1.
         22    1    1    0    0    0  0.21016232069E+02  0.18778648913E+02  0.44849186633E+01  0.28538292885E+02  0.00000000000E+00 0. -1.
</event>
<event>
 5    1  0.1245610E-004  0.9118800E+02  0.7818608E-02  0.1130116E+00
         25   -1    0    0    0    0  0.00000000000E+00  0.00000000000E+00  0.99999998245E-14  0.12500000000E+03  0.12500000000E+03 0.  0.
        -13    1    3    3    0    0 -0.76953622991E+01 -0.50079629967E+02  0.29491602638E+02  0.58625538196E+02  0.10566000000E+00 0.  1.
         23    2    1    0    0    0  0.25249964002E+01 -0.28158107288E+02  0.49396714133E-01  0.96728865377E+02  0.92505223334E+02 0.  0.
         13    1    3    3    0    0  0.10220358699E+02  0.21921522680E+02 -0.29442205924E+02  0.38103327180E+02  0.10566000000E+00 0. -1.
         22    1    1    0    0    0 -0.25249964002E+01  0.28158107288E+02 -0.49396714133E-01  0.28271134623E+02  0.00000000000E+00 0.  1.
</event>
<event>
 5    1  0.1245610E-004  0.9118800E+02  0.7818608E-02  0.1130116E+00
         25   -1    0    0    0    0  0.00000000000E+00  0.00000000000E+00  0.99999998245E-14  0.12500000000E+03  0.12500000000E+03 0.  0.
        -13    1    3    3    0    0  0.21632881653E+02  0.24936322295E+02  0.67653671642E+01  0.33698413837E+02  0.10566000000E+00 0. -1.
         23    2    1    0    0    0 -0.18436628663E+02 -0.20632980556E+02  0.12476497079E+02  0.94647205360E+02  0.89648208795E+02 0.  0.
         13    1    3    3    0    0 -0.40069510316E+02 -0.45569302851E+02  0.57111299144E+01  0.60948791524E+02  0.10566000000E+00 0.  1.
         22    1    1    0    0    0  0.18436628663E+02  0.20632980556E+02 -0.12476497079E+02  0.30352794640E+02  0.00000000000E+00 0.  1.
</event>
<event>
 5    1  0.1245610E-004  0.9118800E+02  0.7818608E-02  0.1130116E+00
         25   -1    0    0    0    0  0.00000000000E+00  0.00000000000E+00  0.99999998245E-14  0.12500000000E+03  0.12500000000E+03 0.  0.
        -13    1    3    3    0    0 -0.16559726800E+02  0.30232372672E+02  0.10297268525E+02  0.35975905995E+02  0.10566000000E+00 0.  1.
         23    2    1    0    0    0  0.29784160795E+02 -0.48416792285E+01  0.12239323683E+01  0.94800064529E+02  0.89861093540E+02 0.  0.
         13    1    3    3    0    0  0.46343887596E+02 -0.35074051900E+02 -0.90733361563E+01  0.58824158534E+02  0.10566000000E+00 0. -1.
         22    1    1    0    0    0 -0.29784160795E+02  0.48416792285E+01 -0.12239323683E+01  0.30199935471E+02  0.00000000000E+00 0. -1.
</event>
<event>
 5    1  0.1245610E-004  0.9118800E+02  0.7818608E-02  0.1130116E+00
         25   -1    0    0    0    0  0.00000000000E+00  0.00000000000E+00  0.99999998245E-14  0.12500000000E+03  0.12500000000E+03 0.  0.
        -13    1    3    3    0    0 -0.24179457863E+02  0.26287970440E+02  0.43743493762E+01  0.35984019632E+02  0.10566000000E+00 0. -1.
         23    2    1    0    0    0  0.29737142138E+02  0.25663458426E+01 -0.10200902330E+01  0.95134897663E+02  0.90325657572E+02 0.  0.
         13    1    3    3    0    0  0.53916600000E+02 -0.23721624597E+02 -0.53944396092E+01  0.59150878031E+02  0.10566000000E+00 0.  1.
         22    1    1    0    0    0 -0.29737142138E+02 -0.25663458426E+01  0.10200902330E+01  0.29865102337E+02  0.00000000000E+00 0.  1.
</event>
<event>
 5    1  0.1245610E-004  0.9118800E+02  0.7818608E-02  0.1130116E+00
         25   -1    0    0    0    0  0.00000000000E+00  0.00000000000E+00  0.99999998245E-14  0.12500000000E+03  0.12500000000E+03 0.  0.
        -13    1    3    3    0    0 -0.19638757114E+02 -0.48992273465E+02  0.51984944149E+01  0.53037337305E+02  0.10566000000E+00 0.  1.
         23    2    1    0    0    0 -0.14718500873E+02 -0.84763231176E+01  0.22027581596E+02  0.97184596488E+02  0.93119005161E+02 0.  0.
         13    1    3    3    0    0  0.49202562409E+01  0.40515950347E+02  0.16829087181E+02  0.44147259183E+02  0.10566000000E+00 0. -1.
         22    1    1    0    0    0  0.14718500873E+02  0.84763231176E+01 -0.22027581596E+02  0.27815403512E+02  0.00000000000E+00 0. -1.
</event>
<event>
 5    1  0.1245610E-004  0.9118800E+02  0.7818608E-02  0.1130116E+00
         25   -1    0    0    0    0  0.00000000000E+00  0.00000000000E+00  0.99999998245E-14  0.12500000000E+03  0.12500000000E+03 0.  0.
        -13    1    3    3    0    0  0.82838754139E+01  0.30083505949E+02  0.37988517875E+02  0.49160742229E+02  0.10566000000E+00 0.  1.
         23    2    1    0    0    0 -0.20886503914E+02 -0.22579862912E+01  0.19003154011E+02  0.96672197222E+02  0.92428617352E+02 0.  0.
         13    1    3    3    0    0 -0.29170379328E+02 -0.32341492241E+02 -0.18985363864E+02  0.47511454993E+02  0.10566000000E+00 0. -1.
         22    1    1    0    0    0  0.20886503914E+02  0.22579862912E+01 -0.19003154011E+02  0.28327802778E+02  0.00000000000E+00 0.  1.
</event>
<event>
 5    1  0.1245610E-004  0.9118800E+02  0.7818608E-02  0.1130116E+00
         25   -1    0    0    0    0  0.00000000000E+00  0.00000000000E+00  0.99999998245E-14  0.12500000000E+03  0.12500000000E+03 0.  0.
        -13    1    3    3    0    0  0.37639731215E+02  0.56140384060E+01  0.13729481140E+02  0.40457095911E+02  0.10566000000E+00 0.  1.
         23    2    1    0    0    0 -0.14876220943E+02 -0.19906850696E+02  0.66563020346E+01  0.99272757416E+02  0.95881120947E+02 0.  0.
         13    1    3    3    0    0 -0.52515952158E+02 -0.25520889102E+02 -0.70731791055E+01  0.58815661505E+02  0.10566000000E+00 0. -1.
         22    1    1    0    0    0  0.14876220943E+02  0.19906850696E+02 -0.66563020346E+01  0.25727242584E+02  0.00000000000E+00 0. -1.
</event>
<event>
 5    1  0.1245610E-004  0.9118800E+02  0.7818608E-02  0.1130116E+00
         25   -1    0    0    0    0  0.00000000000E+00  0.00000000000E+00  0.99999998245E-14  0.12500000000E+03  0.12500000000E+03 0.  0.
        -13    1    3    3    0    0  0.39491150078E+02 -0.11228831393E+02  0.63476923354E+01  0.41544457524E+02  0.10566000000E+00 0. -1.
         23    2    1    0    0    0 -0.44258425136E+01  0.18031099425E+02  0.21639629265E+02  0.96487157575E+02  0.92178030971E+02 0.  0.
         13    1    3    3    0    0 -0.43916992592E+02  0.29259930818E+02  0.15291936930E+02  0.54942700051E+02  0.10566000000E+00 0.  1.
         22    1    1    0    0    0  0.44258425136E+01 -0.18031099425E+02 -0.21639629265E+02  0.28512842425E+02  0.00000000000E+00 0.  1.
</event>
<event>
 5    1  0.1245610E-004  0.9118800E+02  0.7818608E-02  0.1130116E+00
         25   -1    0    0    0    0  0.00000000000E+00  0.00000000000E+00  0.99999998245E-14  0.12500000000E+03  0.12500000000E+03 0.  0.
        -13    1    3    3    0    0 -0.19164419298E+02 -0.42000949777E+02 -0.31203358987E+02  0.55722666172E+02  0.10566000000E+00 0.  1.
         23    2    1    0    0    0  0.96806816541E+01 -0.15436922483E+02 -0.22777224188E+02  0.95831247631E+02  0.91284236907E+02 0.  0.
         13    1    3    3    0    0  0.28845100952E+02  0.26564027294E+02  0.84261347988E+01  0.40108581459E+02  0.10566000000E+00 0. -1.
         22    1    1    0    0    0 -0.96806816541E+01  0.15436922483E+02  0.22777224188E+02  0.29168752369E+02  0.00000000000E+00 0.  1.
</event>
<event>
 5    1  0.1245610E-004  0.9118800E+02  0.7818608E-02  0.1130116E+00
         25   -1    0    0    0    0  0.00000000000E+00  0.00000000000E+00  0.99999998245E-14  0.12500000000E+03  0.12500000000E+03 0.  0.
        -13    1    3    3    0    0 -0.30640534415E+02  0.57116067368E+01  0.17726942213E+02  0.35856944167E+02  0.10566000000E+00 0.  1.
         23    2    1    0    0    0  0.18011202092E+02  0.93777321163E+01 -0.19206480270E+02  0.97049433909E+02  0.92937390093E+02 0.  0.
         13    1    3    3    0    0  0.48651736507E+02  0.36661253795E+01 -0.36933422483E+02  0.61192489742E+02  0.10566000000E+00 0. -1.
         22    1    1    0    0    0 -0.18011202092E+02 -0.93777321163E+01  0.19206480270E+02  0.27950566091E+02  0.00000000000E+00 0. -1.
</event>
<event>
 5    1  0.1245610E-004  0.9118800E+02  0.7818608E-02  0.1130116E+00
         25   -1    0    0    0    0  0.00000000000E+00  0.00000000000E+00  0.99999998245E-14  0.12500000000E+03  0.12500000000E+03 0.  0.
        -13    1    3    3    0    0 -0.10868393323E+02 -0.42662350942E+02 -0.12176839459E+01  0.44041935465E+02  0.10566000000E+00 0.  1.
         23    2    1    0    0    0 -0.32148678715E+02  0.11400296325E+01 -0.22663432644E+01  0.92751379526E+02  0.86964618562E+02 0.  0.
         13    1    3    3    0    0 -0.21280285392E+02  0.43802380574E+02 -0.10486593184E+01  0.48709444061E+02  0.10566000000E+00 0. -1.
         22    1    1    0    0    0  0.32148678715E+02 -0.11400296325E+01  0.22663432644E+01  0.32248620474E+02  0.00000000000E+00 0.  1.
</event>
<event>
 5    1  0.1245610E-004  0.9118800E+02  0.7818608E-02  0.1130116E+00
         25   -1    0    0    0    0  0.00000000000E+00  0.00000000000E+00  0.99999998245E-14  0.12500000000E+03  0.12500000000E+03 0.  0.
        -13    1    3    3    0    0  0.27030815167E+02 -0.26225022051E+02  0.44341603646E+02  0.58177364396E+02  0.10566000000E+00 0.  1.
         23    2    1    0    0    0 -0.38361250805E+01 -0.63280925960E+01  0.23410729976E+02  0.10044754820E+03  0.97400652201E+02 0.  0.
         13    1    3    3    0    0 -0.30866940247E+02  0.19896929455E+02 -0.20930873670E+02  0.42270183801E+02  0.10566000000E+00 0. -1.
         22    1    1    0    0    0  0.38361250805E+01  0.63280925960E+01 -0.23410729976E+02  0.24552451803E+02  0.00000000000E+00 0.  1.
</event>
<event>
 5    1  0.1245610E-004  0.9118800E+02  0.7818608E-02  0.1130116E+00
         25   -1    0    0    0    0  0.00000000000E+00  0.00000000000E+00  0.99999998245E-14  0.12500000000E+03  0.12500000000E+03 0.  0.
        -13    1    3    3    0    0 -0.26144682547E+02 -0.14772190887E+02  0.16143298595E+02  0.34093684205E+02  0.10566000000E+00 0. -1.
         23    2    1    0    0    0  0.13286361538E+01  0.16734816389E+02 -0.26385080535E+02  0.93727139107E+02  0.88356011548E+02 0.  0.
         13    1    3    3    0    0  0.27473318701E+02  0.31507007277E+02 -0.42528379130E+02  0.59633454901E+02  0.10566000000E+00 0.  1.
         22    1    1    0    0    0 -0.13286361538E+01 -0.16734816389E+02  0.26385080535E+02  0.31272860893E+02  0.00000000000E+00 0.  1.
</event>
<event>
 5    1  0.1245610E-004  0.9118800E+02  0.7818608E-02  0.1130116E+00
         25   -1    0    0    0    0  0.00000000000E+00  0.00000000000E+00  0.99999998245E-14  0.12500000000E+03  0.12500000000E+03 0.  0.
        -13    1    3    3    0    0 -0.31696816545E+02 -0.29405875244E+02  0.30457105720E+01  0.43343756124E+02  0.10566000000E+00 0. -1.
         23    2    1    0    0    0 -0.21107416462E+02  0.21048212404E+02 -0.18812315672E+01  0.95132135876E+02  0.90321835506E+02 0.  0.
         13    1    3    3    0    0  0.10589400083E+02  0.50454087648E+02 -0.49269421393E+01  0.51788379753E+02  0.10566000000E+00 0.  1.
         22    1    1    0    0    0  0.21107416462E+02 -0.21048212404E+02  0.18812315672E+01  0.29867864124E+02  0.00000000000E+00 0.  1.
</event>
<event>
 5    1  0.1245610E-004  0.9118800E+02  0.7818608E-02  0.1130116E+00
         25   -1    0    0    0    0  0.00000000000E+00  0.00000000000E+00  0.99999998245E-14  0.12500000000E+03  0.12500000000E+03 0.  0.
        -13    1    3    3    0    0 -0.29766942395E+01  0.35674372342E+02 -0.34674115087E+02  0.49838007300E+02  0.10566000000E+00 0.  1.
         23    2    1    0    0    0  0.11688891516E+02  0.22493663011E+02  0.92742388842E+01  0.98007286772E+02  0.94216886454E+02 0.  0.
         13    1    3    3    0    0  0.14665585755E+02 -0.13180709331E+02  0.43948353971E+02  0.48169279472E+02  0.10566000000E+00 0. -1.
         22    1    1    0    0    0 -0.11688891516E+02 -0.22493663011E+02 -0.92742388842E+01  0.26992713228E+02  0.00000000000E+00 0. -1.
</event>
<event>
 5    1  0.1245610E-004  0.9118800E+02  0.7818608E-02  0.1130116E+00
         25   -1    0    0    0    0  0.00000000000E+00  0.00000000000E+00  0.99999998245E-14  0.12500000000E+03  0.12500000000E+03 0.  0.
        -13    1    3    3    0    0 -0.35459141435E+02 -0.23723668017E+02  0.38159785388E+02  0.57239352900E+02  0.10566000000E+00 0. -1.
         23    2    1    0    0    0 -0.60691195051E+01 -0.25463818579E+02  0.14065550686E+02  0.95283338271E+02  0.90530848708E+02 0.  0.
         13    1    3    3    0    0  0.29390021930E+02 -0.17401505627E+01 -0.24094234702E+02  0.38043985372E+02  0.10566000000E+00 0.  1.
         22    1    1    0    0    0  0.60691195051E+01  0.25463818579E+02 -0.14065550686E+02  0.29716661729E+02  0.00000000000E+00 0. -1.
</event>
<event>
 5    1  0.1245610E-004  0.9118800E+02  0.7818608E-02  0.1130116E+00
         25   -1    0    0    0    0  0.00000000000E+00  0.00000000000E+00  0.99999998245E-14  0.12500000000E+03  0.12500000000E+03 0.  0.
        -13    1    3    3    0    0 -0.37248585101E+02  0.17091241454E+02 -0.91300572012E+01  0.41987340176E+02  0.10566000000E+00 0.  1.
         23    2    1    0    0    0  0.49766041972E+01 -0.12902512785E+02 -0.25232367097E+02  0.96226509165E+02  0.91823892813E+02 0.  0.
         13    1    3    3    0    0  0.42225189299E+02 -0.29993754239E+02 -0.16102309896E+02  0.54239168990E+02  0.10566000000E+00 0. -1.
         22    1    1    0    0    0 -0.49766041972E+01  0.12902512785E+02  0.25232367097E+02  0.28773490835E+02  0.00000000000E+00 0. -1.
</event>
<event>
 5    1  0.1245610E-004  0.9118800E+02  0.7818608E-02  0.1130116E+00
         25   -1    0    0    0    0  0.00000000000E+00  0.00000000000E+00  0.99999998245E-14  0.12500000000E+03  0.12500000000E+03 0.  0.
        -13    1    3    3    0    0  0.54256691661E+02 -0.13202915004E+02 -0.11644803954E+01  0.55852240181E+02  0.10566000000E+00 0.  1.
         23    2    1    0    0    0  0.19453590891E+02 -0.98691879649E+01 -0.19860271602E+02  0.95499602414E+02  0.90828963461E+02 0.  0.
         13    1    3    3    0    0 -0.34803100770E+02  0.33337270393E+01 -0.18695791207E+02  0.39647362233E+02  0.10566000000E+00 0. -1.
         22    1    1    0    0    0 -0.19453590891E+02  0.98691879649E+01  0.19860271602E+02  0.29500397586E+02  0.00000000000E+00 0.  1.
</event>
<event>
 5    1  0.1245610E-004  0.9118800E+02  0.7818608E-02  0.1130116E+00
         25   -1    0    0    0    0  0.00000000000E+00  0.00000000000E+00  0.99999998245E-14  0.12500000000E+03  0.12500000000E+03 0.  0.
        -13    1    3    3    0    0 -0.14731756540E+01  0.39182258574E+02  0.19718834390E+01  0.39259637311E+02  0.10566000000E+00 0. -1.
         23    2    1    0    0    0 -0.28380268946E+02 -0.87003862569E+01 -0.58689586296E+01  0.94741429944E+02  0.89779493683E+02 0.  0.
         13    1    3    3    0    0 -0.26907093292E+02 -0.47882644831E+02 -0.78408420686E+01  0.55481792633E+02  0.10566000000E+00 0.  1.
         22    1    1    0    0    0  0.28380268946E+02  0.87003862569E+01  0.58689586296E+01  0.30258570056E+02  0.00000000000E+00 0.  1.
</event>
<event>
 5    1  0.1245610E-004  0.9118800E+02  0.7818608E-02  0.1130116E+00
         25   -1    0    0    0    0  0.00000000000E+00  0.00000000000E+00  0.99999998245E-14  0.12500000000E+03  0.12500000000E+03 0.  0.
        -13    1    3    3    0    0 -0.34568556809E+02  0.47578015467E+02 -0.15977438657E+02  0.60942123245E+02  0.10566000000E+00 0.  1.
         23    2    1    0    0    0 -0.22420689152E+02  0.18023647740E+02 -0.10417692272E+01  0.96214162111E+02  0.91807083211E+02 0.  0.
         13    1    3    3    0    0  0.12147867657E+02 -0.29554367727E+02  0.14935669430E+02  0.35272038865E+02  0.10566000000E+00 0. -1.
         22    1    1    0    0    0  0.22420689152E+02 -0.18023647740E+02  0.10417692272E+01  0.28785837889E+02  0.00000000000E+00 0.  1.
</event>
<event>
 5    1  0.1245610E-004  0.9118800E+02  0.7818608E-02  0.1130116E+00
         25   -1    0    0    0    0  0.00000000000E+00  0.00000000000E+00  0.99999998245E-14  0.12500000000E+03  0.12500000000E+03 0.  0.
        -13    1    3    3    0    0 -0.28382905189E+02  0.28325913616E+02  0.78112271042E+01  0.40853067474E+02  0.10566000000E+00 0. -1.
         23    2    1    0    0    0  0.23654536882E+02  0.20161632767E+02  0.39593406403E+01  0.93667829165E+02  0.88272064047E+02 0.  0.
         13    1    3    3    0    0  0.52037442071E+02 -0.81642808490E+01 -0.38518864639E+01  0.52814761691E+02  0.10566000000E+00 0.  1.
         22    1    1    0    0    0 -0.23654536882E+02 -0.20161632767E+02 -0.39593406403E+01  0.31332170835E+02  0.00000000000E+00 0.  1.
</event>
<event>
 5    1  0.1245610E-004  0.9118800E+02  0.7818608E-02  0.1130116E+00
         25   -1    0    0    0    0  0.00000000000E+00  0.00000000000E+00  0.99999998245E-14  0.12500000000E+03  0.12500000000E+03 0.  0.
        -13    1    3    3    0    0  0.47524228226E+02 -0.30580682336E+02  0.12784014546E+02  0.57941113146E+02  0.10566000000E+00 0.  1.
         23    2    1    0    0    0  0.21384283444E+02 -0.14826341970E+02  0.23147348584E+02  0.90173174978E+02  0.83176281142E+02 0.  0.
         13    1    3    3    0    0 -0.26139944782E+02  0.15754340365E+02  0.10363334037E+02  0.32232061833E+02  0.10566000000E+00 0. -1.
         22    1    1    0    0    0 -0.21384283444E+02  0.14826341970E+02 -0.23147348584E+02  0.34826825022E+02  0.00000000000E+00 0.  1.
</event>
<event>
 5    1  0.1245610E-004  0.9118800E+02  0.7818608E-02  0.1130116E+00
         25   -1    0    0    0    0  0.00000000000E+00  0.00000000000E+00  0.99999998245E-14  0.12500000000E+03  0.12500000000E+03 0.  0.
        -13    1    3    3    0    0 -0.23855357659E+02  0.71682352838E+01 -0.21728200370E+02  0.33054311995E+02  0.10566000000E+00 0.  1.
         23    2    1    0    0    0  0.21102099928E+02  0.12115837632E+02  0.19162638002E+02  0.94027450249E+02  0.88779854484E+02 0.  0.
         13    1    3    3    0    0  0.44957457586E+02  0.49476023480E+01  0.40890838373E+02  0.60973138254E+02  0.10566000000E+00 0. -1.
         22    1    1    0    0    0 -0.21102099928E+02 -0.12115837632E+02 -0.19162638002E+02  0.30972549751E+02  0.00000000000E+00 0. -1.
</event>
<event>
 5    1  0.1245610E-004  0.9118800E+02  0.7818608E-02  0.1130116E+00
         25   -1    0    0    0    0  0.00000000000E+00  0.00000000000E+00  0.99999998245E-14  0.12500000000E+03  0.12500000000E+03 0.  0.
        -13    1    3    3    0    0  0.19815931313E+02 -0.86942120505E+01 -0.44128531918E+02  0.49148743119E+02  0.10566000000E+00 0. -1.
         23    2    1    0    0    0  0.19987158339E+02  0.20297056971E+02 -0.81177034954E+01  0.95379835750E+02  0.90663989200E+02 0.  0.
         13    1    3    3    0    0  0.17122702609E+00  0.28991269021E+02  0.36010828422E+02  0.46231092631E+02  0.10566000000E+00 0.  1.
         22    1    1    0    0    0 -0.19987158339E+02 -0.20297056971E+02  0.81177034954E+01  0.29620164250E+02  0.00000000000E+00 0. -1.
</event>
<event>
 5    1  0.1245610E-004  0.9118800E+02  0.7818608E-02  0.1130116E+00
         25   -1    0    0    0    0  0.00000000000E+00  0.00000000000E+00  0.99999998245E-14  0.12500000000E+03  0.12500000000E+03 0.  0.
        -13    1    3    3    0    0  0.16214455062E+02  0.22399139098E+02 -0.24446511864E+02  0.36908983888E+02  0.10566000000E+00 0.  1.
         23    2    1    0    0    0 -0.63187751994E+01 -0.28175488999E+02 -0.44125455221E+01  0.95789459808E+02  0.91226996837E+02 0.  0.
         13    1    3    3    0    0 -0.22533230261E+02 -0.50574628097E+02  0.20033966342E+02  0.58880475920E+02  0.10566000000E+00 0. -1.
         22    1    1    0    0    0  0.63187751994E+01  0.28175488999E+02  0.44125455221E+01  0.29210540192E+02  0.00000000000E+00 0. -1.
</event>
<event>
 5    1  0.1245610E-004  0.9118800E+02  0.7818608E-02  0.1130116E+00
         25   -1    0    0    0    0  0.00000000000E+00  0.00000000000E+00  0.99999998245E-14  0.12500000000E+03  0.12500000000E+03 0.  0.
        -13    1    3    3    0    0 -0.10677620072E+02  0.25704162071E+01 -0.46306197891E+02  0.47590899729E+02  0.10566000000E+00 0.  1.
         23    2    1    0    0    0 -0.18876445166E+02 -0.21436665037E+02 -0.50926307587E+01  0.95986456989E+02  0.91496525875E+02 0.  0.
         13    1    3    3    0    0 -0.81988250942E+01 -0.24007081244E+02  0.41213567132E+02  0.48395557260E+02  0.10566000000E+00 0. -1.
         22    1    1    0    0    0  0.18876445166E+02  0.21436665037E+02  0.50926307587E+01  0.29013543011E+02  0.00000000000E+00 0.  1.
</event>
<event>
 5    1  0.1245610E-004  0.9118800E+02  0.7818608E-02  0.1130116E+00
         25   -1    0    0    0    0  0.00000000000E+00  0.00000000000E+00  0.99999998245E-14  0.12500000000E+03  0.12500000000E+03 0.  0.
        -13    1    3    3    0    0 -0.32363092929E+02  0.37944024166E+02  0.20093765424E+02  0.53766991052E+02  0.10566000000E+00 0.  1.
         23    2    1    0    0    0 -0.23721166974E+02 -0.27343758285E+01  0.17426835317E+02  0.95438789556E+02  0.90745233423E+02 0.  0.
         13    1    3    3    0    0  0.86419259548E+01 -0.40678399994E+02 -0.26669301073E+01  0.41671798504E+02  0.10566000000E+00 0. -1.
         22    1    1    0    0    0  0.23721166974E+02  0.27343758285E+01 -0.17426835317E+02  0.29561210444E+02  0.00000000000E+00 0.  1.
</event>
<event>
 5    1  0.1245610E-004  0.9118800E+02  0.7818608E-02  0.1130116E+00
         25   -1    0    0    0    0  0.00000000000E+00  0.00000000000E+00  0.99999998245E-14  0.12500000000E+03  0.12500000000E+03 0.  0.
        -13    1    3    3    0    0  0.29227156092E+02 -0.35353753177E+02  0.36533033870E+02  0.58641182156E+02  0.10566000000E+00 0.  1.
         23    2    1    0    0    0  0.28396027788E+00 -0.24377182140E+02  0.14526109649E+02  0.96621566216E+02  0.92360118850E+02 0.  0.
         13    1    3    3    0    0 -0.28943195814E+02  0.10976571037E+02 -0.22006924220E+02  0.37980384060E+02  0.10566000000E+00 0. -1.
         22    1    1    0    0    0 -0.28396027788E+00  0.24377182140E+02 -0.14526109649E+02  0.28378433784E+02  0.00000000000E+00 0.  1.
</event>
<event>
 5    1  0.1245610E-004  0.9118800E+02  0.7818608E-02  0.1130116E+00
         25   -1    0    0    0    0  0.00000000000E+00  0.00000000000E+00  0.99999998245E-14  0.12500000000E+03  0.12500000000E+03 0.  0.
        -13    1    3    3    0    0 -0.37441330198E+02  0.24342726021E+02  0.17833109705E+02  0.48087966093E+02  0.10566000000E+00 0.  1.
         23    2    1    0    0    0  0.80192793940E+01  0.27936140045E+02  0.93165693270E+01  0.94478937983E+02  0.89413279191E+02 0.  0.
         13    1    3    3    0    0  0.45460609592E+02  0.35934140247E+01 -0.85165403779E+01  0.46390971890E+02  0.10566000000E+00 0. -1.
         22    1    1    0    0    0 -0.80192793940E+01 -0.27936140045E+02 -0.93165693270E+01  0.30521062017E+02  0.00000000000E+00 0. -1.
</event>
<event>
 5    1  0.1245610E-004  0.9118800E+02  0.7818608E-02  0.1130116E+00
         25   -1    0    0    0    0  0.00000000000E+00  0.00000000000E+00  0.99999998245E-14  0.12500000000E+03  0.12500000000E+03 0.  0.
        -13    1    3    3    0    0 -0.15432134375E+02 -0.37794838039E+02 -0.40077869059E+02  0.57208804446E+02  0.10566000000E+00 0. -1.
         23    2    1    0    0    0 -0.40104319740E+01 -0.60979139185E+01 -0.32431062457E+02  0.91757829029E+02  0.85524600305E+02 0.  0.
         13    1    3    3    0    0  0.11421702401E+02  0.31696924120E+02  0.76468066023E+01  0.34549024583E+02  0.10566000000E+00 0.  1.
         22    1    1    0    0    0  0.40104319740E+01  0.60979139185E+01  0.32431062457E+02  0.33242170971E+02  0.00000000000E+00 0. -1.
</event>
<event>
 5    1  0.1245610E-004  0.9118800E+02  0.7818608E-02  0.1130116E+00
         25   -1    0    0    0    0  0.00000000000E+00  0.00000000000E+00  0.99999998245E-14  0.12500000000E+03  0.12500000000E+03 0.  0.
        -13    1    3    3    0    0  0.48317362714E+02 -0.10619957018E+02 -0.26983108600E+01  0.49544354595E+02  0.10566000000E+00 0.  1.
         23    2    1    0    0    0  0.13925265049E+02  0.22914753319E+02  0.34229279443E+01  0.97968252701E+02  0.94165084693E+02 0.  0.
         13    1    3    3    0    0 -0.34392097665E+02  0.33534710337E+02  0.61212388043E+01  0.48423898106E+02  0.10566000000E+00 0. -1.
         22    1    1    0    0    0 -0.13925265049E+02 -0.22914753319E+02 -0.34229279443E+01  0.27031747299E+02  0.00000000000E+00 0.  1.
</event>
<event>
 5    1  0.1245610E-004  0.9118800E+02  0.7818608E-02  0.1130116E+00
         25   -1    0    0    0    0  0.00000000000E+00  0.00000000000E+00  0.99999998245E-14  0.12500000000E+03  0.12500000000E+03 0.  0.
        -13    1    3    3    0    0  0.42970558983E+02  0.32644708196E+02 -0.33050050721E+00  0.53965417696E+02  0.10566000000E+00 0.  1.
         23    2    1    0    0    0  0.18913742529E+02  0.91648349712E+01  0.22196738538E+02  0.94431731187E+02  0.89347259593E+02 0.  0.
         13    1    3    3    0    0 -0.24056816454E+02 -0.23479873225E+02  0.22527239045E+02  0.40466313491E+02  0.10566000000E+00 0. -1.
         22    1    1    0    0    0 -0.18913742529E+02 -0.91648349712E+01 -0.22196738538E+02  0.30568268813E+02  0.00000000000E+00 0.  1.
</event>
<event>
 5    1  0.1245610E-004  0.9118800E+02  0.7818608E-02  0.1130116E+00
         25   -1    0    0    0    0  0.00000000000E+00  0.00000000000E+00  0.99999998245E-14  0.12500000000E+03  0.12500000000E+03 0.  0.
        -13    1    3    3    0    0  0.92708145225E+01  0.12482641975E+02  0.54765759322E+02  0.56930342619E+02  0.10566000000E+00 0.  1.
         23    2    1    0    0    0  0.60570758395E+01 -0.13148134827E+02  0.22198649849E+02  0.98498270391E+02  0.94866050817E+02 0.  0.
         13    1    3    3    0    0 -0.32137386830E+01 -0.25630776802E+02 -0.32567109473E+02  0.41567927772E+02  0.10566000000E+00 0. -1.
         22    1    1    0    0    0 -0.60570758395E+01  0.13148134827E+02 -0.22198649849E+02  0.26501729609E+02  0.00000000000E+00 0.  1.
</event>
<event>
 5    1  0.1245610E-004  0.9118800E+02  0.7818608E-02  0.1130116E+00
         25   -1    0    0    0    0  0.00000000000E+00  0.00000000000E+00  0.99999998245E-14  0.12500000000E+03  0.12500000000E+03 0.  0.
        -13    1    3    3    0    0 -0.35598081008E+02  0.27553383275E+02 -0.31879671131E+02  0.55161008845E+02  0.10566000000E+00 0.  1.
         23    2    1    0    0    0 -0.29377919274E+02 -0.25850389861E+01 -0.71134603832E+01  0.94662796997E+02  0.89669946187E+02 0.  0.
         13    1    3    3    0    0  0.62201617341E+01 -0.30138422261E+02  0.24766210747E+02  0.39501788152E+02  0.10566000000E+00 0. -1.
         22    1    1    0    0    0  0.29377919274E+02  0.25850389861E+01  0.71134603832E+01  0.30337203003E+02  0.00000000000E+00 0.  1.
</event>
<event>
 5    1  0.1245610E-004  0.9118800E+02  0.7818608E-02  0.1130116E+00
         25   -1    0    0    0    0  0.00000000000E+00  0.00000000000E+00  0.99999998245E-14  0.12500000000E+03  0.12500000000E+03 0.  0.
        -13    1    3    3    0    0  0.15302373076E+02  0.26967157738E+01 -0.30152543471E+02  0.33920818674E+02  0.10566000000E+00 0.  1.
         23    2    1    0    0    0  0.15893497888E+01  0.63493753540E+01  0.29266203345E+02  0.95010814310E+02  0.90153777389E+02 0.  0.
         13    1    3    3    0    0 -0.13713023287E+02  0.36526595803E+01  0.59418746815E+02  0.61089995636E+02  0.10566000000E+00 0. -1.
         22    1    1    0    0    0 -0.15893497888E+01 -0.63493753540E+01 -0.29266203345E+02  0.29989185690E+02  0.00000000000E+00 0. -1.
</event>
<event>
 5    1  0.1245610E-004  0.9118800E+02  0.7818608E-02  0.1130116E+00
         25   -1    0    0    0    0  0.00000000000E+00  0.00000000000E+00  0.99999998245E-14  0.12500000000E+03  0.12500000000E+03 0.  0.
        -13    1    3    3    0    0  0.39473231699E+02  0.11151628953E+02 -0.14047506933E+02  0.43357103964E+02  0.10566000000E+00 0.  1.
         23    2    1    0    0    0  0.84601365953E+01 -0.19932597883E+02  0.17279996022E+02  0.97296559201E+02  0.93269179262E+02 0.  0.
         13    1    3    3    0    0 -0.31013095104E+02 -0.31084226836E+02  0.31327502955E+02  0.53939455237E+02  0.10566000000E+00 0. -1.
         22    1    1    0    0    0 -0.84601365953E+01  0.19932597883E+02 -0.17279996022E+02  0.27703440799E+02  0.00000000000E+00 0.  1.
</event>
<event>
 5    1  0.1245610E-004  0.9118800E+02  0.7818608E-02  0.1130116E+00
         25   -1    0    0    0    0  0.00000000000E+00  0.00000000000E+00  0.99999998245E-14  0.12500000000E+03  0.12500000000E+03 0.  0.
        -13    1    3    3    0    0  0.48771823484E+02  0.85293388196E+01  0.26174748591E+02  0.56005080256E+02  0.10566000000E+00 0.  1.
         23    2    1    0    0    0  0.20318957726E+02  0.80080053274E+01 -0.91103706915E+01  0.10133595456E+03  0.98534200358E+02 0.  0.
         13    1    3    3    0    0 -0.28452865758E+02 -0.52133349218E+00 -0.35285119283E+02  0.45330874305E+02  0.10566000000E+00 0. -1.
         22    1    1    0    0    0 -0.20318957726E+02 -0.80080053274E+01  0.91103706915E+01  0.23664045439E+02  0.00000000000E+00 0.  1.
</event>
<event>
 5    1  0.1245610E-004  0.9118800E+02  0.7818608E-02  0.1130116E+00
         25   -1    0    0    0    0  0.00000000000E+00  0.00000000000E+00  0.99999998245E-14  0.12500000000E+03  0.12500000000E+03 0.  0.
        -13    1    3    3    0    0 -0.15310579890E+02  0.21947986608E+02  0.47706298664E+02  0.54699452182E+02  0.10566000000E+00 0.  1.
         23    2    1    0    0    0 -0.24075249176E+02 -0.10224731893E+01  0.11924088880E+02  0.98114186456E+02  0.94358606464E+02 0.  0.
         13    1    3    3    0    0 -0.87646692861E+01 -0.22970459798E+02 -0.35782209784E+02  0.43414734274E+02  0.10566000000E+00 0. -1.
         22    1    1    0    0    0  0.24075249176E+02  0.10224731893E+01 -0.11924088880E+02  0.26885813544E+02  0.00000000000E+00 0.  1.
</event>
<event>
 5    1  0.1245610E-004  0.9118800E+02  0.7818608E-02  0.1130116E+00
         25   -1    0    0    0    0  0.00000000000E+00  0.00000000000E+00  0.99999998245E-14  0.12500000000E+03  0.12500000000E+03 0.  0.
        -13    1    3    3    0    0 -0.71868289299E+01  0.40243451974E+02 -0.29689188013E+02  0.50523707165E+02  0.10566000000E+00 0.  1.
         23    2    1    0    0    0 -0.26359207060E+02  0.11029890616E+02  0.76550900583E-01  0.96426023310E+02  0.92095091224E+02 0.  0.
         13    1    3    3    0    0 -0.19172378130E+02 -0.29213561358E+02  0.29765738913E+02  0.45902316145E+02  0.10566000000E+00 0. -1.
         22    1    1    0    0    0  0.26359207060E+02 -0.11029890616E+02 -0.76550900583E-01  0.28573976690E+02  0.00000000000E+00 0. -1.
</event>
<event>
 5    1  0.1245610E-004  0.9118800E+02  0.7818608E-02  0.1130116E+00
         25   -1    0    0    0    0  0.00000000000E+00  0.00000000000E+00  0.99999998245E-14  0.12500000000E+03  0.12500000000E+03 0.  0.
        -13    1    3    3    0    0  0.75221502742E+01 -0.28331194051E+02 -0.15931877281E+02  0.33362781341E+02  0.10566000000E+00 0.  1.
         23    2    1    0    0    0 -0.64608308309E-01  0.12392644394E+02  0.28386163990E+02  0.94026525617E+02  0.88778552614E+02 0.  0.
         13    1    3    3    0    0 -0.75867585825E+01  0.40723838444E+02  0.44318041271E+02  0.60663744276E+02  0.10566000000E+00 0. -1.
         22    1    1    0    0    0  0.64608308309E-01 -0.12392644394E+02 -0.28386163990E+02  0.30973474383E+02  0.00000000000E+00 0. -1.
</event>
<event>
 5    1  0.1245610E-004  0.9118800E+02  0.7818608E-02  0.1130116E+00
         25   -1    0    0    0    0  0.00000000000E+00  0.00000000000E+00  0.99999998245E-14  0.12500000000E+03  0.12500000000E+03 0.  0.
        -13    1    3    3    0    0  0.32012296742E+02  0.49161645058E+02 -0.17850326281E+02  0.61321283417E+02  0.10566000000E+00 0. -1.
         23    2    1    0    0    0  0.75635971112E+01  0.27292283251E+02 -0.80165666179E+01  0.95566310686E+02  0.90920721903E+02 0.  0.
         13    1    3    3    0    0 -0.24448699630E+02 -0.21869361807E+02  0.98337596633E+01  0.34245027269E+02  0.10566000000E+00 0.  1.
         22    1    1    0    0    0 -0.75635971112E+01 -0.27292283251E+02  0.80165666179E+01  0.29433689314E+02  0.00000000000E+00 0. -1.
</event>
<event>
 5    1  0.1245610E-004  0.9118800E+02  0.7818608E-02  0.1130116E+00
         25   -1    0    0    0    0  0.00000000000E+00  0.00000000000E+00  0.99999998245E-14  0.12500000000E+03  0.12500000000E+03 0.  0.
        -13    1    3    3    0    0 -0.26286173201E+02  0.20996667082E+02 -0.20446762189E+01  0.33704818572E+02  0.10566000000E+00 0. -1.
         23    2    1    0    0    0  0.18950707842E+02 -0.21319035141E+02 -0.62787565215E+01  0.95792922595E+02  0.91231741455E+02 0.  0.
         13    1    3    3    0    0  0.45236881043E+02 -0.42315702223E+02 -0.42340803025E+01  0.62088104023E+02  0.10566000000E+00 0.  1.
         22    1    1    0    0    0 -0.18950707842E+02  0.21319035141E+02  0.62787565215E+01  0.29207077405E+02  0.00000000000E+00 0.  1.
</event>
<event>
 5    1  0.1245610E-004  0.9118800E+02  0.7818608E-02  0.1130116E+00
         25   -1    0    0    0    0  0.00000000000E+00  0.00000000000E+00  0.99999998245E-14  0.12500000000E+03  0.12500000000E+03 0.  0.
        -13    1    3    3    0    0 -0.42405203812E+02 -0.69876321940E+01 -0.19157079124E+02  0.47053513776E+02  0.10566000000E+00 0.  1.
         23    2    1    0    0    0 -0.17770118000E+02  0.13679445596E+02  0.18037027566E+02  0.96220863652E+02  0.91816207246E+02 0.  0.
         13    1    3    3    0    0  0.24635085813E+02  0.20667077790E+02  0.37194106690E+02  0.49167349876E+02  0.10566000000E+00 0. -1.
         22    1    1    0    0    0  0.17770118000E+02 -0.13679445596E+02 -0.18037027566E+02  0.28779136348E+02  0.00000000000E+00 0.  1.
</event>
<event>
 5    1  0.1245610E-004  0.9118800E+02  0.7818608E-02  0.1130116E+00
         25   -1    0    0    0    0  0.00000000000E+00  0.00000000000E+00  0.99999998245E-14  0.12500000000E+03  0.12500000000E+03 0.  0.
        -13    1    3    3    0    0 -0.19403071193E+02  0.12873708983E+02 -0.24665733480E+02  0.33920806695E+02  0.10566000000E+00 0.  1.
         23    2    1    0    0    0 -0.20556776813E+01  0.57969342411E+01  0.31383988440E+02  0.93018990201E+02  0.87348426147E+02 0.  0.
         13    1    3    3    0    0  0.17347393512E+02 -0.70767747417E+01  0.56049721920E+02  0.59098183506E+02  0.10566000000E+00 0. -1.
         22    1    1    0    0    0  0.20556776813E+01 -0.57969342411E+01 -0.31383988440E+02  0.31981009799E+02  0.00000000000E+00 0. -1.
</event>
<event>
 5    1  0.1245610E-004  0.9118800E+02  0.7818608E-02  0.1130116E+00
         25   -1    0    0    0    0  0.00000000000E+00  0.00000000000E+00  0.99999998245E-14  0.12500000000E+03  0.12500000000E+03 0.  0.
        -13    1    3    3    0    0  0.27740740536E+02  0.13109146419E+02  0.54317184976E+02  0.62384021617E+02  0.10566000000E+00 0.  1.
         23    2    1    0    0    0  0.13284894731E+02  0.92526822444E+01  0.28207117645E+02  0.92477053600E+02  0.86569413767E+02 0.  0.
         13    1    3    3    0    0 -0.14455845805E+02 -0.38564641749E+01 -0.26110067331E+02  0.30093031983E+02  0.10566000000E+00 0. -1.
         22    1    1    0    0    0 -0.13284894731E+02 -0.92526822444E+01 -0.28207117645E+02  0.32522946400E+02  0.00000000000E+00 0.  1.
</event>
<event>
 5    1  0.1245610E-004  0.9118800E+02  0.7818608E-02  0.1130116E+00
         25   -1    0    0    0    0  0.00000000000E+00  0.00000000000E+00  0.99999998245E-14  0.12500000000E+03  0.12500000000E+03 0.  0.
        -13    1    3    3    0    0 -0.16287900082E+02 -0.13058609061E+02  0.28548005581E+02  0.35366972536E+02  0.10566000000E+00 0.  1.
         23    2    1    0    0    0  0.16185311836E+02  0.18993531412E+02 -0.12810702302E+02  0.96949462604E+02  0.92802832128E+02 0.  0.
         13    1    3    3    0    0  0.32473211918E+02  0.32052140474E+02 -0.41358707883E+02  0.61582490068E+02  0.10566000000E+00 0. -1.
         22    1    1    0    0    0 -0.16185311836E+02 -0.18993531412E+02  0.12810702302E+02  0.28050537396E+02  0.00000000000E+00 0. -1.
</event>
<event>
 5    1  0.1245610E-004  0.9118800E+02  0.7818608E-02  0.1130116E+00
         25   -1    0    0    0    0  0.00000000000E+00  0.00000000000E+00  0.99999998245E-14  0.12500000000E+03  0.12500000000E+03 0.  0.
        -13    1    3    3    0    0  0.25061387563E+01 -0.42869985420E+02  0.11321033866E+02  0.44410509491E+02  0.10566000000E+00 0.  1.
         23    2    1    0    0    0 -0.26307640708E+02  0.13323864602E+01  0.87715317221E+01  0.97236589149E+02  0.93188772324E+02 0.  0.
         13    1    3    3    0    0 -0.28813779465E+02  0.44202371880E+02 -0.25495021441E+01  0.52826079659E+02  0.10566000000E+00 0. -1.
         22    1    1    0    0    0  0.26307640708E+02 -0.13323864602E+01 -0.87715317221E+01  0.27763410851E+02  0.00000000000E+00 0. -1.
</event>
<event>
 5    1  0.1245610E-004  0.9118800E+02  0.7818608E-02  0.1130116E+00
         25   -1    0    0    0    0  0.00000000000E+00  0.00000000000E+00  0.99999998245E-14  0.12500000000E+03  0.12500000000E+03 0.  0.
        -13    1    3    3    0    0  0.80338404967E+01 -0.56779000407E+02 -0.81381910409E+01  0.57919243760E+02  0.10566000000E+00 0.  1.
         23    2    1    0    0    0 -0.95296270059E+01 -0.28237967448E+02  0.65125236366E+01  0.94494106134E+02  0.89434481792E+02 0.  0.
         13    1    3    3    0    0 -0.17563467503E+02  0.28541032959E+02  0.14650714678E+02  0.36574862374E+02  0.10566000000E+00 0. -1.
         22    1    1    0    0    0  0.95296270059E+01  0.28237967448E+02 -0.65125236366E+01  0.30505893866E+02  0.00000000000E+00 0.  1.
</event>
<event>
 5    1  0.1245610E-004  0.9118800E+02  0.7818608E-02  0.1130116E+00
         25   -1    0    0    0    0  0.00000000000E+00  0.00000000000E+00  0.99999998245E-14  0.12500000000E+03  0.12500000000E+03 0.  0.
        -13    1    3    3    0    0  0.12777192885E+02 -0.31497817609E+01 -0.57760683315E+02  0.59240910562E+02  0.10566000000E+00 0.  1.
         23    2    1    0    0    0 -0.86634972168E+01 -0.12062342959E+00 -0.25267278773E+02  0.98288464839E+02  0.94589197109E+02 0.  0.
         13    1    3    3    0    0 -0.21440690101E+02  0.30291583313E+01  0.32493404542E+02  0.39047554277E+02  0.10566000000E+00 0. -1.
         22    1    1    0    0    0  0.86634972168E+01  0.12062342959E+00  0.25267278773E+02  0.26711535161E+02  0.00000000000E+00 0.  1.
</event>
<event>
 5    1  0.1245610E-004  0.9118800E+02  0.7818608E-02  0.1130116E+00
         25   -1    0    0    0    0  0.00000000000E+00  0.00000000000E+00  0.99999998245E-14  0.12500000000E+03  0.12500000000E+03 0.  0.
        -13    1    3    3    0    0  0.13404324388E+02  0.19640048934E+01 -0.34999768699E+02  0.37530363714E+02  0.10566000000E+00 0. -1.
         23    2    1    0    0    0  0.88066749070E+01 -0.80663007708E+01  0.24340371978E+02  0.97887706864E+02  0.94058102873E+02 0.  0.
         13    1    3    3    0    0 -0.45976494812E+01 -0.10030305664E+02  0.59340140677E+02  0.60357343150E+02  0.10566000000E+00 0.  1.
         22    1    1    0    0    0 -0.88066749070E+01  0.80663007708E+01 -0.24340371978E+02  0.27112293136E+02  0.00000000000E+00 0.  1.
</event>
<event>
 5    1  0.1245610E-004  0.9118800E+02  0.7818608E-02  0.1130116E+00
         25   -1    0    0    0    0  0.00000000000E+00  0.00000000000E+00  0.99999998245E-14  0.12500000000E+03  0.12500000000E+03 0.  0.
        -13    1    3    3    0    0 -0.95636178338E+01 -0.68584049658E+01  0.50443628723E+02  0.51798372054E+02  0.10566000000E+00 0.  1.
         23    2    1    0    0    0  0.16628910939E+02 -0.17047686269E+02  0.15746238641E+02  0.96450248381E+02  0.92127965870E+02 0.  0.
         13    1    3    3    0    0  0.26192528773E+02 -0.10189281303E+02 -0.34697390081E+02  0.44651876327E+02  0.10566000000E+00 0. -1.
         22    1    1    0    0    0 -0.16628910939E+02  0.17047686269E+02 -0.15746238641E+02  0.28549751619E+02  0.00000000000E+00 0.  1.
</event>
<event>
 5    1  0.1245610E-004  0.9118800E+02  0.7818608E-02  0.1130116E+00
         25   -1    0    0    0    0  0.00000000000E+00  0.00000000000E+00  0.99999998245E-14  0.12500000000E+03  0.12500000000E+03 0.  0.
        -13    1    3    3    0    0  0.48372654167E+02  0.22012717027E+01  0.51431876919E+01  0.48695203172E+02  0.10566000000E+00 0.  1.
         23    2    1    0    0    0  0.81886092655E+01 -0.20902101445E+02  0.17350080928E+02  0.96627892664E+02  0.92368680655E+02 0.  0.
         13    1    3    3    0    0 -0.40184044901E+02 -0.23103373148E+02  0.12206893236E+02  0.47932689492E+02  0.10566000000E+00 0. -1.
         22    1    1    0    0    0 -0.81886092655E+01  0.20902101445E+02 -0.17350080928E+02  0.28372107336E+02  0.00000000000E+00 0. -1.
</event>
<event>
 5    1  0.1245610E-004  0.9118800E+02  0.7818608E-02  0.1130116E+00
         25   -1    0    0    0    0  0.00000000000E+00  0.00000000000E+00  0.99999998245E-14  0.12500000000E+03  0.12500000000E+03 0.  0.
        -13    1    3    3    0    0 -0.35371042746E+02 -0.45087501910E+01  0.50744970262E+02  0.62020179491E+02  0.10566000000E+00 0.  1.
         23    2    1    0    0    0 -0.11464678495E+02 -0.24711611881E+01  0.25947489677E+02  0.96525138961E+02  0.92229522065E+02 0.  0.
         13    1    3    3    0    0  0.23906364251E+02  0.20375890029E+01 -0.24797480584E+02  0.34504959470E+02  0.10566000000E+00 0. -1.
         22    1    1    0    0    0  0.11464678495E+02  0.24711611881E+01 -0.25947489677E+02  0.28474861039E+02  0.00000000000E+00 0.  1.
</event>
<event>
 5    1  0.1245610E-004  0.9118800E+02  0.7818608E-02  0.1130116E+00
         25   -1    0    0    0    0  0.00000000000E+00  0.00000000000E+00  0.99999998245E-14  0.12500000000E+03  0.12500000000E+03 0.  0.
        -13    1    3    3    0    0 -0.27543187043E+01  0.31980309481E+02 -0.45852576782E+01  0.32424716160E+02  0.10566000000E+00 0.  1.
         23    2    1    0    0    0  0.21637448911E+02 -0.15415853278E+02  0.20602178589E+02  0.91380400206E+02  0.84971171885E+02 0.  0.
         13    1    3    3    0    0  0.24391767615E+02 -0.47396162759E+02  0.25187436267E+02  0.58955684047E+02  0.10566000000E+00 0. -1.
         22    1    1    0    0    0 -0.21637448911E+02  0.15415853278E+02 -0.20602178589E+02  0.33619599794E+02  0.00000000000E+00 0. -1.
</event>
<event>
 5    1  0.1245610E-004  0.9118800E+02  0.7818608E-02  0.1130116E+00
         25   -1    0    0    0    0  0.00000000000E+00  0.00000000000E+00  0.99999998245E-14  0.12500000000E+03  0.12500000000E+03 0.  0.
        -13    1    3    3    0    0  0.19472303579E+02  0.28468469861E+02  0.25258670567E+01  0.34583457770E+02  0.10566000000E+00 0. -1.
         23    2    1    0    0    0 -0.20039958315E+02 -0.19645820156E+02  0.22912249750E+01  0.96843155526E+02  0.92659532059E+02 0.  0.
         13    1    3    3    0    0 -0.39512261894E+02 -0.48114290017E+02 -0.23464208172E+00  0.62259697756E+02  0.10566000000E+00 0.  1.
         22    1    1    0    0    0  0.20039958315E+02  0.19645820156E+02 -0.22912249750E+01  0.28156844474E+02  0.00000000000E+00 0.  1.
</event>
<event>
 5    1  0.1245610E-004  0.9118800E+02  0.7818608E-02  0.1130116E+00
         25   -1    0    0    0    0  0.00000000000E+00  0.00000000000E+00  0.99999998245E-14  0.12500000000E+03  0.12500000000E+03 0.  0.
        -13    1    3    3    0    0 -0.11414894764E+02  0.48803891156E+02 -0.32200420472E+02  0.59573466049E+02  0.10566000000E+00 0. -1.
         23    2    1    0    0    0  0.62928054601E+01  0.26536653844E+02 -0.90100980305E+01  0.96277617364E+02  0.91893440141E+02 0.  0.
         13    1    3    3    0    0  0.17707700224E+02 -0.22267237313E+02  0.23190322442E+02  0.36704151315E+02  0.10566000000E+00 0.  1.
         22    1    1    0    0    0 -0.62928054601E+01 -0.26536653844E+02  0.90100980305E+01  0.28722382636E+02  0.00000000000E+00 0. -1.
</event>
<event>
 5    1  0.1245610E-004  0.9118800E+02  0.7818608E-02  0.1130116E+00
         25   -1    0    0    0    0  0.00000000000E+00  0.00000000000E+00  0.99999998245E-14  0.12500000000E+03  0.12500000000E+03 0.  0.
        -13    1    3    3    0    0  0.35017415226E+02  0.44110977455E+01  0.12086583970E+02  0.37306485073E+02  0.10566000000E+00 0. -1.
         23    2    1    0    0    0 -0.78698428203E+01 -0.28414825070E+02 -0.71898814270E+01  0.94651505726E+02  0.89654204762E+02 0.  0.
         13    1    3    3    0    0 -0.42887258046E+02 -0.32825922816E+02 -0.19276465397E+02  0.57345020653E+02  0.10566000000E+00 0.  1.
         22    1    1    0    0    0  0.78698428203E+01  0.28414825070E+02  0.71898814270E+01  0.30348494274E+02  0.00000000000E+00 0.  1.
</event>
<event>
 5    1  0.1245610E-004  0.9118800E+02  0.7818608E-02  0.1130116E+00
         25   -1    0    0    0    0  0.00000000000E+00  0.00000000000E+00  0.99999998245E-14  0.12500000000E+03  0.12500000000E+03 0.  0.
        -13    1    3    3    0    0  0.21291617767E+01 -0.29637154325E+02  0.33058739926E+02  0.44449810977E+02  0.10566000000E+00 0.  1.
         23    2    1    0    0    0 -0.21798715451E+02 -0.17110042141E+02 -0.10219152791E+02  0.95464112995E+02  0.90780109324E+02 0.  0.
         13    1    3    3    0    0 -0.23927877228E+02  0.12527112184E+02 -0.43277892717E+02  0.51014302018E+02  0.10566000000E+00 0. -1.
         22    1    1    0    0    0  0.21798715451E+02  0.17110042141E+02  0.10219152791E+02  0.29535887005E+02  0.00000000000E+00 0.  1.
</event>
<event>
 5    1  0.1245610E-004  0.9118800E+02  0.7818608E-02  0.1130116E+00
         25   -1    0    0    0    0  0.00000000000E+00  0.00000000000E+00  0.99999998245E-14  0.12500000000E+03  0.12500000000E+03 0.  0.
        -13    1    3    3    0    0  0.13971652651E+02 -0.49626304860E+02 -0.29418747229E+02  0.59358664612E+02  0.10566000000E+00 0.  1.
         23    2    1    0    0    0 -0.33458426063E+01 -0.29466358966E+02 -0.60823554837E+01  0.94726975347E+02  0.89759366289E+02 0.  0.
         13    1    3    3    0    0 -0.17317495258E+02  0.20159945895E+02  0.23336391746E+02  0.35368310735E+02  0.10566000000E+00 0. -1.
         22    1    1    0    0    0  0.33458426063E+01  0.29466358966E+02  0.60823554837E+01  0.30273024653E+02  0.00000000000E+00 0.  1.
</event>
<event>
 5    1  0.1245610E-004  0.9118800E+02  0.7818608E-02  0.1130116E+00
         25   -1    0    0    0    0  0.00000000000E+00  0.00000000000E+00  0.99999998245E-14  0.12500000000E+03  0.12500000000E+03 0.  0.
        -13    1    3    3    0    0 -0.29355328839E+02 -0.15312185928E+01  0.46489959997E+02  0.55003704477E+02  0.10566000000E+00 0.  1.
         23    2    1    0    0    0 -0.28981202482E+02  0.67025165032E+00  0.62002370759E+01  0.95355400586E+02  0.90630293758E+02 0.  0.
         13    1    3    3    0    0  0.37412635618E+00  0.22014702432E+01 -0.40289722922E+02  0.40351696109E+02  0.10566000000E+00 0. -1.
         22    1    1    0    0    0  0.28981202482E+02 -0.67025165032E+00 -0.62002370759E+01  0.29644599414E+02  0.00000000000E+00 0.  1.
</event>
<event>
 5    1  0.1245610E-004  0.9118800E+02  0.7818608E-02  0.1130116E+00
         25   -1    0    0    0    0  0.00000000000E+00  0.00000000000E+00  0.99999998245E-14  0.12500000000E+03  0.12500000000E+03 0.  0.
        -13    1    3    3    0    0 -0.25272294388E+02  0.48003852848E+01  0.20319934613E+02  0.32781755127E+02  0.10566000000E+00 0. -1.
         23    2    1    0    0    0  0.22047760296E+02 -0.73856875652E+01 -0.18577982387E+02  0.95237716074E+02  0.90467834166E+02 0.  0.
         13    1    3    3    0    0  0.47320054685E+02 -0.12186072850E+02 -0.38897917000E+02  0.62455960947E+02  0.10566000000E+00 0.  1.
         22    1    1    0    0    0 -0.22047760296E+02  0.73856875652E+01  0.18577982387E+02  0.29762283926E+02  0.00000000000E+00 0.  1.
</event>
<event>
 5    1  0.1245610E-004  0.9118800E+02  0.7818608E-02  0.1130116E+00
         25   -1    0    0    0    0  0.00000000000E+00  0.00000000000E+00  0.99999998245E-14  0.12500000000E+03  0.12500000000E+03 0.  0.
        -13    1    3    3    0    0  0.20118245710E+02  0.98834556600E+00 -0.33657963159E+02  0.39224868202E+02  0.10566000000E+00 0.  1.
         23    2    1    0    0    0 -0.26228802970E+02 -0.11977894981E+02 -0.36622555362E+01  0.95934002872E+02  0.91424836440E+02 0.  0.
         13    1    3    3    0    0 -0.46347048680E+02 -0.12966240547E+02  0.29995707623E+02  0.56709134671E+02  0.10566000000E+00 0. -1.
         22    1    1    0    0    0  0.26228802970E+02  0.11977894981E+02  0.36622555362E+01  0.29065997128E+02  0.00000000000E+00 0. -1.
</event>
<event>
 5    1  0.1245610E-004  0.9118800E+02  0.7818608E-02  0.1130116E+00
         25   -1    0    0    0    0  0.00000000000E+00  0.00000000000E+00  0.99999998245E-14  0.12500000000E+03  0.12500000000E+03 0.  0.
        -13    1    3    3    0    0 -0.23499716397E+02  0.93215292207E+01  0.20472314758E+02  0.32530822512E+02  0.10566000000E+00 0.  1.
         23    2    1    0    0    0  0.17857642724E+02 -0.14943296893E+02 -0.19242945000E+02  0.94792576112E+02  0.89850676280E+02 0.  0.
         13    1    3    3    0    0  0.41357359120E+02 -0.24264826114E+02 -0.39715259757E+02  0.62261753600E+02  0.10566000000E+00 0. -1.
         22    1    1    0    0    0 -0.17857642724E+02  0.14943296893E+02  0.19242945000E+02  0.30207423888E+02  0.00000000000E+00 0. -1.
</event>
<event>
 4    1  0.1245610E-004  0.9118800E+02  0.7818608E-02  0.1130116E+00
         25   -1    0    0    0    0  0.00000000000E+00  0.00000000000E+00  0.99999998245E-14  0.12500000000E+03  0.12500000000E+03 0.  0.
        -13    1    1    0    0    0  0.29492793404E+02  0.35360456675E+02  0.96445314678E+00  0.46055706410E+02  0.10566000000E+00 0.  1.
         13    1    1    0    0    0  0.13034574758E+02 -0.90322553847E+01  0.19298252150E+02  0.24978300113E+02  0.10566000000E+00 0. -1.
         22    1    1    0    0    0 -0.42527368162E+02 -0.26328201290E+02 -0.20262705297E+02  0.53965993477E+02  0.00000000000E+00 0.  1.
</event>
<event>
 5    1  0.1245610E-004  0.9118800E+02  0.7818608E-02  0.1130116E+00
         25   -1    0    0    0    0  0.00000000000E+00  0.00000000000E+00  0.99999998245E-14  0.12500000000E+03  0.12500000000E+03 0.  0.
        -13    1    3    3    0    0  0.36730195111E+02 -0.15853549536E+02 -0.54153418508E+00  0.40009332525E+02  0.10566000000E+00 0. -1.
         23    2    1    0    0    0 -0.12687122374E+02  0.59923364025E+00  0.24198432602E+02  0.97670779457E+02  0.93769370609E+02 0.  0.
         13    1    3    3    0    0 -0.49417317485E+02  0.16452783176E+02  0.24739966787E+02  0.57661446932E+02  0.10566000000E+00 0.  1.
         22    1    1    0    0    0  0.12687122374E+02 -0.59923364025E+00 -0.24198432602E+02  0.27329220543E+02  0.00000000000E+00 0.  1.
</event>
<event>
 5    1  0.1245610E-004  0.9118800E+02  0.7818608E-02  0.1130116E+00
         25   -1    0    0    0    0  0.00000000000E+00  0.00000000000E+00  0.99999998245E-14  0.12500000000E+03  0.12500000000E+03 0.  0.
        -13    1    3    3    0    0 -0.17942778990E+02 -0.30441664924E+02  0.46274572860E+02  0.58223582324E+02  0.10566000000E+00 0. -1.
         23    2    1    0    0    0 -0.23910410112E+02 -0.10340129764E+02  0.18390919674E+02  0.93111884318E+02  0.87481261305E+02 0.  0.
         13    1    3    3    0    0 -0.59676311218E+01  0.20101535160E+02 -0.27883653186E+02  0.34888301994E+02  0.10566000000E+00 0.  1.
         22    1    1    0    0    0  0.23910410112E+02  0.10340129764E+02 -0.18390919674E+02  0.31888115682E+02  0.00000000000E+00 0. -1.
</event>
<event>
 5    1  0.1245610E-004  0.9118800E+02  0.7818608E-02  0.1130116E+00
         25   -1    0    0    0    0  0.00000000000E+00  0.00000000000E+00  0.99999998245E-14  0.12500000000E+03  0.12500000000E+03 0.  0.
        -13    1    3    3    0    0  0.28584883990E+02 -0.20163673711E+02 -0.20781908020E+02  0.40688674041E+02  0.10566000000E+00 0.  1.
         23    2    1    0    0    0 -0.24353096937E+02 -0.14245106532E+02 -0.10213104665E+02  0.94994935470E+02  0.90131758374E+02 0.  0.
         13    1    3    3    0    0 -0.52937980927E+02  0.59185671791E+01  0.10568803354E+02  0.54306261429E+02  0.10566000000E+00 0. -1.
         22    1    1    0    0    0  0.24353096937E+02  0.14245106532E+02  0.10213104665E+02  0.30005064530E+02  0.00000000000E+00 0. -1.
</event>
<event>
 5    1  0.1245610E-004  0.9118800E+02  0.7818608E-02  0.1130116E+00
         25   -1    0    0    0    0  0.00000000000E+00  0.00000000000E+00  0.99999998245E-14  0.12500000000E+03  0.12500000000E+03 0.  0.
        -13    1    3    3    0    0  0.14198304409E+02 -0.24549413968E+01 -0.20079969262E+02  0.24715074650E+02  0.10566000000E+00 0. -1.
         23    2    1    0    0    0  0.41903356351E+02 -0.13993418954E+02  0.21398299027E+02  0.75912381920E+02  0.57905919214E+02 0.  0.
         13    1    3    3    0    0  0.27705051942E+02 -0.11538477557E+02  0.41478268289E+02  0.51197307270E+02  0.10566000000E+00 0.  1.
         22    1    1    0    0    0 -0.41903356351E+02  0.13993418954E+02 -0.21398299027E+02  0.49087618080E+02  0.00000000000E+00 0.  1.
</event>
<event>
 5    1  0.1245610E-004  0.9118800E+02  0.7818608E-02  0.1130116E+00
         25   -1    0    0    0    0  0.00000000000E+00  0.00000000000E+00  0.99999998245E-14  0.12500000000E+03  0.12500000000E+03 0.  0.
        -13    1    3    3    0    0  0.21681070325E+02 -0.88651631803E+00 -0.25296704947E+02  0.33328503820E+02  0.10566000000E+00 0. -1.
         23    2    1    0    0    0 -0.21107134269E+02  0.16359356931E+02  0.14814890396E+02  0.94461161553E+02  0.89388424241E+02 0.  0.
         13    1    3    3    0    0 -0.42788204594E+02  0.17245873249E+02  0.40111595343E+02  0.61132657733E+02  0.10566000000E+00 0.  1.
         22    1    1    0    0    0  0.21107134269E+02 -0.16359356931E+02 -0.14814890396E+02  0.30538838447E+02  0.00000000000E+00 0.  1.
</event>
<event>
 5    1  0.1245610E-004  0.9118800E+02  0.7818608E-02  0.1130116E+00
         25   -1    0    0    0    0  0.00000000000E+00  0.00000000000E+00  0.99999998245E-14  0.12500000000E+03  0.12500000000E+03 0.  0.
        -13    1    3    3    0    0  0.12116016988E+01 -0.31553574805E+01 -0.33606600184E+02  0.33776308257E+02  0.10566000000E+00 0. -1.
         23    2    1    0    0    0 -0.61878752002E+01  0.25949196795E+01  0.28058934314E+02  0.96149918501E+02  0.91719570568E+02 0.  0.
         13    1    3    3    0    0 -0.73994768990E+01  0.57502771601E+01  0.61665534499E+02  0.62373610244E+02  0.10566000000E+00 0.  1.
         22    1    1    0    0    0  0.61878752002E+01 -0.25949196795E+01 -0.28058934314E+02  0.28850081499E+02  0.00000000000E+00 0.  1.
</event>
<event>
 5    1  0.1245610E-004  0.9118800E+02  0.7818608E-02  0.1130116E+00
         25   -1    0    0    0    0  0.00000000000E+00  0.00000000000E+00  0.99999998245E-14  0.12500000000E+03  0.12500000000E+03 0.  0.
        -13    1    3    3    0    0 -0.42933623803E+02 -0.25659607899E+02 -0.25696029635E+02  0.56231740444E+02  0.10566000000E+00 0.  1.
         23    2    1    0    0    0 -0.29409174190E+02 -0.45063528300E+01  0.38440632377E+01  0.95000273926E+02  0.90139161752E+02 0.  0.
         13    1    3    3    0    0  0.13524449613E+02  0.21153255069E+02  0.29540092873E+02  0.38768533481E+02  0.10566000000E+00 0. -1.
         22    1    1    0    0    0  0.29409174190E+02  0.45063528300E+01 -0.38440632377E+01  0.29999726074E+02  0.00000000000E+00 0.  1.
</event>
<event>
 5    1  0.1245610E-004  0.9118800E+02  0.7818608E-02  0.1130116E+00
         25   -1    0    0    0    0  0.00000000000E+00  0.00000000000E+00  0.99999998245E-14  0.12500000000E+03  0.12500000000E+03 0.  0.
        -13    1    3    3    0    0  0.18741186044E+02  0.47440499619E+02 -0.20275552939E+02  0.54890274817E+02  0.10566000000E+00 0.  1.
         23    2    1    0    0    0 -0.12829136003E+02  0.25626022125E+02 -0.69592028956E+01  0.95509149801E+02  0.90842101749E+02 0.  0.
         13    1    3    3    0    0 -0.31570322047E+02 -0.21814477494E+02  0.13316350044E+02  0.40618874984E+02  0.10566000000E+00 0. -1.
         22    1    1    0    0    0  0.12829136003E+02 -0.25626022125E+02  0.69592028956E+01  0.29490850199E+02  0.00000000000E+00 0.  1.
</event>
<event>
 5    1  0.1245610E-004  0.9118800E+02  0.7818608E-02  0.1130116E+00
         25   -1    0    0    0    0  0.00000000000E+00  0.00000000000E+00  0.99999998245E-14  0.12500000000E+03  0.12500000000E+03 0.  0.
        -13    1    3    3    0    0 -0.34361156685E+02  0.38903892746E+02 -0.33278756060E+01  0.52012381983E+02  0.10566000000E+00 0.  1.
         23    2    1    0    0    0 -0.26884808007E+02 -0.11058824401E+01  0.12042856017E+02  0.95520409457E+02  0.90857593872E+02 0.  0.
         13    1    3    3    0    0  0.74763486783E+01 -0.40009775186E+02  0.15370731623E+02  0.43508027474E+02  0.10566000000E+00 0. -1.
         22    1    1    0    0    0  0.26884808007E+02  0.11058824401E+01 -0.12042856017E+02  0.29479590543E+02  0.00000000000E+00 0.  1.
</event>
<event>
 5    1  0.1245610E-004  0.9118800E+02  0.7818608E-02  0.1130116E+00
         25   -1    0    0    0    0  0.00000000000E+00  0.00000000000E+00  0.99999998245E-14  0.12500000000E+03  0.12500000000E+03 0.  0.
        -13    1    3    3    0    0  0.51569467939E+02 -0.30729706124E+02  0.16017268321E+02  0.62131223314E+02  0.10566000000E+00 0.  1.
         23    2    1    0    0    0  0.25600941045E+02 -0.14827744590E+02  0.29466340676E+01  0.95268655524E+02  0.90510573310E+02 0.  0.
         13    1    3    3    0    0 -0.25968526894E+02  0.15901961534E+02 -0.13070634253E+02  0.33137432210E+02  0.10566000000E+00 0. -1.
         22    1    1    0    0    0 -0.25600941045E+02  0.14827744590E+02 -0.29466340676E+01  0.29731344476E+02  0.00000000000E+00 0.  1.
</event>
<event>
 5    1  0.1245610E-004  0.9118800E+02  0.7818608E-02  0.1130116E+00
         25   -1    0    0    0    0  0.00000000000E+00  0.00000000000E+00  0.99999998245E-14  0.12500000000E+03  0.12500000000E+03 0.  0.
        -13    1    3    3    0    0  0.28310166650E+02  0.34220558259E+01  0.39446062745E+02  0.48674213213E+02  0.10566000000E+00 0.  1.
         23    2    1    0    0    0  0.14837384713E+02  0.26447738132E+02  0.20573363519E+01  0.94604877525E+02  0.89589170000E+02 0.  0.
         13    1    3    3    0    0 -0.13472781937E+02  0.23025682306E+02 -0.37388726393E+02  0.45930664312E+02  0.10566000000E+00 0. -1.
         22    1    1    0    0    0 -0.14837384713E+02 -0.26447738132E+02 -0.20573363519E+01  0.30395122475E+02  0.00000000000E+00 0. -1.
</event>
<event>
 5    1  0.1245610E-004  0.9118800E+02  0.7818608E-02  0.1130116E+00
         25   -1    0    0    0    0  0.00000000000E+00  0.00000000000E+00  0.99999998245E-14  0.12500000000E+03  0.12500000000E+03 0.  0.
        -13    1    3    3    0    0  0.63176014853E+01  0.20524584095E+02 -0.29350731507E+02  0.36368217509E+02  0.10566000000E+00 0.  1.
         23    2    1    0    0    0  0.15895661112E+02 -0.92584419373E+01  0.21891321962E+02  0.96405931270E+02  0.92067816404E+02 0.  0.
         13    1    3    3    0    0  0.95780596270E+01 -0.29783026032E+02  0.51242053469E+02  0.60037713760E+02  0.10566000000E+00 0. -1.
         22    1    1    0    0    0 -0.15895661112E+02  0.92584419373E+01 -0.21891321962E+02  0.28594068730E+02  0.00000000000E+00 0. -1.
</event>
<event>
 5    1  0.1245610E-004  0.9118800E+02  0.7818608E-02  0.1130116E+00
         25   -1    0    0    0    0  0.00000000000E+00  0.00000000000E+00  0.99999998245E-14  0.12500000000E+03  0.12500000000E+03 0.  0.
        -13    1    3    3    0    0  0.96165570880E+01  0.34885027080E+02  0.47000469705E+02  0.59316933511E+02  0.10566000000E+00 0.  1.
         23    2    1    0    0    0  0.14630277045E+02  0.23983991369E+02  0.15749206044E+02  0.92792635323E+02  0.87023898044E+02 0.  0.
         13    1    3    3    0    0  0.50137199567E+01 -0.10901035711E+02 -0.31251263661E+02  0.33475701812E+02  0.10566000000E+00 0. -1.
         22    1    1    0    0    0 -0.14630277045E+02 -0.23983991369E+02 -0.15749206044E+02  0.32207364677E+02  0.00000000000E+00 0.  1.
</event>
<event>
 5    1  0.1245610E-004  0.9118800E+02  0.7818608E-02  0.1130116E+00
         25   -1    0    0    0    0  0.00000000000E+00  0.00000000000E+00  0.99999998245E-14  0.12500000000E+03  0.12500000000E+03 0.  0.
        -13    1    3    3    0    0 -0.78873106530E+01  0.21462602200E+02  0.24019258367E+02  0.33163065285E+02  0.10566000000E+00 0. -1.
         23    2    1    0    0    0  0.83799452297E+01 -0.22084352898E+02 -0.17588263356E+02  0.95550226947E+02  0.90898606903E+02 0.  0.
         13    1    3    3    0    0  0.16267255883E+02 -0.43546955098E+02 -0.41607521724E+02  0.62387161662E+02  0.10566000000E+00 0.  1.
         22    1    1    0    0    0 -0.83799452297E+01  0.22084352898E+02  0.17588263356E+02  0.29449773053E+02  0.00000000000E+00 0.  1.
</event>
<event>
 5    1  0.1245610E-004  0.9118800E+02  0.7818608E-02  0.1130116E+00
         25   -1    0    0    0    0  0.00000000000E+00  0.00000000000E+00  0.99999998245E-14  0.12500000000E+03  0.12500000000E+03 0.  0.
        -13    1    3    3    0    0 -0.29902989249E+02  0.78716959582E+01 -0.98353809407E+01  0.32448393574E+02  0.10566000000E+00 0. -1.
         23    2    1    0    0    0  0.27057697343E+02 -0.14621439919E+02 -0.21587259932E+01  0.94168756290E+02  0.88978587719E+02 0.  0.
         13    1    3    3    0    0  0.56960686591E+02 -0.22493135877E+02  0.76766549475E+01  0.61720362716E+02  0.10566000000E+00 0.  1.
         22    1    1    0    0    0 -0.27057697343E+02  0.14621439919E+02  0.21587259932E+01  0.30831243710E+02  0.00000000000E+00 0.  1.
</event>
<event>
 5    1  0.1245610E-004  0.9118800E+02  0.7818608E-02  0.1130116E+00
         25   -1    0    0    0    0  0.00000000000E+00  0.00000000000E+00  0.99999998245E-14  0.12500000000E+03  0.12500000000E+03 0.  0.
        -13    1    3    3    0    0  0.15069131832E+02 -0.35757928392E+02  0.31414512398E+02  0.49925854327E+02  0.10566000000E+00 0.  1.
         23    2    1    0    0    0  0.27214834411E+02  0.31747367503E+01  0.12295584024E+02  0.94968224296E+02  0.90094706137E+02 0.  0.
         13    1    3    3    0    0  0.12145702579E+02  0.38932665142E+02 -0.19118928374E+02  0.45042369969E+02  0.10566000000E+00 0. -1.
         22    1    1    0    0    0 -0.27214834411E+02 -0.31747367503E+01 -0.12295584024E+02  0.30031775704E+02  0.00000000000E+00 0.  1.
</event>
<event>
 5    1  0.1245610E-004  0.9118800E+02  0.7818608E-02  0.1130116E+00
         25   -1    0    0    0    0  0.00000000000E+00  0.00000000000E+00  0.99999998245E-14  0.12500000000E+03  0.12500000000E+03 0.  0.
        -13    1    3    3    0    0 -0.53048952052E+01  0.28352431852E+02  0.21802511017E+02  0.36157474410E+02  0.10566000000E+00 0. -1.
         23    2    1    0    0    0  0.11128191289E+02 -0.21650979945E+01 -0.26827414430E+02  0.95875535101E+02  0.91344861789E+02 0.  0.
         13    1    3    3    0    0  0.16433086494E+02 -0.30517529847E+02 -0.48629925446E+02  0.59718060690E+02  0.10566000000E+00 0.  1.
         22    1    1    0    0    0 -0.11128191289E+02  0.21650979945E+01  0.26827414430E+02  0.29124464899E+02  0.00000000000E+00 0.  1.
</event>
<event>
 5    1  0.1245610E-004  0.9118800E+02  0.7818608E-02  0.1130116E+00
         25   -1    0    0    0    0  0.00000000000E+00  0.00000000000E+00  0.99999998245E-14  0.12500000000E+03  0.12500000000E+03 0.  0.
        -13    1    3    3    0    0 -0.82612070631E+00  0.32099864994E+02  0.20159912045E+02  0.37914601748E+02  0.10566000000E+00 0. -1.
         23    2    1    0    0    0  0.17468289038E+02  0.53998413272E+01 -0.25340139841E+02  0.93752246553E+02  0.88391524697E+02 0.  0.
         13    1    3    3    0    0  0.18294409745E+02 -0.26700023667E+02 -0.45500051886E+02  0.55837644805E+02  0.10566000000E+00 0.  1.
         22    1    1    0    0    0 -0.17468289038E+02 -0.53998413272E+01  0.25340139841E+02  0.31247753447E+02  0.00000000000E+00 0.  1.
</event>
<event>
 5    1  0.1245610E-004  0.9118800E+02  0.7818608E-02  0.1130116E+00
         25   -1    0    0    0    0  0.00000000000E+00  0.00000000000E+00  0.99999998245E-14  0.12500000000E+03  0.12500000000E+03 0.  0.
        -13    1    3    3    0    0 -0.20333838491E+01  0.32365585510E+02 -0.36555316807E+02  0.48866840763E+02  0.10566000000E+00 0.  1.
         23    2    1    0    0    0  0.22531795436E+02  0.21677749531E+01  0.14005506874E+00  0.10236373111E+03  0.99829518568E+02 0.  0.
         13    1    3    3    0    0  0.24565179285E+02 -0.30197810557E+02  0.36695371876E+02  0.53496890347E+02  0.10566000000E+00 0. -1.
         22    1    1    0    0    0 -0.22531795436E+02 -0.21677749531E+01 -0.14005506874E+00  0.22636268890E+02  0.00000000000E+00 0.  1.
</event>
<event>
 5    1  0.1245610E-004  0.9118800E+02  0.7818608E-02  0.1130116E+00
         25   -1    0    0    0    0  0.00000000000E+00  0.00000000000E+00  0.99999998245E-14  0.12500000000E+03  0.12500000000E+03 0.  0.
        -13    1    3    3    0    0  0.95103529887E+01 -0.24295826752E+02 -0.55285157373E+02  0.61132591973E+02  0.10566000000E+00 0.  1.
         23    2    1    0    0    0  0.55228704659E+01 -0.28807818536E+01 -0.29322273478E+02  0.95023397053E+02  0.90171221924E+02 0.  0.
         13    1    3    3    0    0 -0.39874825228E+01  0.21415044898E+02  0.25962883895E+02  0.33890805081E+02  0.10566000000E+00 0. -1.
         22    1    1    0    0    0 -0.55228704659E+01  0.28807818536E+01  0.29322273478E+02  0.29976602947E+02  0.00000000000E+00 0.  1.
</event>
<event>
 5    1  0.1245610E-004  0.9118800E+02  0.7818608E-02  0.1130116E+00
         25   -1    0    0    0    0  0.00000000000E+00  0.00000000000E+00  0.99999998245E-14  0.12500000000E+03  0.12500000000E+03 0.  0.
        -13    1    3    3    0    0  0.21962128083E+02  0.37050922793E+02 -0.54798903087E+01  0.43418271633E+02  0.10566000000E+00 0. -1.
         23    2    1    0    0    0  0.22388710154E+02 -0.15513420238E+02 -0.95361223101E+01  0.96140717636E+02  0.91707030314E+02 0.  0.
         13    1    3    3    0    0  0.42658207100E+00 -0.52564343031E+02 -0.40562320015E+01  0.52722446004E+02  0.10566000000E+00 0.  1.
         22    1    1    0    0    0 -0.22388710154E+02  0.15513420238E+02  0.95361223101E+01  0.28859282364E+02  0.00000000000E+00 0. -1.
</event>
<event>
 5    1  0.1245610E-004  0.9118800E+02  0.7818608E-02  0.1130116E+00
         25   -1    0    0    0    0  0.00000000000E+00  0.00000000000E+00  0.99999998245E-14  0.12500000000E+03  0.12500000000E+03 0.  0.
        -13    1    3    3    0    0  0.10699005713E+02 -0.89961147077E+01 -0.50740210984E+02  0.52630589753E+02  0.10566000000E+00 0. -1.
         23    2    1    0    0    0 -0.88115517419E+01  0.16781430081E+02 -0.22714793093E+02  0.95415854501E+02  0.90713635277E+02 0.  0.
         13    1    3    3    0    0 -0.19510557455E+02  0.25777544788E+02  0.28025417891E+02  0.42785264747E+02  0.10566000000E+00 0.  1.
         22    1    1    0    0    0  0.88115517419E+01 -0.16781430081E+02  0.22714793093E+02  0.29584145499E+02  0.00000000000E+00 0. -1.
</event>
<event>
 5    1  0.1245610E-004  0.9118800E+02  0.7818608E-02  0.1130116E+00
         25   -1    0    0    0    0  0.00000000000E+00  0.00000000000E+00  0.99999998245E-14  0.12500000000E+03  0.12500000000E+03 0.  0.
        -13    1    3    3    0    0 -0.18978966591E+02  0.28241316803E+02 -0.45849191104E+02  0.57095819782E+02  0.10566000000E+00 0.  1.
         23    2    1    0    0    0 -0.11822892130E+02  0.26474466508E+02 -0.90501820528E+01  0.94625932930E+02  0.89618542905E+02 0.  0.
         13    1    3    3    0    0  0.71560744612E+01 -0.17668502953E+01  0.36799009051E+02  0.37530113147E+02  0.10566000000E+00 0. -1.
         22    1    1    0    0    0  0.11822892130E+02 -0.26474466508E+02  0.90501820528E+01  0.30374067070E+02  0.00000000000E+00 0.  1.
</event>
<event>
 5    1  0.1245610E-004  0.9118800E+02  0.7818608E-02  0.1130116E+00
         25   -1    0    0    0    0  0.00000000000E+00  0.00000000000E+00  0.99999998245E-14  0.12500000000E+03  0.12500000000E+03 0.  0.
        -13    1    3    3    0    0  0.35003277452E+02 -0.13312827015E+02 -0.35531348945E+01  0.37617771427E+02  0.10566000000E+00 0.  1.
         23    2    1    0    0    0 -0.12627351419E+02  0.93044166793E+01  0.23395527111E+02  0.96833124731E+02  0.92645999281E+02 0.  0.
         13    1    3    3    0    0 -0.47630628871E+02  0.22617243695E+02  0.26948662006E+02  0.59215353304E+02  0.10566000000E+00 0. -1.
         22    1    1    0    0    0  0.12627351419E+02 -0.93044166793E+01 -0.23395527111E+02  0.28166875269E+02  0.00000000000E+00 0. -1.
</event>
<event>
 5    1  0.1245610E-004  0.9118800E+02  0.7818608E-02  0.1130116E+00
         25   -1    0    0    0    0  0.00000000000E+00  0.00000000000E+00  0.99999998245E-14  0.12500000000E+03  0.12500000000E+03 0.  0.
        -13    1    3    3    0    0  0.61429536213E+01  0.40670734442E+02  0.10459906228E+02  0.42441316210E+02  0.10566000000E+00 0. -1.
         23    2    1    0    0    0 -0.26296081050E+02  0.37089823313E+01 -0.11200672381E+02  0.96178211535E+02  0.91758121623E+02 0.  0.
         13    1    3    3    0    0 -0.32439034671E+02 -0.36961752111E+02 -0.21660578609E+02  0.53736895326E+02  0.10566000000E+00 0.  1.
         22    1    1    0    0    0  0.26296081050E+02 -0.37089823313E+01  0.11200672381E+02  0.28821788465E+02  0.00000000000E+00 0.  1.
</event>
<event>
 4    1  0.1245610E-004  0.9118800E+02  0.7818608E-02  0.1130116E+00
         25   -1    0    0    0    0  0.00000000000E+00  0.00000000000E+00  0.99999998245E-14  0.12500000000E+03  0.12500000000E+03 0.  0.
        -13    1    1    0    0    0  0.14250303125E+01  0.51692273763E+01  0.94467416206E+01  0.10862951456E+02  0.10566000000E+00 0.  1.
         13    1    1    0    0    0 -0.49537506450E+02  0.26077754446E+02  0.80923096646E-01  0.55982421659E+02  0.10566000000E+00 0. -1.
         22    1    1    0    0    0  0.48112476138E+02 -0.31246981822E+02 -0.95276647172E+01  0.58154626884E+02  0.00000000000E+00 0. -1.
</event>
<event>
 5    1  0.1245610E-004  0.9118800E+02  0.7818608E-02  0.1130116E+00
         25   -1    0    0    0    0  0.00000000000E+00  0.00000000000E+00  0.99999998245E-14  0.12500000000E+03  0.12500000000E+03 0.  0.
        -13    1    3    3    0    0  0.25694306937E+02  0.21707464655E+02 -0.19426983087E+02  0.38843664433E+02  0.10566000000E+00 0. -1.
         23    2    1    0    0    0 -0.25124404064E+02  0.96961536425E+01  0.67210052411E+01  0.97243505508E+02  0.93198049213E+02 0.  0.
         13    1    3    3    0    0 -0.50818711000E+02 -0.12011311012E+02  0.26147988328E+02  0.58399841075E+02  0.10566000000E+00 0.  1.
         22    1    1    0    0    0  0.25124404064E+02 -0.96961536425E+01 -0.67210052411E+01  0.27756494492E+02  0.00000000000E+00 0.  1.
</event>
<event>
 5    1  0.1245610E-004  0.9118800E+02  0.7818608E-02  0.1130116E+00
         25   -1    0    0    0    0  0.00000000000E+00  0.00000000000E+00  0.99999998245E-14  0.12500000000E+03  0.12500000000E+03 0.  0.
        -13    1    3    3    0    0  0.16070145417E+02 -0.21342897453E+02 -0.26770639362E+02  0.37821252508E+02  0.10566000000E+00 0.  1.
         23    2    1    0    0    0 -0.84798369155E+01 -0.12173824533E+02  0.25046940382E+02  0.95888853331E+02  0.91363085175E+02 0.  0.
         13    1    3    3    0    0 -0.24549982332E+02  0.91690729196E+01  0.51817579744E+02  0.58067600823E+02  0.10566000000E+00 0. -1.
         22    1    1    0    0    0  0.84798369155E+01  0.12173824533E+02 -0.25046940382E+02  0.29111146669E+02  0.00000000000E+00 0. -1.
</event>
<event>
 5    1  0.1245610E-004  0.9118800E+02  0.7818608E-02  0.1130116E+00
         25   -1    0    0    0    0  0.00000000000E+00  0.00000000000E+00  0.99999998245E-14  0.12500000000E+03  0.12500000000E+03 0.  0.
        -13    1    3    3    0    0 -0.16658159316E+02 -0.34357822877E+02  0.18216335372E+02  0.42306031521E+02  0.10566000000E+00 0. -1.
         23    2    1    0    0    0 -0.23353894241E+02  0.50271805782E+01 -0.17094649584E+02  0.95624772934E+02  0.91001061717E+02 0.  0.
         13    1    3    3    0    0 -0.66957349243E+01  0.39385003455E+02 -0.35310984956E+02  0.53318741413E+02  0.10566000000E+00 0.  1.
         22    1    1    0    0    0  0.23353894241E+02 -0.50271805782E+01  0.17094649584E+02  0.29375227066E+02  0.00000000000E+00 0. -1.
</event>
<event>
 5    1  0.1245610E-004  0.9118800E+02  0.7818608E-02  0.1130116E+00
         25   -1    0    0    0    0  0.00000000000E+00  0.00000000000E+00  0.99999998245E-14  0.12500000000E+03  0.12500000000E+03 0.  0.
        -13    1    3    3    0    0  0.24707143926E+02 -0.51002744314E+02 -0.16763159798E+02  0.59099387297E+02  0.10566000000E+00 0.  1.
         23    2    1    0    0    0  0.14359429376E+02 -0.26465676608E+02  0.61945648309E+01  0.94259182123E+02  0.89105530304E+02 0.  0.
         13    1    3    3    0    0 -0.10347714550E+02  0.24537067706E+02  0.22957724629E+02  0.35159794826E+02  0.10566000000E+00 0. -1.
         22    1    1    0    0    0 -0.14359429376E+02  0.26465676608E+02 -0.61945648309E+01  0.30740817877E+02  0.00000000000E+00 0.  1.
</event>
<event>
 5    1  0.1245610E-004  0.9118800E+02  0.7818608E-02  0.1130116E+00
         25   -1    0    0    0    0  0.00000000000E+00  0.00000000000E+00  0.99999998245E-14  0.12500000000E+03  0.12500000000E+03 0.  0.
        -13    1    3    3    0    0 -0.51403738964E+02 -0.91835373573E+01 -0.32860812232E+02  0.61697049220E+02  0.10566000000E+00 0. -1.
         23    2    1    0    0    0 -0.19773405077E+02 -0.81233864722E+01 -0.19552900318E+02  0.96029448280E+02  0.91555240538E+02 0.  0.
         13    1    3    3    0    0  0.31630333887E+02  0.10601508851E+01  0.13307911914E+02  0.34332399060E+02  0.10566000000E+00 0.  1.
         22    1    1    0    0    0  0.19773405077E+02  0.81233864722E+01  0.19552900318E+02  0.28970551720E+02  0.00000000000E+00 0. -1.
</event>
<event>
 5    1  0.1245610E-004  0.9118800E+02  0.7818608E-02  0.1130116E+00
         25   -1    0    0    0    0  0.00000000000E+00  0.00000000000E+00  0.99999998245E-14  0.12500000000E+03  0.12500000000E+03 0.  0.
        -13    1    3    3    0    0  0.36980594712E+02 -0.16173353036E+01 -0.46530677892E+02  0.59458349354E+02  0.10566000000E+00 0.  1.
         23    2    1    0    0    0  0.24052567371E+02 -0.88044512595E+01 -0.12637632034E+02  0.96438590676E+02  0.92112147240E+02 0.  0.
         13    1    3    3    0    0 -0.12928027341E+02 -0.71871159559E+01  0.33893045859E+02  0.36980241323E+02  0.10566000000E+00 0. -1.
         22    1    1    0    0    0 -0.24052567371E+02  0.88044512595E+01  0.12637632034E+02  0.28561409324E+02  0.00000000000E+00 0.  1.
</event>
<event>
 5    1  0.1245610E-004  0.9118800E+02  0.7818608E-02  0.1130116E+00
         25   -1    0    0    0    0  0.00000000000E+00  0.00000000000E+00  0.99999998245E-14  0.12500000000E+03  0.12500000000E+03 0.  0.
        -13    1    3    3    0    0 -0.17015147783E+02 -0.55896563868E+02  0.16548569393E+02  0.60727320205E+02  0.10566000000E+00 0.  1.
         23    2    1    0    0    0  0.27679542285E+01 -0.26664819349E+02  0.69976817010E+01  0.97293652158E+02  0.93265283142E+02 0.  0.
         13    1    3    3    0    0  0.19783102011E+02  0.29231744518E+02 -0.95508876925E+01  0.36566331953E+02  0.10566000000E+00 0. -1.
         22    1    1    0    0    0 -0.27679542285E+01  0.26664819349E+02 -0.69976817010E+01  0.27706347842E+02  0.00000000000E+00 0.  1.
</event>
<event>
 5    1  0.1245610E-004  0.9118800E+02  0.7818608E-02  0.1130116E+00
         25   -1    0    0    0    0  0.00000000000E+00  0.00000000000E+00  0.99999998245E-14  0.12500000000E+03  0.12500000000E+03 0.  0.
        -13    1    3    3    0    0 -0.45410067886E+02  0.80756142337E+01 -0.20606359823E+02  0.50516562036E+02  0.10566000000E+00 0.  1.
         23    2    1    0    0    0 -0.17072992148E+02  0.10146002696E+01  0.18812715198E+02  0.99574919317E+02  0.96274242814E+02 0.  0.
         13    1    3    3    0    0  0.28337075739E+02 -0.70610139640E+01  0.39419075021E+02  0.49058357282E+02  0.10566000000E+00 0. -1.
         22    1    1    0    0    0  0.17072992148E+02 -0.10146002696E+01 -0.18812715198E+02  0.25425080683E+02  0.00000000000E+00 0. -1.
</event>
<event>
 5    1  0.1245610E-004  0.9118800E+02  0.7818608E-02  0.1130116E+00
         25   -1    0    0    0    0  0.00000000000E+00  0.00000000000E+00  0.99999998245E-14  0.12500000000E+03  0.12500000000E+03 0.  0.
        -13    1    3    3    0    0 -0.27492617980E+02  0.31474671789E+02 -0.28083710108E+02  0.50350818713E+02  0.10566000000E+00 0. -1.
         23    2    1    0    0    0  0.70284602120E+01  0.39044421552E+01 -0.29370272053E+02  0.94549108355E+02  0.89511323802E+02 0.  0.
         13    1    3    3    0    0  0.34521078192E+02 -0.27570229634E+02 -0.12865619448E+01  0.44198289642E+02  0.10566000000E+00 0.  1.
         22    1    1    0    0    0 -0.70284602120E+01 -0.39044421552E+01  0.29370272053E+02  0.30450891645E+02  0.00000000000E+00 0. -1.
</event>
<event>
 5    1  0.1245610E-004  0.9118800E+02  0.7818608E-02  0.1130116E+00
         25   -1    0    0    0    0  0.00000000000E+00  0.00000000000E+00  0.99999998245E-14  0.12500000000E+03  0.12500000000E+03 0.  0.
        -13    1    3    3    0    0 -0.35441892276E+02  0.89904016270E+00  0.99762754366E-01  0.35453591045E+02  0.10566000000E+00 0.  1.
         23    2    1    0    0    0  0.23216186391E+02 -0.16360438260E+02  0.44361352100E-01  0.96598288458E+02  0.92328609404E+02 0.  0.
         13    1    3    3    0    0  0.58658078667E+02 -0.17259478423E+02 -0.55401402266E-01  0.61144697413E+02  0.10566000000E+00 0. -1.
         22    1    1    0    0    0 -0.23216186391E+02  0.16360438260E+02 -0.44361352100E-01  0.28401711542E+02  0.00000000000E+00 0. -1.
</event>
<event>
 5    1  0.1245610E-004  0.9118800E+02  0.7818608E-02  0.1130116E+00
         25   -1    0    0    0    0  0.00000000000E+00  0.00000000000E+00  0.99999998245E-14  0.12500000000E+03  0.12500000000E+03 0.  0.
        -13    1    3    3    0    0  0.46292474339E+02 -0.14363413307E+02 -0.14389962561E+02  0.50560686396E+02  0.10566000000E+00 0.  1.
         23    2    1    0    0    0  0.32804136889E+02 -0.27846350643E+01  0.17978018572E+02  0.87489005061E+02  0.79039555068E+02 0.  0.
         13    1    3    3    0    0 -0.13488337450E+02  0.11578778243E+02  0.32367981134E+02  0.36928318666E+02  0.10566000000E+00 0. -1.
         22    1    1    0    0    0 -0.32804136889E+02  0.27846350643E+01 -0.17978018572E+02  0.37510994939E+02  0.00000000000E+00 0. -1.
</event>
<event>
 5    1  0.1245610E-004  0.9118800E+02  0.7818608E-02  0.1130116E+00
         25   -1    0    0    0    0  0.00000000000E+00  0.00000000000E+00  0.99999998245E-14  0.12500000000E+03  0.12500000000E+03 0.  0.
        -13    1    3    3    0    0 -0.36535420875E+01 -0.22503276146E+02 -0.26810452366E+02  0.35193143185E+02  0.10566000000E+00 0.  1.
         23    2    1    0    0    0 -0.20915175275E+02  0.16082759722E+02  0.15001342874E+02  0.94649711615E+02  0.89651703295E+02 0.  0.
         13    1    3    3    0    0 -0.17261633187E+02  0.38586035868E+02  0.41811795240E+02  0.59456568430E+02  0.10566000000E+00 0. -1.
         22    1    1    0    0    0  0.20915175275E+02 -0.16082759722E+02 -0.15001342874E+02  0.30350288385E+02  0.00000000000E+00 0. -1.
</event>
<event>
 5    1  0.1245610E-004  0.9118800E+02  0.7818608E-02  0.1130116E+00
         25   -1    0    0    0    0  0.00000000000E+00  0.00000000000E+00  0.99999998245E-14  0.12500000000E+03  0.12500000000E+03 0.  0.
        -13    1    3    3    0    0  0.33285879114E+01  0.32310994122E+02 -0.32571985041E+02  0.46000274044E+02  0.10566000000E+00 0.  1.
         23    2    1    0    0    0  0.16996561493E+02  0.14559808816E+02  0.14638943788E+02  0.98257340997E+02  0.94548057882E+02 0.  0.
         13    1    3    3    0    0  0.13667973582E+02 -0.17751185306E+02  0.47210928828E+02  0.52257066952E+02  0.10566000000E+00 0. -1.
         22    1    1    0    0    0 -0.16996561493E+02 -0.14559808816E+02 -0.14638943788E+02  0.26742659003E+02  0.00000000000E+00 0.  1.
</event>
<event>
 5    1  0.1245610E-004  0.9118800E+02  0.7818608E-02  0.1130116E+00
         25   -1    0    0    0    0  0.00000000000E+00  0.00000000000E+00  0.99999998245E-14  0.12500000000E+03  0.12500000000E+03 0.  0.
        -13    1    3    3    0    0  0.11779445809E+02  0.14355341978E+02 -0.27734812658E+02  0.33377570075E+02  0.10566000000E+00 0. -1.
         23    2    1    0    0    0 -0.10445967711E+01 -0.10788205789E+02  0.27519190196E+02  0.95423279499E+02  0.90723866070E+02 0.  0.
         13    1    3    3    0    0 -0.12824042580E+02 -0.25143547768E+02  0.55254002854E+02  0.62045709424E+02  0.10566000000E+00 0.  1.
         22    1    1    0    0    0  0.10445967711E+01  0.10788205789E+02 -0.27519190196E+02  0.29576720501E+02  0.00000000000E+00 0.  1.
</event>
<event>
 5    1  0.1245610E-004  0.9118800E+02  0.7818608E-02  0.1130116E+00
         25   -1    0    0    0    0  0.00000000000E+00  0.00000000000E+00  0.99999998245E-14  0.12500000000E+03  0.12500000000E+03 0.  0.
        -13    1    3    3    0    0  0.24320065526E+02 -0.21527059136E+02  0.46963529093E+02  0.57100473650E+02  0.10566000000E+00 0. -1.
         23    2    1    0    0    0  0.25778318106E+02 -0.84277657795E+01  0.10423780157E+02  0.95944809187E+02  0.91439610109E+02 0.  0.
         13    1    3    3    0    0  0.14582525801E+01  0.13099293356E+02 -0.36539748936E+02  0.38844335537E+02  0.10566000000E+00 0.  1.
         22    1    1    0    0    0 -0.25778318106E+02  0.84277657795E+01 -0.10423780157E+02  0.29055190813E+02  0.00000000000E+00 0. -1.
</event>
<event>
 5    1  0.1245610E-004  0.9118800E+02  0.7818608E-02  0.1130116E+00
         25   -1    0    0    0    0  0.00000000000E+00  0.00000000000E+00  0.99999998245E-14  0.12500000000E+03  0.12500000000E+03 0.  0.
        -13    1    3    3    0    0 -0.14519838346E+01 -0.34131934232E+02  0.11661160016E+02  0.36098351880E+02  0.10566000000E+00 0. -1.
         23    2    1    0    0    0  0.11519157544E+02  0.22704706412E+02  0.16602241646E+02  0.94605442733E+02  0.89589958607E+02 0.  0.
         13    1    3    3    0    0  0.12971141379E+02  0.56836640644E+02  0.49410816303E+01  0.58507090853E+02  0.10566000000E+00 0.  1.
         22    1    1    0    0    0 -0.11519157544E+02 -0.22704706412E+02 -0.16602241646E+02  0.30394557267E+02  0.00000000000E+00 0.  1.
</event>
<event>
 5    1  0.1245610E-004  0.9118800E+02  0.7818608E-02  0.1130116E+00
         25   -1    0    0    0    0  0.00000000000E+00  0.00000000000E+00  0.99999998245E-14  0.12500000000E+03  0.12500000000E+03 0.  0.
        -13    1    3    3    0    0 -0.37248923107E+02 -0.16137797697E+02  0.30118160628E+02  0.50547260567E+02  0.10566000000E+00 0.  1.
         23    2    1    0    0    0  0.35861545941E+01  0.35408140188E+01  0.28660092713E+02  0.95900192732E+02  0.91378598058E+02 0.  0.
         13    1    3    3    0    0  0.40835077701E+02  0.19678611716E+02 -0.14580679150E+01  0.45352932166E+02  0.10566000000E+00 0. -1.
         22    1    1    0    0    0 -0.35861545941E+01 -0.35408140188E+01 -0.28660092713E+02  0.29099807268E+02  0.00000000000E+00 0.  1.
</event>
<event>
 5    1  0.1245610E-004  0.9118800E+02  0.7818608E-02  0.1130116E+00
         25   -1    0    0    0    0  0.00000000000E+00  0.00000000000E+00  0.99999998245E-14  0.12500000000E+03  0.12500000000E+03 0.  0.
        -13    1    3    3    0    0 -0.25277624703E+02 -0.23906788427E+02  0.18718923624E+02  0.39508253684E+02  0.10566000000E+00 0.  1.
         23    2    1    0    0    0  0.85655646929E+01  0.23425408134E+02  0.88978727760E+01  0.98518104587E+02  0.94892181694E+02 0.  0.
         13    1    3    3    0    0  0.33843189396E+02  0.47332196561E+02 -0.98210508475E+01  0.59009850903E+02  0.10566000000E+00 0. -1.
         22    1    1    0    0    0 -0.85655646929E+01 -0.23425408134E+02 -0.88978727760E+01  0.26481895413E+02  0.00000000000E+00 0. -1.
</event>
<event>
 5    1  0.1245610E-004  0.9118800E+02  0.7818608E-02  0.1130116E+00
         25   -1    0    0    0    0  0.00000000000E+00  0.00000000000E+00  0.99999998245E-14  0.12500000000E+03  0.12500000000E+03 0.  0.
        -13    1    3    3    0    0  0.15822718821E+01  0.54046094383E+02 -0.23513065290E+02  0.58960658967E+02  0.10566000000E+00 0. -1.
         23    2    1    0    0    0 -0.14068249628E+02  0.26767463773E+02 -0.12424757098E+02  0.92307686631E+02  0.86324513655E+02 0.  0.
         13    1    3    3    0    0 -0.15650521510E+02 -0.27278630610E+02  0.11088308192E+02  0.33347027665E+02  0.10566000000E+00 0.  1.
         22    1    1    0    0    0  0.14068249628E+02 -0.26767463773E+02  0.12424757098E+02  0.32692313369E+02  0.00000000000E+00 0. -1.
</event>
<event>
 5    1  0.1245610E-004  0.9118800E+02  0.7818608E-02  0.1130116E+00
         25   -1    0    0    0    0  0.00000000000E+00  0.00000000000E+00  0.99999998245E-14  0.12500000000E+03  0.12500000000E+03 0.  0.
        -13    1    3    3    0    0  0.33362437690E+02  0.25813846300E+01 -0.45854564362E+02  0.56765905543E+02  0.10566000000E+00 0. -1.
         23    2    1    0    0    0  0.15687611393E+02 -0.17454054376E+02 -0.17495975442E+02  0.95727925901E+02  0.91142643561E+02 0.  0.
         13    1    3    3    0    0 -0.17674826297E+02 -0.20035439006E+02  0.28358588920E+02  0.38962020358E+02  0.10566000000E+00 0.  1.
         22    1    1    0    0    0 -0.15687611393E+02  0.17454054376E+02  0.17495975442E+02  0.29272074099E+02  0.00000000000E+00 0. -1.
</event>
<event>
 5    1  0.1245610E-004  0.9118800E+02  0.7818608E-02  0.1130116E+00
         25   -1    0    0    0    0  0.00000000000E+00  0.00000000000E+00  0.99999998245E-14  0.12500000000E+03  0.12500000000E+03 0.  0.
        -13    1    3    3    0    0 -0.33689865932E+02 -0.14998214400E+02 -0.16794907225E+02  0.40522013455E+02  0.10566000000E+00 0. -1.
         23    2    1    0    0    0  0.51172929535E+01  0.23987825779E+02 -0.16332256618E+02  0.95532304485E+02  0.90873957332E+02 0.  0.
         13    1    3    3    0    0  0.38807158886E+02  0.38986040178E+02  0.46265060724E+00  0.55010291030E+02  0.10566000000E+00 0.  1.
         22    1    1    0    0    0 -0.51172929535E+01 -0.23987825779E+02  0.16332256618E+02  0.29467695515E+02  0.00000000000E+00 0.  1.
</event>
<event>
 5    1  0.1245610E-004  0.9118800E+02  0.7818608E-02  0.1130116E+00
         25   -1    0    0    0    0  0.00000000000E+00  0.00000000000E+00  0.99999998245E-14  0.12500000000E+03  0.12500000000E+03 0.  0.
        -13    1    3    3    0    0  0.34708852687E+02 -0.16553375955E+01  0.19476322906E+02  0.39834443831E+02  0.10566000000E+00 0. -1.
         23    2    1    0    0    0  0.11203242101E+02  0.61121728162E+01 -0.28473191443E+02  0.93797533414E+02  0.88455544504E+02 0.  0.
         13    1    3    3    0    0 -0.23505610586E+02  0.77675104117E+01 -0.47949514348E+02  0.53963089583E+02  0.10566000000E+00 0.  1.
         22    1    1    0    0    0 -0.11203242101E+02 -0.61121728162E+01  0.28473191443E+02  0.31202466586E+02  0.00000000000E+00 0. -1.
</event>
<event>
 5    1  0.1245610E-004  0.9118800E+02  0.7818608E-02  0.1130116E+00
         25   -1    0    0    0    0  0.00000000000E+00  0.00000000000E+00  0.99999998245E-14  0.12500000000E+03  0.12500000000E+03 0.  0.
        -13    1    3    3    0    0 -0.60714453601E+01  0.36260727936E+02 -0.92797664315E+01  0.37918703410E+02  0.10566000000E+00 0.  1.
         23    2    1    0    0    0 -0.20165680070E+02 -0.19554959065E+02 -0.90537435778E+01  0.95486929175E+02  0.90811520711E+02 0.  0.
         13    1    3    3    0    0 -0.14094234710E+02 -0.55815687001E+02  0.22602285369E+00  0.57568225766E+02  0.10566000000E+00 0. -1.
         22    1    1    0    0    0  0.20165680070E+02  0.19554959065E+02  0.90537435778E+01  0.29513070825E+02  0.00000000000E+00 0. -1.
</event>
<event>
 5    1  0.1245610E-004  0.9118800E+02  0.7818608E-02  0.1130116E+00
         25   -1    0    0    0    0  0.00000000000E+00  0.00000000000E+00  0.99999998245E-14  0.12500000000E+03  0.12500000000E+03 0.  0.
        -13    1    3    3    0    0  0.28253145519E+01 -0.73207465410E+01  0.40851868337E+02  0.41598822615E+02  0.10566000000E+00 0. -1.
         23    2    1    0    0    0 -0.24598045447E+02  0.15206932719E+02 -0.47988953402E+00  0.96076913434E+02  0.91620021602E+02 0.  0.
         13    1    3    3    0    0 -0.27423359999E+02  0.22527679260E+02 -0.41331757871E+02  0.54478090819E+02  0.10566000000E+00 0.  1.
         22    1    1    0    0    0  0.24598045447E+02 -0.15206932719E+02  0.47988953402E+00  0.28923086566E+02  0.00000000000E+00 0.  1.
</event>
<event>
 5    1  0.1245610E-004  0.9118800E+02  0.7818608E-02  0.1130116E+00
         25   -1    0    0    0    0  0.00000000000E+00  0.00000000000E+00  0.99999998245E-14  0.12500000000E+03  0.12500000000E+03 0.  0.
        -13    1    3    3    0    0 -0.22241113299E+01  0.26119038221E+02  0.40996610364E+02  0.48660908892E+02  0.10566000000E+00 0.  1.
         23    2    1    0    0    0  0.22709940911E+02  0.19307058113E+02  0.24233157600E+01  0.95093874065E+02  0.90268867924E+02 0.  0.
         13    1    3    3    0    0  0.24934052241E+02 -0.68119801080E+01 -0.38573294604E+02  0.46432965173E+02  0.10566000000E+00 0. -1.
         22    1    1    0    0    0 -0.22709940911E+02 -0.19307058113E+02 -0.24233157600E+01  0.29906125935E+02  0.00000000000E+00 0.  1.
</event>
<event>
 5    1  0.1245610E-004  0.9118800E+02  0.7818608E-02  0.1130116E+00
         25   -1    0    0    0    0  0.00000000000E+00  0.00000000000E+00  0.99999998245E-14  0.12500000000E+03  0.12500000000E+03 0.  0.
        -13    1    3    3    0    0  0.35235416146E+02  0.12199242626E+02  0.48623881083E+02  0.61275191124E+02  0.10566000000E+00 0. -1.
         23    2    1    0    0    0  0.14343669817E+02  0.13974551070E+02  0.20651668129E+02  0.96233346772E+02  0.91833200386E+02 0.  0.
         13    1    3    3    0    0 -0.20891746328E+02  0.17753084433E+01 -0.27972212955E+02  0.34958155648E+02  0.10566000000E+00 0.  1.
         22    1    1    0    0    0 -0.14343669817E+02 -0.13974551070E+02 -0.20651668129E+02  0.28766653228E+02  0.00000000000E+00 0. -1.
</event>
<event>
 5    1  0.1245610E-004  0.9118800E+02  0.7818608E-02  0.1130116E+00
         25   -1    0    0    0    0  0.00000000000E+00  0.00000000000E+00  0.99999998245E-14  0.12500000000E+03  0.12500000000E+03 0.  0.
        -13    1    3    3    0    0  0.15517677646E+02  0.13988775636E+02 -0.19468505340E+02  0.28557276262E+02  0.10566000000E+00 0.  1.
         23    2    1    0    0    0  0.10663322617E+02  0.45172353273E+02  0.15880589502E+02  0.75944510273E+02  0.57975232369E+02 0.  0.
         13    1    3    3    0    0 -0.48543550290E+01  0.31183577637E+02  0.35349094842E+02  0.47387234011E+02  0.10566000000E+00 0. -1.
         22    1    1    0    0    0 -0.10663322617E+02 -0.45172353273E+02 -0.15880589502E+02  0.49055489727E+02  0.00000000000E+00 0. -1.
</event>
<event>
 5    1  0.1245610E-004  0.9118800E+02  0.7818608E-02  0.1130116E+00
         25   -1    0    0    0    0  0.00000000000E+00  0.00000000000E+00  0.99999998245E-14  0.12500000000E+03  0.12500000000E+03 0.  0.
        -13    1    3    3    0    0  0.19806254473E+02  0.34105821920E+02  0.85682176829E+01  0.40359885076E+02  0.10566000000E+00 0. -1.
         23    2    1    0    0    0 -0.28295687751E+02  0.78653605007E+01  0.17033789881E+01  0.95582125483E+02  0.90942461869E+02 0.  0.
         13    1    3    3    0    0 -0.48101942224E+02 -0.26240461419E+02 -0.68648386948E+01  0.55222240407E+02  0.10566000000E+00 0.  1.
         22    1    1    0    0    0  0.28295687751E+02 -0.78653605007E+01 -0.17033789881E+01  0.29417874517E+02  0.00000000000E+00 0.  1.
</event>
<event>
 5    1  0.1245610E-004  0.9118800E+02  0.7818608E-02  0.1130116E+00
         25   -1    0    0    0    0  0.00000000000E+00  0.00000000000E+00  0.99999998245E-14  0.12500000000E+03  0.12500000000E+03 0.  0.
        -13    1    3    3    0    0 -0.86578232512E+01 -0.17181360949E+02 -0.32467957805E+02  0.37740383088E+02  0.10566000000E+00 0. -1.
         23    2    1    0    0    0  0.34270397401E+02 -0.69706856445E+01 -0.51169395067E+01  0.89655500197E+02  0.82394629979E+02 0.  0.
         13    1    3    3    0    0  0.42928220652E+02  0.10210675305E+02  0.27351018298E+02  0.51915117110E+02  0.10566000000E+00 0.  1.
         22    1    1    0    0    0 -0.34270397401E+02  0.69706856445E+01  0.51169395067E+01  0.35344499803E+02  0.00000000000E+00 0.  1.
</event>
<event>
 5    1  0.1245610E-004  0.9118800E+02  0.7818608E-02  0.1130116E+00
         25   -1    0    0    0    0  0.00000000000E+00  0.00000000000E+00  0.99999998245E-14  0.12500000000E+03  0.12500000000E+03 0.  0.
        -13    1    3    3    0    0 -0.48471700589E+01  0.35478443842E+02 -0.19742774372E+02  0.40890137429E+02  0.10566000000E+00 0. -1.
         23    2    1    0    0    0  0.14197406273E+02 -0.15908406365E+02 -0.20104896882E+02  0.95693846779E+02  0.91095892854E+02 0.  0.
         13    1    3    3    0    0  0.19044576332E+02 -0.51386850207E+02 -0.36212251004E+00  0.54803709351E+02  0.10566000000E+00 0.  1.
         22    1    1    0    0    0 -0.14197406273E+02  0.15908406365E+02  0.20104896882E+02  0.29306153221E+02  0.00000000000E+00 0.  1.
</event>
<event>
 5    1  0.1245610E-004  0.9118800E+02  0.7818608E-02  0.1130116E+00
         25   -1    0    0    0    0  0.00000000000E+00  0.00000000000E+00  0.99999998245E-14  0.12500000000E+03  0.12500000000E+03 0.  0.
        -13    1    3    3    0    0  0.34466038096E+02  0.93262500134E+01  0.15107709868E+02  0.38770359591E+02  0.10566000000E+00 0.  1.
         23    2    1    0    0    0  0.25960857570E+01 -0.32336433096E+02  0.55915517156E+01  0.92081160147E+02  0.85995872208E+02 0.  0.
         13    1    3    3    0    0 -0.31869952339E+02 -0.41662683110E+02 -0.95161581521E+01  0.53310800557E+02  0.10566000000E+00 0. -1.
         22    1    1    0    0    0 -0.25960857570E+01  0.32336433096E+02 -0.55915517156E+01  0.32918839853E+02  0.00000000000E+00 0. -1.
</event>
<event>
 5    1  0.1245610E-004  0.9118800E+02  0.7818608E-02  0.1130116E+00
         25   -1    0    0    0    0  0.00000000000E+00  0.00000000000E+00  0.99999998245E-14  0.12500000000E+03  0.12500000000E+03 0.  0.
        -13    1    3    3    0    0 -0.38170761359E+02  0.14060802633E+02  0.39404659247E+02  0.56634367021E+02  0.10566000000E+00 0. -1.
         23    2    1    0    0    0 -0.25499417694E+02 -0.10628878482E+02  0.15143358386E+02  0.93495799269E+02  0.88028119469E+02 0.  0.
         13    1    3    3    0    0  0.12671343666E+02 -0.24689681115E+02 -0.24261300861E+02  0.36861432248E+02  0.10566000000E+00 0.  1.
         22    1    1    0    0    0  0.25499417694E+02  0.10628878482E+02 -0.15143358386E+02  0.31504200731E+02  0.00000000000E+00 0. -1.
</event>
<event>
 5    1  0.1245610E-004  0.9118800E+02  0.7818608E-02  0.1130116E+00
         25   -1    0    0    0    0  0.00000000000E+00  0.00000000000E+00  0.99999998245E-14  0.12500000000E+03  0.12500000000E+03 0.  0.
        -13    1    3    3    0    0 -0.24015981885E+02  0.18560258080E+02  0.44551153954E+02  0.53907949771E+02  0.10566000000E+00 0. -1.
         23    2    1    0    0    0 -0.77643156888E+01 -0.13965973151E+02  0.25368976036E+02  0.95018039602E+02  0.90163794844E+02 0.  0.
         13    1    3    3    0    0  0.16251666196E+02 -0.32526231231E+02 -0.19182177918E+02  0.41110089831E+02  0.10566000000E+00 0.  1.
         22    1    1    0    0    0  0.77643156888E+01  0.13965973151E+02 -0.25368976036E+02  0.29981960398E+02  0.00000000000E+00 0. -1.
</event>
<event>
 5    1  0.1245610E-004  0.9118800E+02  0.7818608E-02  0.1130116E+00
         25   -1    0    0    0    0  0.00000000000E+00  0.00000000000E+00  0.99999998245E-14  0.12500000000E+03  0.12500000000E+03 0.  0.
        -13    1    3    3    0    0 -0.53330844350E+02  0.38631106795E+01 -0.27552091690E+02  0.60151737330E+02  0.10566000000E+00 0. -1.
         23    2    1    0    0    0 -0.18133802515E+02  0.10734762144E+02 -0.18056250418E+02  0.97249358726E+02  0.93205899392E+02 0.  0.
         13    1    3    3    0    0  0.35197041835E+02  0.68716514648E+01  0.94958412721E+01  0.37097621397E+02  0.10566000000E+00 0.  1.
         22    1    1    0    0    0  0.18133802515E+02 -0.10734762144E+02  0.18056250418E+02  0.27750641274E+02  0.00000000000E+00 0. -1.
</event>
<event>
 5    1  0.1245610E-004  0.9118800E+02  0.7818608E-02  0.1130116E+00
         25   -1    0    0    0    0  0.00000000000E+00  0.00000000000E+00  0.99999998245E-14  0.12500000000E+03  0.12500000000E+03 0.  0.
        -13    1    3    3    0    0  0.56740875042E+01  0.19129445950E+02 -0.23015921539E+02  0.30461037075E+02  0.10566000000E+00 0.  1.
         23    2    1    0    0    0 -0.40348382412E+02 -0.26028293498E+01 -0.14394952533E+02  0.82081689895E+02  0.69967295744E+02 0.  0.
         13    1    3    3    0    0 -0.46022469916E+02 -0.21732275300E+02  0.86209690063E+01  0.51620652820E+02  0.10566000000E+00 0. -1.
         22    1    1    0    0    0  0.40348382412E+02  0.26028293498E+01  0.14394952533E+02  0.42918310105E+02  0.00000000000E+00 0. -1.
</event>
<event>
 5    1  0.1245610E-004  0.9118800E+02  0.7818608E-02  0.1130116E+00
         25   -1    0    0    0    0  0.00000000000E+00  0.00000000000E+00  0.99999998245E-14  0.12500000000E+03  0.12500000000E+03 0.  0.
        -13    1    3    3    0    0  0.12142524548E+02 -0.29614499890E+02  0.16257889648E+02  0.35899716517E+02  0.10566000000E+00 0.  1.
         23    2    1    0    0    0 -0.20000675405E+02  0.56262146109E+01 -0.20266394770E+02  0.95975733180E+02  0.91481874133E+02 0.  0.
         13    1    3    3    0    0 -0.32143199953E+02  0.35240714501E+02 -0.36524284418E+02  0.60076016663E+02  0.10566000000E+00 0. -1.
         22    1    1    0    0    0  0.20000675405E+02 -0.56262146109E+01  0.20266394770E+02  0.29024266820E+02  0.00000000000E+00 0. -1.
</event>
<event>
 5    1  0.1245610E-004  0.9118800E+02  0.7818608E-02  0.1130116E+00
         25   -1    0    0    0    0  0.00000000000E+00  0.00000000000E+00  0.99999998245E-14  0.12500000000E+03  0.12500000000E+03 0.  0.
        -13    1    3    3    0    0  0.23792958593E+02  0.33202510086E+02 -0.20606390117E+02  0.45750912912E+02  0.10566000000E+00 0.  1.
         23    2    1    0    0    0 -0.14022255031E+02  0.21635208888E+02  0.11578154564E+02  0.96737665297E+02  0.92517113683E+02 0.  0.
         13    1    3    3    0    0 -0.37815213624E+02 -0.11567301198E+02  0.32184544681E+02  0.50986752385E+02  0.10566000000E+00 0. -1.
         22    1    1    0    0    0  0.14022255031E+02 -0.21635208888E+02 -0.11578154564E+02  0.28262334703E+02  0.00000000000E+00 0.  1.
</event>
<event>
 5    1  0.1245610E-004  0.9118800E+02  0.7818608E-02  0.1130116E+00
         25   -1    0    0    0    0  0.00000000000E+00  0.00000000000E+00  0.99999998245E-14  0.12500000000E+03  0.12500000000E+03 0.  0.
        -13    1    3    3    0    0  0.27408384003E+02  0.52688152605E+02 -0.13238963253E+02  0.60848518886E+02  0.10566000000E+00 0. -1.
         23    2    1    0    0    0  0.17083803907E+02  0.24032963191E+02  0.29927783529E+01  0.95362247083E+02  0.90639736158E+02 0.  0.
         13    1    3    3    0    0 -0.10324580096E+02 -0.28655189413E+02  0.16231741606E+02  0.34513728197E+02  0.10566000000E+00 0.  1.
         22    1    1    0    0    0 -0.17083803907E+02 -0.24032963191E+02 -0.29927783529E+01  0.29637752917E+02  0.00000000000E+00 0. -1.
</event>
<event>
 5    1  0.1245610E-004  0.9118800E+02  0.7818608E-02  0.1130116E+00
         25   -1    0    0    0    0  0.00000000000E+00  0.00000000000E+00  0.99999998245E-14  0.12500000000E+03  0.12500000000E+03 0.  0.
        -13    1    3    3    0    0  0.13780119549E+02  0.49194876605E+02 -0.33168498144E+02  0.60911312678E+02  0.10566000000E+00 0.  1.
         23    2    1    0    0    0  0.13374123801E+02  0.16686031208E+02 -0.19068265944E+02  0.96348829151E+02  0.91990256483E+02 0.  0.
         13    1    3    3    0    0 -0.40599574809E+00 -0.32508845398E+02  0.14100232200E+02  0.35437516473E+02  0.10566000000E+00 0. -1.
         22    1    1    0    0    0 -0.13374123801E+02 -0.16686031208E+02  0.19068265944E+02  0.28651170849E+02  0.00000000000E+00 0.  1.
</event>
<event>
 5    1  0.1245610E-004  0.9118800E+02  0.7818608E-02  0.1130116E+00
         25   -1    0    0    0    0  0.00000000000E+00  0.00000000000E+00  0.99999998245E-14  0.12500000000E+03  0.12500000000E+03 0.  0.
        -13    1    3    3    0    0 -0.14603022166E+02  0.27693047794E+02 -0.29547539671E+02  0.43049058261E+02  0.10566000000E+00 0. -1.
         23    2    1    0    0    0  0.26555880873E+02  0.19894562330E+02 -0.20782326437E+02  0.85847560595E+02  0.76399542857E+02 0.  0.
         13    1    3    3    0    0  0.41158903039E+02 -0.77984854647E+01  0.87652132343E+01  0.42798502334E+02  0.10566000000E+00 0.  1.
         22    1    1    0    0    0 -0.26555880873E+02 -0.19894562330E+02  0.20782326437E+02  0.39152439405E+02  0.00000000000E+00 0.  1.
</event>
<event>
 5    1  0.1245610E-004  0.9118800E+02  0.7818608E-02  0.1130116E+00
         25   -1    0    0    0    0  0.00000000000E+00  0.00000000000E+00  0.99999998245E-14  0.12500000000E+03  0.12500000000E+03 0.  0.
        -13    1    3    3    0    0  0.50399141139E+02  0.10842903374E+02 -0.93516190274E+01  0.52393758441E+02  0.10566000000E+00 0. -1.
         23    2    1    0    0    0  0.94136875814E+01  0.25713311150E+02 -0.95680332297E+01  0.95994153278E+02  0.91507039726E+02 0.  0.
         13    1    3    3    0    0 -0.40985453558E+02  0.14870407776E+02 -0.21641420225E+00  0.43600394836E+02  0.10566000000E+00 0.  1.
         22    1    1    0    0    0 -0.94136875814E+01 -0.25713311150E+02  0.95680332297E+01  0.29005846722E+02  0.00000000000E+00 0. -1.
</event>
<event>
 5    1  0.1245610E-004  0.9118800E+02  0.7818608E-02  0.1130116E+00
         25   -1    0    0    0    0  0.00000000000E+00  0.00000000000E+00  0.99999998245E-14  0.12500000000E+03  0.12500000000E+03 0.  0.
        -13    1    3    3    0    0  0.82569714892E+01 -0.38034136419E+02  0.14271250968E+02  0.41454226317E+02  0.10566000000E+00 0.  1.
         23    2    1    0    0    0  0.25532070524E+02  0.12827544120E+02  0.60145605969E+01  0.95800557324E+02  0.91242201481E+02 0.  0.
         13    1    3    3    0    0  0.17275099035E+02  0.50861680540E+02 -0.82566903709E+01  0.54346331007E+02  0.10566000000E+00 0. -1.
         22    1    1    0    0    0 -0.25532070524E+02 -0.12827544120E+02 -0.60145605969E+01  0.29199442676E+02  0.00000000000E+00 0.  1.
</event>
<event>
 5    1  0.1245610E-004  0.9118800E+02  0.7818608E-02  0.1130116E+00
         25   -1    0    0    0    0  0.00000000000E+00  0.00000000000E+00  0.99999998245E-14  0.12500000000E+03  0.12500000000E+03 0.  0.
        -13    1    3    3    0    0  0.37234404646E+02  0.21844799492E+02  0.21249292590E+01  0.43221784353E+02  0.10566000000E+00 0.  1.
         23    2    1    0    0    0  0.89380001176E+00  0.30486820744E+02 -0.21736798230E+02  0.87546915817E+02  0.79131087154E+02 0.  0.
         13    1    3    3    0    0 -0.36340604635E+02  0.86420212512E+01 -0.23861727489E+02  0.44325131464E+02  0.10566000000E+00 0. -1.
         22    1    1    0    0    0 -0.89380001176E+00 -0.30486820744E+02  0.21736798230E+02  0.37453084183E+02  0.00000000000E+00 0. -1.
</event>
<event>
 5    1  0.1245610E-004  0.9118800E+02  0.7818608E-02  0.1130116E+00
         25   -1    0    0    0    0  0.00000000000E+00  0.00000000000E+00  0.99999998245E-14  0.12500000000E+03  0.12500000000E+03 0.  0.
        -13    1    3    3    0    0 -0.58222178810E+01 -0.24758649429E+02 -0.47684300995E+02  0.54043433163E+02  0.10566000000E+00 0.  1.
         23    2    1    0    0    0 -0.22454883617E+02  0.31376377146E+00 -0.20208449934E+02  0.94789046776E+02  0.89845766144E+02 0.  0.
         13    1    3    3    0    0 -0.16632665736E+02  0.25072413200E+02  0.27475851061E+02  0.40745613613E+02  0.10566000000E+00 0. -1.
         22    1    1    0    0    0  0.22454883617E+02 -0.31376377146E+00  0.20208449934E+02  0.30210953224E+02  0.00000000000E+00 0.  1.
</event>
<event>
 5    1  0.1245610E-004  0.9118800E+02  0.7818608E-02  0.1130116E+00
         25   -1    0    0    0    0  0.00000000000E+00  0.00000000000E+00  0.99999998245E-14  0.12500000000E+03  0.12500000000E+03 0.  0.
        -13    1    3    3    0    0  0.94280061839E+01 -0.36381929664E+02 -0.96834179477E+01  0.38811233604E+02  0.10566000000E+00 0. -1.
         23    2    1    0    0    0 -0.16879201996E+02  0.12766361078E+02 -0.20430782824E+02  0.95583944486E+02  0.90944962046E+02 0.  0.
         13    1    3    3    0    0 -0.26307208179E+02  0.49148290742E+02 -0.10747364876E+02  0.56772710882E+02  0.10566000000E+00 0.  1.
         22    1    1    0    0    0  0.16879201996E+02 -0.12766361078E+02  0.20430782824E+02  0.29416055514E+02  0.00000000000E+00 0.  1.
</event>
<event>
 5    1  0.1245610E-004  0.9118800E+02  0.7818608E-02  0.1130116E+00
         25   -1    0    0    0    0  0.00000000000E+00  0.00000000000E+00  0.99999998245E-14  0.12500000000E+03  0.12500000000E+03 0.  0.
        -13    1    3    3    0    0  0.12383774259E+01  0.15529298575E+02  0.43111889192E+02  0.45840362637E+02  0.10566000000E+00 0.  1.
         23    2    1    0    0    0 -0.27890379287E+02  0.39063725609E+01  0.31169015812E+01  0.96665426088E+02  0.92419459649E+02 0.  0.
         13    1    3    3    0    0 -0.29128756712E+02 -0.11622926014E+02 -0.39994987611E+02  0.50825063451E+02  0.10566000000E+00 0. -1.
         22    1    1    0    0    0  0.27890379287E+02 -0.39063725609E+01 -0.31169015812E+01  0.28334573912E+02  0.00000000000E+00 0. -1.
</event>
<event>
 5    1  0.1245610E-004  0.9118800E+02  0.7818608E-02  0.1130116E+00
         25   -1    0    0    0    0  0.00000000000E+00  0.00000000000E+00  0.99999998245E-14  0.12500000000E+03  0.12500000000E+03 0.  0.
        -13    1    3    3    0    0  0.12941669196E+02 -0.53292294726E+01  0.59344574281E+02  0.60972757433E+02  0.10566000000E+00 0. -1.
         23    2    1    0    0    0 -0.18419564698E+01 -0.84128579841E+01  0.26790360380E+02  0.96859417341E+02  0.92681467054E+02 0.  0.
         13    1    3    3    0    0 -0.14783625666E+02 -0.30836285115E+01 -0.32554213901E+02  0.35886659908E+02  0.10566000000E+00 0.  1.
         22    1    1    0    0    0  0.18419564698E+01  0.84128579841E+01 -0.26790360380E+02  0.28140582659E+02  0.00000000000E+00 0. -1.
</event>
<event>
 5    1  0.1245610E-004  0.9118800E+02  0.7818608E-02  0.1130116E+00
         25   -1    0    0    0    0  0.00000000000E+00  0.00000000000E+00  0.99999998245E-14  0.12500000000E+03  0.12500000000E+03 0.  0.
        -13    1    3    3    0    0 -0.47802197253E+01 -0.22149024006E+01 -0.60542712224E+02  0.60771600775E+02  0.10566000000E+00 0.  1.
         23    2    1    0    0    0 -0.11173940969E+02  0.41999671987E+01 -0.27768278432E+02  0.94774613844E+02  0.89825683749E+02 0.  0.
         13    1    3    3    0    0 -0.63937212434E+01  0.64148695994E+01  0.32774433792E+02  0.34003013069E+02  0.10566000000E+00 0. -1.
         22    1    1    0    0    0  0.11173940969E+02 -0.41999671987E+01  0.27768278432E+02  0.30225386156E+02  0.00000000000E+00 0.  1.
</event>
<event>
 5    1  0.1245610E-004  0.9118800E+02  0.7818608E-02  0.1130116E+00
         25   -1    0    0    0    0  0.00000000000E+00  0.00000000000E+00  0.99999998245E-14  0.12500000000E+03  0.12500000000E+03 0.  0.
        -13    1    3    3    0    0  0.36187207907E+02 -0.10011990892E+02  0.46877104397E+01  0.37838337318E+02  0.10566000000E+00 0.  1.
         23    2    1    0    0    0 -0.15176553151E+02 -0.21534505879E+02 -0.15748733918E+02  0.94306591441E+02  0.89172012763E+02 0.  0.
         13    1    3    3    0    0 -0.51363761058E+02 -0.11522514986E+02 -0.20436444357E+02  0.56468254123E+02  0.10566000000E+00 0. -1.
         22    1    1    0    0    0  0.15176553151E+02  0.21534505879E+02  0.15748733918E+02  0.30693408559E+02  0.00000000000E+00 0. -1.
</event>
<event>
 5    1  0.1245610E-004  0.9118800E+02  0.7818608E-02  0.1130116E+00
         25   -1    0    0    0    0  0.00000000000E+00  0.00000000000E+00  0.99999998245E-14  0.12500000000E+03  0.12500000000E+03 0.  0.
        -13    1    3    3    0    0 -0.32311722992E+02  0.28275137228E+02 -0.30462451823E+02  0.52645065895E+02  0.10566000000E+00 0. -1.
         23    2    1    0    0    0 -0.49595311835E+01  0.30173914089E+02  0.10340208805E+01  0.94403738134E+02  0.89308087727E+02 0.  0.
         13    1    3    3    0    0  0.27352191808E+02  0.18987768612E+01  0.31496472704E+02  0.41758672239E+02  0.10566000000E+00 0.  1.
         22    1    1    0    0    0  0.49595311835E+01 -0.30173914089E+02 -0.10340208805E+01  0.30596261866E+02  0.00000000000E+00 0. -1.
</event>
<event>
 5    1  0.1245610E-004  0.9118800E+02  0.7818608E-02  0.1130116E+00
         25   -1    0    0    0    0  0.00000000000E+00  0.00000000000E+00  0.99999998245E-14  0.12500000000E+03  0.12500000000E+03 0.  0.
        -13    1    3    3    0    0  0.44442485854E+02 -0.78392895793E+01  0.69473333774E+01  0.45660328679E+02  0.10566000000E+00 0. -1.
         23    2    1    0    0    0  0.55397268158E+01  0.22045665294E+02  0.18069581467E+02  0.95961926616E+02  0.91463007025E+02 0.  0.
         13    1    3    3    0    0 -0.38902759038E+02  0.29884954873E+02  0.11122248090E+02  0.50301597938E+02  0.10566000000E+00 0.  1.
         22    1    1    0    0    0 -0.55397268158E+01 -0.22045665294E+02 -0.18069581467E+02  0.29038073384E+02  0.00000000000E+00 0.  1.
</event>
<event>
 5    1  0.1245610E-004  0.9118800E+02  0.7818608E-02  0.1130116E+00
         25   -1    0    0    0    0  0.00000000000E+00  0.00000000000E+00  0.99999998245E-14  0.12500000000E+03  0.12500000000E+03 0.  0.
        -13    1    3    3    0    0  0.71346820631E+00  0.26500228922E+02  0.18617539226E+02  0.32394368349E+02  0.10566000000E+00 0.  1.
         23    2    1    0    0    0  0.19845701258E+02 -0.22258620713E+02 -0.11759695666E+02  0.92943978777E+02  0.87241014977E+02 0.  0.
         13    1    3    3    0    0  0.19132233052E+02 -0.48758849636E+02 -0.30377234892E+02  0.60549610429E+02  0.10566000000E+00 0. -1.
         22    1    1    0    0    0 -0.19845701258E+02  0.22258620713E+02  0.11759695666E+02  0.32056021223E+02  0.00000000000E+00 0. -1.
</event>
<event>
 5    1  0.1245610E-004  0.9118800E+02  0.7818608E-02  0.1130116E+00
         25   -1    0    0    0    0  0.00000000000E+00  0.00000000000E+00  0.99999998245E-14  0.12500000000E+03  0.12500000000E+03 0.  0.
        -13    1    3    3    0    0 -0.53547844171E+00  0.49947836094E+02  0.12465570065E+02  0.51482760889E+02  0.10566000000E+00 0.  1.
         23    2    1    0    0    0  0.42999403183E+01  0.23269499687E+02 -0.20166603179E+02  0.93908988658E+02  0.88612906309E+02 0.  0.
         13    1    3    3    0    0  0.48354187601E+01 -0.26678336407E+02 -0.32632173245E+02  0.42426227769E+02  0.10566000000E+00 0. -1.
         22    1    1    0    0    0 -0.42999403183E+01 -0.23269499687E+02  0.20166603179E+02  0.31091011342E+02  0.00000000000E+00 0.  1.
</event>
<event>
 5    1  0.1245610E-004  0.9118800E+02  0.7818608E-02  0.1130116E+00
         25   -1    0    0    0    0  0.00000000000E+00  0.00000000000E+00  0.99999998245E-14  0.12500000000E+03  0.12500000000E+03 0.  0.
        -13    1    3    3    0    0  0.56857554998E+02  0.24160434978E+02 -0.30452590675E+00  0.61778734843E+02  0.10566000000E+00 0.  1.
         23    2    1    0    0    0  0.25109554853E+02  0.11722134257E+02 -0.67462522062E+01  0.96479654713E+02  0.92167855993E+02 0.  0.
         13    1    3    3    0    0 -0.31748000146E+02 -0.12438300722E+02 -0.64417262994E+01  0.34700919870E+02  0.10566000000E+00 0. -1.
         22    1    1    0    0    0 -0.25109554853E+02 -0.11722134257E+02  0.67462522062E+01  0.28520345287E+02  0.00000000000E+00 0.  1.
</event>
<event>
 5    1  0.1245610E-004  0.9118800E+02  0.7818608E-02  0.1130116E+00
         25   -1    0    0    0    0  0.00000000000E+00  0.00000000000E+00  0.99999998245E-14  0.12500000000E+03  0.12500000000E+03 0.  0.
        -13    1    3    3    0    0 -0.27915775473E+02  0.32523563499E+02  0.20273731926E+02  0.47414218049E+02  0.10566000000E+00 0.  1.
         23    2    1    0    0    0 -0.13611984035E+02  0.36510986133E+02 -0.13058208893E+02  0.83904318509E+02  0.73151073999E+02 0.  0.
         13    1    3    3    0    0  0.14303791439E+02  0.39874226339E+01 -0.33331940819E+02  0.36490100460E+02  0.10566000000E+00 0. -1.
         22    1    1    0    0    0  0.13611984035E+02 -0.36510986133E+02  0.13058208893E+02  0.41095681491E+02  0.00000000000E+00 0. -1.
</event>
<event>
 5    1  0.1245610E-004  0.9118800E+02  0.7818608E-02  0.1130116E+00
         25   -1    0    0    0    0  0.00000000000E+00  0.00000000000E+00  0.99999998245E-14  0.12500000000E+03  0.12500000000E+03 0.  0.
        -13    1    3    3    0    0 -0.40393020544E+02 -0.96457107948E+01  0.17745368686E+02  0.45161323267E+02  0.10566000000E+00 0.  1.
         23    2    1    0    0    0 -0.15183983779E+02  0.26668579006E+01 -0.24606658583E+02  0.95962900608E+02  0.91464338144E+02 0.  0.
         13    1    3    3    0    0  0.25209036765E+02  0.12312568695E+02 -0.42352027269E+02  0.50801577341E+02  0.10566000000E+00 0. -1.
         22    1    1    0    0    0  0.15183983779E+02 -0.26668579006E+01  0.24606658583E+02  0.29037099392E+02  0.00000000000E+00 0. -1.
</event>
<event>
 5    1  0.1245610E-004  0.9118800E+02  0.7818608E-02  0.1130116E+00
         25   -1    0    0    0    0  0.00000000000E+00  0.00000000000E+00  0.99999998245E-14  0.12500000000E+03  0.12500000000E+03 0.  0.
        -13    1    3    3    0    0 -0.20686964115E+02  0.31443739268E+02  0.12736842114E+01  0.37660226486E+02  0.10566000000E+00 0.  1.
         23    2    1    0    0    0 -0.11517651877E+02 -0.26167644569E+02 -0.35221188755E+01  0.96193624865E+02  0.91779116449E+02 0.  0.
         13    1    3    3    0    0  0.91693122384E+01 -0.57611383837E+02 -0.47958030870E+01  0.58533398379E+02  0.10566000000E+00 0. -1.
         22    1    1    0    0    0  0.11517651877E+02  0.26167644569E+02  0.35221188755E+01  0.28806375135E+02  0.00000000000E+00 0. -1.
</event>
<event>
 5    1  0.1245610E-004  0.9118800E+02  0.7818608E-02  0.1130116E+00
         25   -1    0    0    0    0  0.00000000000E+00  0.00000000000E+00  0.99999998245E-14  0.12500000000E+03  0.12500000000E+03 0.  0.
        -13    1    3    3    0    0 -0.15913913475E+02 -0.76053906455E+01  0.15728988197E+02  0.23632749368E+02  0.10566000000E+00 0. -1.
         23    2    1    0    0    0  0.29437463487E+02 -0.37353985338E+01  0.39983780976E+02  0.75208231606E+02  0.56365396312E+02 0.  0.
         13    1    3    3    0    0  0.45351376962E+02  0.38699921117E+01  0.24254792778E+02  0.51575482237E+02  0.10566000000E+00 0.  1.
         22    1    1    0    0    0 -0.29437463487E+02  0.37353985338E+01 -0.39983780976E+02  0.49791768394E+02  0.00000000000E+00 0.  1.
</event>
<event>
 5    1  0.1245610E-004  0.9118800E+02  0.7818608E-02  0.1130116E+00
         25   -1    0    0    0    0  0.00000000000E+00  0.00000000000E+00  0.99999998245E-14  0.12500000000E+03  0.12500000000E+03 0.  0.
        -13    1    3    3    0    0  0.33000108246E+02 -0.15645589573E+01 -0.47027662718E+02  0.57472316934E+02  0.10566000000E+00 0.  1.
         23    2    1    0    0    0  0.11223634829E+02 -0.17911046558E+02 -0.18480263162E+02  0.96923395966E+02  0.92767715243E+02 0.  0.
         13    1    3    3    0    0 -0.21776473417E+02 -0.16346487600E+02  0.28547399556E+02  0.39451079032E+02  0.10566000000E+00 0. -1.
         22    1    1    0    0    0 -0.11223634829E+02  0.17911046558E+02  0.18480263162E+02  0.28076604034E+02  0.00000000000E+00 0.  1.
</event>
<event>
 5    1  0.1245610E-004  0.9118800E+02  0.7818608E-02  0.1130116E+00
         25   -1    0    0    0    0  0.00000000000E+00  0.00000000000E+00  0.99999998245E-14  0.12500000000E+03  0.12500000000E+03 0.  0.
        -13    1    3    3    0    0  0.35616592384E+02  0.44971490433E+02 -0.24269044971E+02  0.62289439816E+02  0.10566000000E+00 0. -1.
         23    2    1    0    0    0  0.16964235694E+02  0.19550484884E+02 -0.14665344289E+02  0.95249721430E+02  0.90484420524E+02 0.  0.
         13    1    3    3    0    0 -0.18652356689E+02 -0.25421005550E+02  0.96037006816E+01  0.32960281614E+02  0.10566000000E+00 0.  1.
         22    1    1    0    0    0 -0.16964235694E+02 -0.19550484884E+02  0.14665344289E+02  0.29750278570E+02  0.00000000000E+00 0. -1.
</event>
<event>
 5    1  0.1245610E-004  0.9118800E+02  0.7818608E-02  0.1130116E+00
         25   -1    0    0    0    0  0.00000000000E+00  0.00000000000E+00  0.99999998245E-14  0.12500000000E+03  0.12500000000E+03 0.  0.
        -13    1    3    3    0    0  0.40072358512E+02 -0.29871740123E+02  0.19575334529E+02  0.53677925264E+02  0.10566000000E+00 0.  1.
         23    2    1    0    0    0  0.50148767721E+01 -0.87583008295E+01  0.27803526249E+02  0.95421411556E+02  0.90721292368E+02 0.  0.
         13    1    3    3    0    0 -0.35057481740E+02  0.21113439294E+02  0.82281917206E+01  0.41743486292E+02  0.10566000000E+00 0. -1.
         22    1    1    0    0    0 -0.50148767721E+01  0.87583008295E+01 -0.27803526249E+02  0.29578588444E+02  0.00000000000E+00 0. -1.
</event>
<event>
 5    1  0.1245610E-004  0.9118800E+02  0.7818608E-02  0.1130116E+00
         25   -1    0    0    0    0  0.00000000000E+00  0.00000000000E+00  0.99999998245E-14  0.12500000000E+03  0.12500000000E+03 0.  0.
        -13    1    3    3    0    0 -0.23663350774E+02  0.29675007247E+02  0.42060408520E+02  0.56653767341E+02  0.10566000000E+00 0.  1.
         23    2    1    0    0    0 -0.62513789494E+01  0.28549869859E+02  0.83629124807E+01  0.94600771180E+02  0.89583440406E+02 0.  0.
         13    1    3    3    0    0  0.17411971825E+02 -0.11251373883E+01 -0.33697496040E+02  0.37947003839E+02  0.10566000000E+00 0. -1.
         22    1    1    0    0    0  0.62513789494E+01 -0.28549869859E+02 -0.83629124807E+01  0.30399228820E+02  0.00000000000E+00 0.  1.
</event>
<event>
 5    1  0.1245610E-004  0.9118800E+02  0.7818608E-02  0.1130116E+00
         25   -1    0    0    0    0  0.00000000000E+00  0.00000000000E+00  0.99999998245E-14  0.12500000000E+03  0.12500000000E+03 0.  0.
        -13    1    3    3    0    0  0.21557541273E+02 -0.45237149603E+02  0.25754697730E+02  0.56342194749E+02  0.10566000000E+00 0. -1.
         23    2    1    0    0    0 -0.86873949960E+01 -0.18891582282E+02  0.18631940075E+02  0.97080259602E+02  0.92978841144E+02 0.  0.
         13    1    3    3    0    0 -0.30244936269E+02  0.26345567321E+02 -0.71227576558E+01  0.40738064853E+02  0.10566000000E+00 0.  1.
         22    1    1    0    0    0  0.86873949960E+01  0.18891582282E+02 -0.18631940075E+02  0.27919740398E+02  0.00000000000E+00 0. -1.
</event>
<event>
 5    1  0.1245610E-004  0.9118800E+02  0.7818608E-02  0.1130116E+00
         25   -1    0    0    0    0  0.00000000000E+00  0.00000000000E+00  0.99999998245E-14  0.12500000000E+03  0.12500000000E+03 0.  0.
        -13    1    3    3    0    0  0.45339068215E+02 -0.13161337955E+02  0.20389383279E+02  0.51425577662E+02  0.10566000000E+00 0. -1.
         23    2    1    0    0    0  0.26454039206E+02  0.18904495639E+02  0.15568390272E+02  0.88950437987E+02  0.81317953102E+02 0.  0.
         13    1    3    3    0    0 -0.18885029009E+02  0.32065833594E+02 -0.48209930069E+01  0.37524860324E+02  0.10566000000E+00 0.  1.
         22    1    1    0    0    0 -0.26454039206E+02 -0.18904495639E+02 -0.15568390272E+02  0.36049562013E+02  0.00000000000E+00 0. -1.
</event>
<event>
 5    1  0.1245610E-004  0.9118800E+02  0.7818608E-02  0.1130116E+00
         25   -1    0    0    0    0  0.00000000000E+00  0.00000000000E+00  0.99999998245E-14  0.12500000000E+03  0.12500000000E+03 0.  0.
        -13    1    3    3    0    0  0.45940332974E+02  0.10767442396E+02 -0.40119610617E+02  0.61935824283E+02  0.10566000000E+00 0.  1.
         23    2    1    0    0    0  0.22359098762E+02  0.10185075971E+02 -0.15957664966E+02  0.95703035291E+02  0.91108500277E+02 0.  0.
         13    1    3    3    0    0 -0.23581234212E+02 -0.58236642436E+00  0.24161945651E+02  0.33767211008E+02  0.10566000000E+00 0. -1.
         22    1    1    0    0    0 -0.22359098762E+02 -0.10185075971E+02  0.15957664966E+02  0.29296964709E+02  0.00000000000E+00 0.  1.
</event>
<event>
 5    1  0.1245610E-004  0.9118800E+02  0.7818608E-02  0.1130116E+00
         25   -1    0    0    0    0  0.00000000000E+00  0.00000000000E+00  0.99999998245E-14  0.12500000000E+03  0.12500000000E+03 0.  0.
        -13    1    3    3    0    0  0.26763689011E+02 -0.16654540318E+02 -0.27759150282E+02  0.42002980264E+02  0.10566000000E+00 0.  1.
         23    2    1    0    0    0 -0.68700382630E+01 -0.28300185763E+02  0.10298103705E+02  0.94110699589E+02  0.88896990373E+02 0.  0.
         13    1    3    3    0    0 -0.33633727274E+02 -0.11645645445E+02  0.38057253987E+02  0.52107719325E+02  0.10566000000E+00 0. -1.
         22    1    1    0    0    0  0.68700382630E+01  0.28300185763E+02 -0.10298103705E+02  0.30889300411E+02  0.00000000000E+00 0. -1.
</event>
<event>
 5    1  0.1245610E-004  0.9118800E+02  0.7818608E-02  0.1130116E+00
         25   -1    0    0    0    0  0.00000000000E+00  0.00000000000E+00  0.99999998245E-14  0.12500000000E+03  0.12500000000E+03 0.  0.
        -13    1    3    3    0    0 -0.23803731746E+02  0.17885714840E+02 -0.13495656560E+02  0.32690370913E+02  0.10566000000E+00 0.  1.
         23    2    1    0    0    0 -0.39889847140E+01 -0.46943874996E+01  0.34850065331E+02  0.89609657721E+02  0.82325053479E+02 0.  0.
         13    1    3    3    0    0  0.19814747032E+02 -0.22580102339E+02  0.48345721891E+02  0.56919286809E+02  0.10566000000E+00 0. -1.
         22    1    1    0    0    0  0.39889847140E+01  0.46943874996E+01 -0.34850065331E+02  0.35390342279E+02  0.00000000000E+00 0. -1.
</event>
<event>
 5    1  0.1245610E-004  0.9118800E+02  0.7818608E-02  0.1130116E+00
         25   -1    0    0    0    0  0.00000000000E+00  0.00000000000E+00  0.99999998245E-14  0.12500000000E+03  0.12500000000E+03 0.  0.
        -13    1    3    3    0    0  0.27201025504E+02  0.95588753452E+01 -0.52815641775E+02  0.60172843264E+02  0.10566000000E+00 0. -1.
         23    2    1    0    0    0  0.14036507868E+01  0.77035450680E+01 -0.27660674486E+02  0.96252343484E+02  0.91859054377E+02 0.  0.
         13    1    3    3    0    0 -0.25797374717E+02 -0.18553302772E+01  0.25154967289E+02  0.36079500220E+02  0.10566000000E+00 0.  1.
         22    1    1    0    0    0 -0.14036507868E+01 -0.77035450680E+01  0.27660674486E+02  0.28747656516E+02  0.00000000000E+00 0. -1.
</event>
<event>
 5    1  0.1245610E-004  0.9118800E+02  0.7818608E-02  0.1130116E+00
         25   -1    0    0    0    0  0.00000000000E+00  0.00000000000E+00  0.99999998245E-14  0.12500000000E+03  0.12500000000E+03 0.  0.
        -13    1    3    3    0    0 -0.14716605523E+02  0.18929794502E+02 -0.31907393194E+02  0.39912510601E+02  0.10566000000E+00 0. -1.
         23    2    1    0    0    0 -0.17154254860E+01  0.26077990354E+02  0.18838946499E+02  0.92783386728E+02  0.87010612468E+02 0.  0.
         13    1    3    3    0    0  0.13001180037E+02  0.71481958520E+01  0.50746339692E+02  0.52870876128E+02  0.10566000000E+00 0.  1.
         22    1    1    0    0    0  0.17154254860E+01 -0.26077990354E+02 -0.18838946499E+02  0.32216613272E+02  0.00000000000E+00 0.  1.
</event>
<event>
 5    1  0.1245610E-004  0.9118800E+02  0.7818608E-02  0.1130116E+00
         25   -1    0    0    0    0  0.00000000000E+00  0.00000000000E+00  0.99999998245E-14  0.12500000000E+03  0.12500000000E+03 0.  0.
        -13    1    3    3    0    0  0.12538208902E+02 -0.22811064145E+02  0.49449063350E+02  0.55881771268E+02  0.10566000000E+00 0.  1.
         23    2    1    0    0    0  0.22922504181E+02 -0.10134040995E+02  0.11092773088E+02  0.97592161713E+02  0.93664509971E+02 0.  0.
         13    1    3    3    0    0  0.10384295279E+02  0.12677023149E+02 -0.38356290261E+02  0.41710390444E+02  0.10566000000E+00 0. -1.
         22    1    1    0    0    0 -0.22922504181E+02  0.10134040995E+02 -0.11092773088E+02  0.27407838287E+02  0.00000000000E+00 0.  1.
</event>
<event>
 5    1  0.1245610E-004  0.9118800E+02  0.7818608E-02  0.1130116E+00
         25   -1    0    0    0    0  0.00000000000E+00  0.00000000000E+00  0.99999998245E-14  0.12500000000E+03  0.12500000000E+03 0.  0.
        -13    1    3    3    0    0 -0.51856040692E+00  0.34286288162E+02 -0.32289490787E+02  0.47100327389E+02  0.10566000000E+00 0. -1.
         23    2    1    0    0    0 -0.10660249988E+02  0.23277344712E+02  0.14048929292E+02  0.95796436504E+02  0.91236555864E+02 0.  0.
         13    1    3    3    0    0 -0.10141689581E+02 -0.11008943449E+02  0.46338420079E+02  0.48696109115E+02  0.10566000000E+00 0.  1.
         22    1    1    0    0    0  0.10660249988E+02 -0.23277344712E+02 -0.14048929292E+02  0.29203563496E+02  0.00000000000E+00 0. -1.
</event>
<event>
 5    1  0.1245610E-004  0.9118800E+02  0.7818608E-02  0.1130116E+00
         25   -1    0    0    0    0  0.00000000000E+00  0.00000000000E+00  0.99999998245E-14  0.12500000000E+03  0.12500000000E+03 0.  0.
        -13    1    3    3    0    0  0.36571527330E+02  0.16705196428E+01  0.15256869367E+02  0.39661700343E+02  0.10566000000E+00 0. -1.
         23    2    1    0    0    0  0.50529779523E+01 -0.11848929904E+02 -0.27594224142E+02  0.94547234410E+02  0.89508706853E+02 0.  0.
         13    1    3    3    0    0 -0.31518549378E+02 -0.13519449546E+02 -0.42851093509E+02  0.54885534068E+02  0.10566000000E+00 0.  1.
         22    1    1    0    0    0 -0.50529779523E+01  0.11848929904E+02  0.27594224142E+02  0.30452765590E+02  0.00000000000E+00 0.  1.
</event>
<event>
 5    1  0.1245610E-004  0.9118800E+02  0.7818608E-02  0.1130116E+00
         25   -1    0    0    0    0  0.00000000000E+00  0.00000000000E+00  0.99999998245E-14  0.12500000000E+03  0.12500000000E+03 0.  0.
        -13    1    3    3    0    0 -0.18066726088E+02  0.24331733449E+02  0.31827702700E+02  0.43948306763E+02  0.10566000000E+00 0. -1.
         23    2    1    0    0    0  0.71855626521E+00  0.23313968296E+02 -0.16909471995E+02  0.96190493167E+02  0.91774851085E+02 0.  0.
         13    1    3    3    0    0  0.18785282353E+02 -0.10177651523E+01 -0.48737174695E+02  0.52242186404E+02  0.10566000000E+00 0.  1.
         22    1    1    0    0    0 -0.71855626521E+00 -0.23313968296E+02  0.16909471995E+02  0.28809506833E+02  0.00000000000E+00 0. -1.
</event>
<event>
 5    1  0.1245610E-004  0.9118800E+02  0.7818608E-02  0.1130116E+00
         25   -1    0    0    0    0  0.00000000000E+00  0.00000000000E+00  0.99999998245E-14  0.12500000000E+03  0.12500000000E+03 0.  0.
        -13    1    3    3    0    0  0.85977106475E+01  0.16335030964E+02 -0.44346213986E+02  0.48034901103E+02  0.10566000000E+00 0.  1.
         23    2    1    0    0    0 -0.54711826260E+01  0.29491576360E+02 -0.15512744416E+01  0.94965130799E+02  0.90090414028E+02 0.  0.
         13    1    3    3    0    0 -0.14068893274E+02  0.13156545396E+02  0.42794939545E+02  0.46930229697E+02  0.10566000000E+00 0. -1.
         22    1    1    0    0    0  0.54711826260E+01 -0.29491576360E+02  0.15512744416E+01  0.30034869201E+02  0.00000000000E+00 0. -1.
</event>
<event>
 5    1  0.1245610E-004  0.9118800E+02  0.7818608E-02  0.1130116E+00
         25   -1    0    0    0    0  0.00000000000E+00  0.00000000000E+00  0.99999998245E-14  0.12500000000E+03  0.12500000000E+03 0.  0.
        -13    1    3    3    0    0  0.37435504769E+02  0.39931397341E+01  0.80722702110E-01  0.37648105695E+02  0.10566000000E+00 0.  1.
         23    2    1    0    0    0 -0.12214240205E+02 -0.24221563931E+02 -0.10835916822E+02  0.95788890531E+02  0.91226216806E+02 0.  0.
         13    1    3    3    0    0 -0.49649744974E+02 -0.28214703665E+02 -0.10916639524E+02  0.58140784836E+02  0.10566000000E+00 0. -1.
         22    1    1    0    0    0  0.12214240205E+02  0.24221563931E+02  0.10835916822E+02  0.29211109469E+02  0.00000000000E+00 0. -1.
</event>
<event>
 5    1  0.1245610E-004  0.9118800E+02  0.7818608E-02  0.1130116E+00
         25   -1    0    0    0    0  0.00000000000E+00  0.00000000000E+00  0.99999998245E-14  0.12500000000E+03  0.12500000000E+03 0.  0.
        -13    1    3    3    0    0 -0.33974301924E+02  0.32707065432E+02  0.11681027680E+02  0.48584595214E+02  0.10566000000E+00 0.  1.
         23    2    1    0    0    0  0.12702333312E+02  0.24822963351E+02  0.76030222147E+01  0.96097842159E+02  0.91648570854E+02 0.  0.
         13    1    3    3    0    0  0.46676635236E+02 -0.78841020808E+01 -0.40780054651E+01  0.47513246945E+02  0.10566000000E+00 0. -1.
         22    1    1    0    0    0 -0.12702333312E+02 -0.24822963351E+02 -0.76030222147E+01  0.28902157841E+02  0.00000000000E+00 0. -1.
</event>
<event>
 5    1  0.1245610E-004  0.9118800E+02  0.7818608E-02  0.1130116E+00
         25   -1    0    0    0    0  0.00000000000E+00  0.00000000000E+00  0.99999998245E-14  0.12500000000E+03  0.12500000000E+03 0.  0.
        -13    1    3    3    0    0  0.30737395990E+02  0.32190718790E+02 -0.10301482245E+02  0.45685463651E+02  0.10566000000E+00 0. -1.
         23    2    1    0    0    0  0.44757532138E+01 -0.52433278395E+01 -0.29076691276E+02  0.95117248634E+02  0.90301230105E+02 0.  0.
         13    1    3    3    0    0 -0.26261642777E+02 -0.37434046630E+02 -0.18775209031E+02  0.49431784983E+02  0.10566000000E+00 0.  1.
         22    1    1    0    0    0 -0.44757532138E+01  0.52433278395E+01  0.29076691276E+02  0.29882751366E+02  0.00000000000E+00 0.  1.
</event>
<event>
 5    1  0.1245610E-004  0.9118800E+02  0.7818608E-02  0.1130116E+00
         25   -1    0    0    0    0  0.00000000000E+00  0.00000000000E+00  0.99999998245E-14  0.12500000000E+03  0.12500000000E+03 0.  0.
        -13    1    3    3    0    0 -0.79984035780E+01  0.52213272159E+02  0.30390398624E+02  0.60940854457E+02  0.10566000000E+00 0. -1.
         23    2    1    0    0    0 -0.31452052116E+01  0.17539439159E+02  0.21522134238E+02  0.97058516432E+02  0.92949605206E+02 0.  0.
         13    1    3    3    0    0  0.48531983664E+01 -0.34673833000E+02 -0.88682643864E+01  0.36117661975E+02  0.10566000000E+00 0.  1.
         22    1    1    0    0    0  0.31452052116E+01 -0.17539439159E+02 -0.21522134238E+02  0.27941483568E+02  0.00000000000E+00 0. -1.
</event>
<event>
 5    1  0.1245610E-004  0.9118800E+02  0.7818608E-02  0.1130116E+00
         25   -1    0    0    0    0  0.00000000000E+00  0.00000000000E+00  0.99999998245E-14  0.12500000000E+03  0.12500000000E+03 0.  0.
        -13    1    3    3    0    0  0.39244033155E+02  0.60309809577E+01  0.15253423877E+02  0.42534044877E+02  0.10566000000E+00 0. -1.
         23    2    1    0    0    0 -0.13575877653E+02  0.21040297647E+02  0.11124269046E+02  0.97600220057E+02  0.93675263619E+02 0.  0.
         13    1    3    3    0    0 -0.52819910808E+02  0.15009316689E+02 -0.41291548303E+01  0.55066175180E+02  0.10566000000E+00 0.  1.
         22    1    1    0    0    0  0.13575877653E+02 -0.21040297647E+02 -0.11124269046E+02  0.27399779943E+02  0.00000000000E+00 0.  1.
</event>
<event>
 5    1  0.1245610E-004  0.9118800E+02  0.7818608E-02  0.1130116E+00
         25   -1    0    0    0    0  0.00000000000E+00  0.00000000000E+00  0.99999998245E-14  0.12500000000E+03  0.12500000000E+03 0.  0.
        -13    1    3    3    0    0 -0.48302013578E+02 -0.24742756967E+02  0.14386806786E+02  0.56145168194E+02  0.10566000000E+00 0. -1.
         23    2    1    0    0    0 -0.19843426019E+02 -0.18089855572E+02 -0.12063374450E+02  0.95563127987E+02  0.90916346148E+02 0.  0.
         13    1    3    3    0    0  0.28458587559E+02  0.66529013954E+01 -0.26450181236E+02  0.39417959793E+02  0.10566000000E+00 0.  1.
         22    1    1    0    0    0  0.19843426019E+02  0.18089855572E+02  0.12063374450E+02  0.29436872013E+02  0.00000000000E+00 0. -1.
</event>
<event>
 5    1  0.1245610E-004  0.9118800E+02  0.7818608E-02  0.1130116E+00
         25   -1    0    0    0    0  0.00000000000E+00  0.00000000000E+00  0.99999998245E-14  0.12500000000E+03  0.12500000000E+03 0.  0.
        -13    1    3    3    0    0  0.34577489664E+02  0.24095656932E+01  0.11592662439E+02  0.36548731644E+02  0.10566000000E+00 0.  1.
         23    2    1    0    0    0 -0.10740594795E+02 -0.24177762827E+02 -0.14083814806E+02  0.95028706546E+02  0.90178581916E+02 0.  0.
         13    1    3    3    0    0 -0.45318084459E+02 -0.26587328520E+02 -0.25676477244E+02  0.58479974902E+02  0.10566000000E+00 0. -1.
         22    1    1    0    0    0  0.10740594795E+02  0.24177762827E+02  0.14083814806E+02  0.29971293454E+02  0.00000000000E+00 0. -1.
</event>
<event>
 5    1  0.1245610E-004  0.9118800E+02  0.7818608E-02  0.1130116E+00
         25   -1    0    0    0    0  0.00000000000E+00  0.00000000000E+00  0.99999998245E-14  0.12500000000E+03  0.12500000000E+03 0.  0.
        -13    1    3    3    0    0  0.41557410013E+02  0.24893389773E+02 -0.52560926010E+01  0.48727167523E+02  0.10566000000E+00 0.  1.
         23    2    1    0    0    0  0.22582939269E+02 -0.18200551742E+02 -0.18323565641E+01  0.95937881008E+02  0.91430138641E+02 0.  0.
         13    1    3    3    0    0 -0.18974470744E+02 -0.43093941515E+02  0.34237360369E+01  0.47210713485E+02  0.10566000000E+00 0. -1.
         22    1    1    0    0    0 -0.22582939269E+02  0.18200551742E+02  0.18323565641E+01  0.29062118992E+02  0.00000000000E+00 0.  1.
</event>
<event>
 5    1  0.1245610E-004  0.9118800E+02  0.7818608E-02  0.1130116E+00
         25   -1    0    0    0    0  0.00000000000E+00  0.00000000000E+00  0.99999998245E-14  0.12500000000E+03  0.12500000000E+03 0.  0.
        -13    1    3    3    0    0 -0.18868733770E+02  0.57139489695E+01  0.38099451276E+02  0.42898224654E+02  0.10566000000E+00 0. -1.
         23    2    1    0    0    0  0.14869217843E+02  0.26049456886E+02  0.45080110470E+01  0.94668662955E+02  0.89678122967E+02 0.  0.
         13    1    3    3    0    0  0.33737951613E+02  0.20335507916E+02 -0.33591440229E+02  0.51770438301E+02  0.10566000000E+00 0.  1.
         22    1    1    0    0    0 -0.14869217843E+02 -0.26049456886E+02 -0.45080110470E+01  0.30331337045E+02  0.00000000000E+00 0.  1.
</event>
<event>
 5    1  0.1245610E-004  0.9118800E+02  0.7818608E-02  0.1130116E+00
         25   -1    0    0    0    0  0.00000000000E+00  0.00000000000E+00  0.99999998245E-14  0.12500000000E+03  0.12500000000E+03 0.  0.
        -13    1    3    3    0    0 -0.12013759322E+02  0.70375062651E+01 -0.53364308739E+02  0.55150861450E+02  0.10566000000E+00 0. -1.
         23    2    1    0    0    0 -0.16211229668E+02 -0.14716600775E+02 -0.19150669383E+02  0.95911678571E+02  0.91394308591E+02 0.  0.
         13    1    3    3    0    0 -0.41974703463E+01 -0.21754107040E+02  0.34213639355E+02  0.40760817121E+02  0.10566000000E+00 0.  1.
         22    1    1    0    0    0  0.16211229668E+02  0.14716600775E+02  0.19150669383E+02  0.29088321429E+02  0.00000000000E+00 0. -1.
</event>
<event>
 5    1  0.1245610E-004  0.9118800E+02  0.7818608E-02  0.1130116E+00
         25   -1    0    0    0    0  0.00000000000E+00  0.00000000000E+00  0.99999998245E-14  0.12500000000E+03  0.12500000000E+03 0.  0.
        -13    1    3    3    0    0 -0.49050342749E+02 -0.28701439421E+02 -0.57872408203E+00  0.56833571366E+02  0.10566000000E+00 0.  1.
         23    2    1    0    0    0 -0.14466845295E+02 -0.18306391212E+02  0.16140947383E+02  0.96628469297E+02  0.92369460994E+02 0.  0.
         13    1    3    3    0    0  0.34583497454E+02  0.10395048209E+02  0.16719671465E+02  0.39794897931E+02  0.10566000000E+00 0. -1.
         22    1    1    0    0    0  0.14466845295E+02  0.18306391212E+02 -0.16140947383E+02  0.28371530703E+02  0.00000000000E+00 0.  1.
</event>
<event>
 5    1  0.1245610E-004  0.9118800E+02  0.7818608E-02  0.1130116E+00
         25   -1    0    0    0    0  0.00000000000E+00  0.00000000000E+00  0.99999998245E-14  0.12500000000E+03  0.12500000000E+03 0.  0.
        -13    1    3    3    0    0  0.19911562774E+02 -0.29709142842E+02  0.45899314785E+01  0.36058038431E+02  0.10566000000E+00 0.  1.
         23    2    1    0    0    0 -0.17066372941E+02  0.79932214410E+01 -0.22695693397E+02  0.95500047913E+02  0.90829576561E+02 0.  0.
         13    1    3    3    0    0 -0.36977935715E+02  0.37702364283E+02 -0.27285624876E+02  0.59442009481E+02  0.10566000000E+00 0. -1.
         22    1    1    0    0    0  0.17066372941E+02 -0.79932214410E+01  0.22695693397E+02  0.29499952087E+02  0.00000000000E+00 0. -1.
</event>
<event>
 5    1  0.1245610E-004  0.9118800E+02  0.7818608E-02  0.1130116E+00
         25   -1    0    0    0    0  0.00000000000E+00  0.00000000000E+00  0.99999998245E-14  0.12500000000E+03  0.12500000000E+03 0.  0.
        -13    1    3    3    0    0 -0.33811354674E+02  0.47730221909E+01  0.44857061312E+01  0.34440124409E+02  0.10566000000E+00 0. -1.
         23    2    1    0    0    0  0.23279596672E+02 -0.17527359637E+02  0.63283340164E+00  0.95852985827E+02  0.91313999238E+02 0.  0.
         13    1    3    3    0    0  0.57090951346E+02 -0.22300381828E+02 -0.38528727296E+01  0.61412861419E+02  0.10566000000E+00 0.  1.
         22    1    1    0    0    0 -0.23279596672E+02  0.17527359637E+02 -0.63283340164E+00  0.29147014173E+02  0.00000000000E+00 0.  1.
</event>
<event>
 5    1  0.1245610E-004  0.9118800E+02  0.7818608E-02  0.1130116E+00
         25   -1    0    0    0    0  0.00000000000E+00  0.00000000000E+00  0.99999998245E-14  0.12500000000E+03  0.12500000000E+03 0.  0.
        -13    1    3    3    0    0 -0.71185358906E+01 -0.29021040561E+02  0.40715287012E+01  0.30157633502E+02  0.10566000000E+00 0.  1.
         23    2    1    0    0    0 -0.98755391721E+01  0.28705873071E+02 -0.15162315915E+02  0.91066988837E+02  0.84508858761E+02 0.  0.
         13    1    3    3    0    0 -0.27570032815E+01  0.57726913631E+02 -0.19233844616E+02  0.60909355335E+02  0.10566000000E+00 0. -1.
         22    1    1    0    0    0  0.98755391721E+01 -0.28705873071E+02  0.15162315915E+02  0.33933011163E+02  0.00000000000E+00 0. -1.
</event>
<event>
 5    1  0.1245610E-004  0.9118800E+02  0.7818608E-02  0.1130116E+00
         25   -1    0    0    0    0  0.00000000000E+00  0.00000000000E+00  0.99999998245E-14  0.12500000000E+03  0.12500000000E+03 0.  0.
        -13    1    3    3    0    0 -0.24233621480E+02 -0.23777214534E+02 -0.12405543512E+01  0.33973143513E+02  0.10566000000E+00 0.  1.
         23    2    1    0    0    0  0.20162507169E+02  0.18169293275E+02 -0.10788650016E+02  0.95793067901E+02  0.91231940543E+02 0.  0.
         13    1    3    3    0    0  0.44396128650E+02  0.41946507809E+02 -0.95480956649E+01  0.61819924388E+02  0.10566000000E+00 0. -1.
         22    1    1    0    0    0 -0.20162507169E+02 -0.18169293275E+02  0.10788650016E+02  0.29206932099E+02  0.00000000000E+00 0. -1.
</event>
<event>
 5    1  0.1245610E-004  0.9118800E+02  0.7818608E-02  0.1130116E+00
         25   -1    0    0    0    0  0.00000000000E+00  0.00000000000E+00  0.99999998245E-14  0.12500000000E+03  0.12500000000E+03 0.  0.
        -13    1    3    3    0    0 -0.25879377165E+02  0.30569260508E+01 -0.19240919144E+02  0.32393071680E+02  0.10566000000E+00 0.  1.
         23    2    1    0    0    0  0.14878537909E+02 -0.10652186072E+02  0.24953709826E+02  0.94056057257E+02  0.88820123363E+02 0.  0.
         13    1    3    3    0    0  0.40757915073E+02 -0.13709112123E+02  0.44194628971E+02  0.61662985577E+02  0.10566000000E+00 0. -1.
         22    1    1    0    0    0 -0.14878537909E+02  0.10652186072E+02 -0.24953709826E+02  0.30943942743E+02  0.00000000000E+00 0. -1.
</event>
<event>
 5    1  0.1245610E-004  0.9118800E+02  0.7818608E-02  0.1130116E+00
         25   -1    0    0    0    0  0.00000000000E+00  0.00000000000E+00  0.99999998245E-14  0.12500000000E+03  0.12500000000E+03 0.  0.
        -13    1    3    3    0    0  0.17073377119E+02  0.18981362443E+02 -0.55722274642E+02  0.61292539365E+02  0.10566000000E+00 0.  1.
         23    2    1    0    0    0  0.13295170278E+02  0.11970441248E+02 -0.18862889481E+02  0.99002661367E+02  0.95528348367E+02 0.  0.
         13    1    3    3    0    0 -0.37782068410E+01 -0.70109211948E+01  0.36859385161E+02  0.37710122002E+02  0.10566000000E+00 0. -1.
         22    1    1    0    0    0 -0.13295170278E+02 -0.11970441248E+02  0.18862889481E+02  0.25997338633E+02  0.00000000000E+00 0.  1.
</event>
<event>
 5    1  0.1245610E-004  0.9118800E+02  0.7818608E-02  0.1130116E+00
         25   -1    0    0    0    0  0.00000000000E+00  0.00000000000E+00  0.99999998245E-14  0.12500000000E+03  0.12500000000E+03 0.  0.
        -13    1    3    3    0    0 -0.22242391532E+02 -0.15533566702E+02  0.34777174873E+02  0.44107581341E+02  0.10566000000E+00 0. -1.
         23    2    1    0    0    0  0.14071522133E+02 -0.20787742066E+02 -0.62319473479E+01  0.99135446590E+02  0.95701941712E+02 0.  0.
         13    1    3    3    0    0  0.36313913666E+02 -0.52541753637E+01 -0.41009122221E+02  0.55027865249E+02  0.10566000000E+00 0.  1.
         22    1    1    0    0    0 -0.14071522133E+02  0.20787742066E+02  0.62319473479E+01  0.25864553410E+02  0.00000000000E+00 0.  1.
</event>
<event>
 5    1  0.1245610E-004  0.9118800E+02  0.7818608E-02  0.1130116E+00
         25   -1    0    0    0    0  0.00000000000E+00  0.00000000000E+00  0.99999998245E-14  0.12500000000E+03  0.12500000000E+03 0.  0.
        -13    1    3    3    0    0  0.68525888349E+01 -0.60030680204E+02  0.11850967252E+02  0.61571885860E+02  0.10566000000E+00 0.  1.
         23    2    1    0    0    0 -0.43688523863E+01 -0.28408343600E+02  0.61463940759E+01  0.95607840886E+02  0.90977800707E+02 0.  0.
         13    1    3    3    0    0 -0.11221441221E+02  0.31622336604E+02 -0.57045731763E+01  0.34035955026E+02  0.10566000000E+00 0. -1.
         22    1    1    0    0    0  0.43688523863E+01  0.28408343600E+02 -0.61463940759E+01  0.29392159114E+02  0.00000000000E+00 0.  1.
</event>
<event>
 5    1  0.1245610E-004  0.9118800E+02  0.7818608E-02  0.1130116E+00
         25   -1    0    0    0    0  0.00000000000E+00  0.00000000000E+00  0.99999998245E-14  0.12500000000E+03  0.12500000000E+03 0.  0.
        -13    1    3    3    0    0 -0.22240676461E+02 -0.27602628463E+02  0.12873366201E+02  0.37713227241E+02  0.10566000000E+00 0. -1.
         23    2    1    0    0    0 -0.76981361158E+01  0.27635899477E+02 -0.20089127616E+00  0.96311246161E+02  0.91939173045E+02 0.  0.
         13    1    3    3    0    0  0.14542540346E+02  0.55238527940E+02 -0.13074257477E+02  0.58598018920E+02  0.10566000000E+00 0.  1.
         22    1    1    0    0    0  0.76981361158E+01 -0.27635899477E+02  0.20089127616E+00  0.28688753839E+02  0.00000000000E+00 0. -1.
</event>
<event>
 5    1  0.1245610E-004  0.9118800E+02  0.7818608E-02  0.1130116E+00
         25   -1    0    0    0    0  0.00000000000E+00  0.00000000000E+00  0.99999998245E-14  0.12500000000E+03  0.12500000000E+03 0.  0.
        -13    1    3    3    0    0 -0.55909754516E+02  0.12003415344E+01  0.71208246137E+01  0.56374274071E+02  0.10566000000E+00 0.  1.
         23    2    1    0    0    0 -0.23453928097E+02  0.19235087731E+02 -0.19775737512E+01  0.94602859655E+02  0.89586354506E+02 0.  0.
         13    1    3    3    0    0  0.32455826418E+02  0.18034746197E+02 -0.90983983650E+01  0.38228585584E+02  0.10566000000E+00 0. -1.
         22    1    1    0    0    0  0.23453928097E+02 -0.19235087731E+02  0.19775737512E+01  0.30397140345E+02  0.00000000000E+00 0.  1.
</event>
<event>
 5    1  0.1245610E-004  0.9118800E+02  0.7818608E-02  0.1130116E+00
         25   -1    0    0    0    0  0.00000000000E+00  0.00000000000E+00  0.99999998245E-14  0.12500000000E+03  0.12500000000E+03 0.  0.
        -13    1    3    3    0    0 -0.44131133970E+01 -0.36168253063E+02  0.56358393642E+01  0.36869932856E+02  0.10566000000E+00 0. -1.
         23    2    1    0    0    0  0.10947164938E+02  0.20347081943E+02  0.16725904654E+02  0.96476324741E+02  0.92163339703E+02 0.  0.
         13    1    3    3    0    0  0.15360278335E+02  0.56515335006E+02  0.11090065290E+02  0.59606391885E+02  0.10566000000E+00 0.  1.
         22    1    1    0    0    0 -0.10947164938E+02 -0.20347081943E+02 -0.16725904654E+02  0.28523675259E+02  0.00000000000E+00 0.  1.
</event>
<event>
 5    1  0.1245610E-004  0.9118800E+02  0.7818608E-02  0.1130116E+00
         25   -1    0    0    0    0  0.00000000000E+00  0.00000000000E+00  0.99999998245E-14  0.12500000000E+03  0.12500000000E+03 0.  0.
        -13    1    3    3    0    0  0.24478632076E+02  0.19988186344E+02  0.31442988203E+02  0.44580306110E+02  0.10566000000E+00 0.  1.
         23    2    1    0    0    0  0.95262326448E+01  0.23406055618E+02 -0.16435052839E+02  0.94855290518E+02  0.89937882060E+02 0.  0.
         13    1    3    3    0    0 -0.14952399432E+02  0.34178692732E+01 -0.47878041042E+02  0.50274984408E+02  0.10566000000E+00 0. -1.
         22    1    1    0    0    0 -0.95262326448E+01 -0.23406055618E+02  0.16435052839E+02  0.30144709482E+02  0.00000000000E+00 0. -1.
</event>
<event>
 5    1  0.1245610E-004  0.9118800E+02  0.7818608E-02  0.1130116E+00
         25   -1    0    0    0    0  0.00000000000E+00  0.00000000000E+00  0.99999998245E-14  0.12500000000E+03  0.12500000000E+03 0.  0.
        -13    1    3    3    0    0 -0.27749510477E+02  0.83695789961E+01  0.53535857160E+01  0.29474687926E+02  0.10566000000E+00 0. -1.
         23    2    1    0    0    0  0.22535989358E+02 -0.19917564967E+02 -0.15923283047E+02  0.90968673938E+02  0.84363312432E+02 0.  0.
         13    1    3    3    0    0  0.50285499835E+02 -0.28287143963E+02 -0.21276868763E+02  0.61493986012E+02  0.10566000000E+00 0.  1.
         22    1    1    0    0    0 -0.22535989358E+02  0.19917564967E+02  0.15923283047E+02  0.34031326062E+02  0.00000000000E+00 0.  1.
</event>
<event>
 5    1  0.1245610E-004  0.9118800E+02  0.7818608E-02  0.1130116E+00
         25   -1    0    0    0    0  0.00000000000E+00  0.00000000000E+00  0.99999998245E-14  0.12500000000E+03  0.12500000000E+03 0.  0.
        -13    1    3    3    0    0  0.31319401966E+02 -0.20052262954E+02  0.49774897627E+02  0.62133322677E+02  0.10566000000E+00 0. -1.
         23    2    1    0    0    0  0.10465625478E+02 -0.82943836628E+01  0.25428082470E+02  0.96278692664E+02  0.91894902829E+02 0.  0.
         13    1    3    3    0    0 -0.20853776488E+02  0.11757879291E+02 -0.24346815157E+02  0.34145369987E+02  0.10566000000E+00 0.  1.
         22    1    1    0    0    0 -0.10465625478E+02  0.82943836628E+01 -0.25428082470E+02  0.28721307336E+02  0.00000000000E+00 0. -1.
</event>
<event>
 5    1  0.1245610E-004  0.9118800E+02  0.7818608E-02  0.1130116E+00
         25   -1    0    0    0    0  0.00000000000E+00  0.00000000000E+00  0.99999998245E-14  0.12500000000E+03  0.12500000000E+03 0.  0.
        -13    1    3    3    0    0 -0.18778151052E+02 -0.19892734305E+02 -0.24604190505E+02  0.36792895911E+02  0.10566000000E+00 0.  1.
         23    2    1    0    0    0 -0.10167701286E+02  0.24424263546E+02  0.12975867803E+02  0.95533070325E+02  0.90875010764E+02 0.  0.
         13    1    3    3    0    0  0.86104497664E+01  0.44316997851E+02  0.37580058308E+02  0.58740174414E+02  0.10566000000E+00 0. -1.
         22    1    1    0    0    0  0.10167701286E+02 -0.24424263546E+02 -0.12975867803E+02  0.29466929675E+02  0.00000000000E+00 0. -1.
</event>
<event>
 5    1  0.1245610E-004  0.9118800E+02  0.7818608E-02  0.1130116E+00
         25   -1    0    0    0    0  0.00000000000E+00  0.00000000000E+00  0.99999998245E-14  0.12500000000E+03  0.12500000000E+03 0.  0.
        -13    1    3    3    0    0  0.50363251596E+01  0.14938501991E+02  0.54472849775E+02  0.56708252834E+02  0.10566000000E+00 0. -1.
         23    2    1    0    0    0 -0.41282299951E+00 -0.12328735221E+02  0.24352329203E+02  0.97701573808E+02  0.93810412279E+02 0.  0.
         13    1    3    3    0    0 -0.54491481591E+01 -0.27267237212E+02 -0.30120520572E+02  0.40993320973E+02  0.10566000000E+00 0.  1.
         22    1    1    0    0    0  0.41282299951E+00  0.12328735221E+02 -0.24352329203E+02  0.27298426192E+02  0.00000000000E+00 0. -1.
</event>
<event>
 5    1  0.1245610E-004  0.9118800E+02  0.7818608E-02  0.1130116E+00
         25   -1    0    0    0    0  0.00000000000E+00  0.00000000000E+00  0.99999998245E-14  0.12500000000E+03  0.12500000000E+03 0.  0.
        -13    1    3    3    0    0  0.14690747891E+02  0.18976690388E+02  0.30591448833E+02  0.38881624933E+02  0.10566000000E+00 0. -1.
         23    2    1    0    0    0 -0.29700310878E+02 -0.40017859536E+01  0.66635520299E+01  0.94299418854E+02  0.89161957770E+02 0.  0.
         13    1    3    3    0    0 -0.44391058769E+02 -0.22978476342E+02 -0.23927896803E+02  0.55417793921E+02  0.10566000000E+00 0.  1.
         22    1    1    0    0    0  0.29700310878E+02  0.40017859536E+01 -0.66635520299E+01  0.30700581146E+02  0.00000000000E+00 0.  1.
</event>
<event>
 5    1  0.1245610E-004  0.9118800E+02  0.7818608E-02  0.1130116E+00
         25   -1    0    0    0    0  0.00000000000E+00  0.00000000000E+00  0.99999998245E-14  0.12500000000E+03  0.12500000000E+03 0.  0.
        -13    1    3    3    0    0 -0.27141590426E+01 -0.33549738247E+02  0.22284900841E+02  0.40368051294E+02  0.10566000000E+00 0. -1.
         23    2    1    0    0    0  0.13825617054E+02 -0.71412448462E+01 -0.24138932983E+02  0.96280091392E+02  0.91896805429E+02 0.  0.
         13    1    3    3    0    0  0.16539776097E+02  0.26408493401E+02 -0.46423833824E+02  0.55912040098E+02  0.10566000000E+00 0.  1.
         22    1    1    0    0    0 -0.13825617054E+02  0.71412448462E+01  0.24138932983E+02  0.28719908608E+02  0.00000000000E+00 0.  1.
</event>
<event>
 5    1  0.1245610E-004  0.9118800E+02  0.7818608E-02  0.1130116E+00
         25   -1    0    0    0    0  0.00000000000E+00  0.00000000000E+00  0.99999998245E-14  0.12500000000E+03  0.12500000000E+03 0.  0.
        -13    1    3    3    0    0  0.92505817254E+01 -0.16381141427E+02 -0.30277764693E+02  0.35646448008E+02  0.10566000000E+00 0.  1.
         23    2    1    0    0    0 -0.27771855286E+02  0.11875155737E+01  0.12176906951E+02  0.94652624460E+02  0.89655764539E+02 0.  0.
         13    1    3    3    0    0 -0.37022437011E+02  0.17568657001E+02  0.42454671644E+02  0.59006176452E+02  0.10566000000E+00 0. -1.
         22    1    1    0    0    0  0.27771855286E+02 -0.11875155737E+01 -0.12176906951E+02  0.30347375540E+02  0.00000000000E+00 0. -1.
</event>
<event>
 5    1  0.1245610E-004  0.9118800E+02  0.7818608E-02  0.1130116E+00
         25   -1    0    0    0    0  0.00000000000E+00  0.00000000000E+00  0.99999998245E-14  0.12500000000E+03  0.12500000000E+03 0.  0.
        -13    1    3    3    0    0 -0.31725003832E+02  0.24426428281E+02  0.44863217918E+02  0.60131902952E+02  0.10566000000E+00 0. -1.
         23    2    1    0    0    0 -0.19670187574E+02  0.14716357996E+01  0.12309893411E+02  0.10174886095E+03  0.99056626424E+02 0.  0.
         13    1    3    3    0    0  0.12054816258E+02 -0.22954792481E+02 -0.32553324507E+02  0.41616958002E+02  0.10566000000E+00 0.  1.
         22    1    1    0    0    0  0.19670187574E+02 -0.14716357996E+01 -0.12309893411E+02  0.23251139046E+02  0.00000000000E+00 0. -1.
</event>
<event>
 5    1  0.1245610E-004  0.9118800E+02  0.7818608E-02  0.1130116E+00
         25   -1    0    0    0    0  0.00000000000E+00  0.00000000000E+00  0.99999998245E-14  0.12500000000E+03  0.12500000000E+03 0.  0.
        -13    1    3    3    0    0  0.58844277852E+02  0.25712348226E+01 -0.32506118796E+01  0.58990151094E+02  0.10566000000E+00 0. -1.
         23    2    1    0    0    0  0.25220213444E+02 -0.39667289179E+01 -0.15222498564E+02  0.95275959780E+02  0.90520660321E+02 0.  0.
         13    1    3    3    0    0 -0.33624064408E+02 -0.65379637405E+01 -0.11971886685E+02  0.36285808686E+02  0.10566000000E+00 0.  1.
         22    1    1    0    0    0 -0.25220213444E+02  0.39667289179E+01  0.15222498564E+02  0.29724040220E+02  0.00000000000E+00 0. -1.
</event>
<event>
 5    1  0.1245610E-004  0.9118800E+02  0.7818608E-02  0.1130116E+00
         25   -1    0    0    0    0  0.00000000000E+00  0.00000000000E+00  0.99999998245E-14  0.12500000000E+03  0.12500000000E+03 0.  0.
        -13    1    3    3    0    0  0.65479164075E+01  0.13893582425E+02 -0.35224960591E+02  0.38428060770E+02  0.10566000000E+00 0. -1.
         23    2    1    0    0    0  0.24358424703E+02  0.38117392914E+01  0.17354101570E+02  0.94849924515E+02  0.89930423822E+02 0.  0.
         13    1    3    3    0    0  0.17810508295E+02 -0.10081843134E+02  0.52579062161E+02  0.56421863745E+02  0.10566000000E+00 0.  1.
         22    1    1    0    0    0 -0.24358424703E+02 -0.38117392914E+01 -0.17354101570E+02  0.30150075485E+02  0.00000000000E+00 0.  1.
</event>
<event>
 5    1  0.1245610E-004  0.9118800E+02  0.7818608E-02  0.1130116E+00
         25   -1    0    0    0    0  0.00000000000E+00  0.00000000000E+00  0.99999998245E-14  0.12500000000E+03  0.12500000000E+03 0.  0.
        -13    1    3    3    0    0  0.36356849257E+02 -0.35139257271E+01  0.21814238756E+02  0.42544568848E+02  0.10566000000E+00 0.  1.
         23    2    1    0    0    0  0.44821855232E+01 -0.25196133165E+02 -0.14568306119E+02  0.95552238511E+02  0.90901373080E+02 0.  0.
         13    1    3    3    0    0 -0.31874663734E+02 -0.21682207437E+02 -0.36382544875E+02  0.53007669663E+02  0.10566000000E+00 0. -1.
         22    1    1    0    0    0 -0.44821855232E+01  0.25196133165E+02  0.14568306119E+02  0.29447761489E+02  0.00000000000E+00 0. -1.
</event>
<event>
 5    1  0.1245610E-004  0.9118800E+02  0.7818608E-02  0.1130116E+00
         25   -1    0    0    0    0  0.00000000000E+00  0.00000000000E+00  0.99999998245E-14  0.12500000000E+03  0.12500000000E+03 0.  0.
        -13    1    3    3    0    0 -0.24300697082E+01 -0.18200705092E+01 -0.54621384508E+02  0.54705801384E+02  0.10566000000E+00 0. -1.
         23    2    1    0    0    0  0.77068226881E+01  0.18853513153E+02 -0.18843943921E+02  0.97252129872E+02  0.93209615748E+02 0.  0.
         13    1    3    3    0    0  0.10136892396E+02  0.20673583662E+02  0.35777440586E+02  0.42546328488E+02  0.10566000000E+00 0.  1.
         22    1    1    0    0    0 -0.77068226881E+01 -0.18853513153E+02  0.18843943921E+02  0.27747870128E+02  0.00000000000E+00 0. -1.
</event>
<event>
 5    1  0.1245610E-004  0.9118800E+02  0.7818608E-02  0.1130116E+00
         25   -1    0    0    0    0  0.00000000000E+00  0.00000000000E+00  0.99999998245E-14  0.12500000000E+03  0.12500000000E+03 0.  0.
        -13    1    3    3    0    0  0.30483308384E+02  0.38751663613E+01  0.26507710317E+02  0.40582248269E+02  0.10566000000E+00 0.  1.
         23    2    1    0    0    0 -0.20950163032E+02 -0.12038629351E+02  0.17490169612E+02  0.95171423755E+02  0.90376191217E+02 0.  0.
         13    1    3    3    0    0 -0.51433471416E+02 -0.15913795712E+02 -0.90175407042E+01  0.54589175486E+02  0.10566000000E+00 0. -1.
         22    1    1    0    0    0  0.20950163032E+02  0.12038629351E+02 -0.17490169612E+02  0.29828576245E+02  0.00000000000E+00 0. -1.
</event>
<event>
 5    1  0.1245610E-004  0.9118800E+02  0.7818608E-02  0.1130116E+00
         25   -1    0    0    0    0  0.00000000000E+00  0.00000000000E+00  0.99999998245E-14  0.12500000000E+03  0.12500000000E+03 0.  0.
        -13    1    3    3    0    0  0.14086994096E+02 -0.38771149543E+01 -0.29750675810E+02  0.33144973951E+02  0.10566000000E+00 0.  1.
         23    2    1    0    0    0 -0.35904072868E+01  0.82470425370E+01  0.28446991097E+02  0.95164852312E+02  0.90367101746E+02 0.  0.
         13    1    3    3    0    0 -0.17677401383E+02  0.12124157491E+02  0.58197666907E+02  0.62019878361E+02  0.10566000000E+00 0. -1.
         22    1    1    0    0    0  0.35904072868E+01 -0.82470425370E+01 -0.28446991097E+02  0.29835147688E+02  0.00000000000E+00 0. -1.
</event>
<event>
 5    1  0.1245610E-004  0.9118800E+02  0.7818608E-02  0.1130116E+00
         25   -1    0    0    0    0  0.00000000000E+00  0.00000000000E+00  0.99999998245E-14  0.12500000000E+03  0.12500000000E+03 0.  0.
        -13    1    3    3    0    0 -0.35192061487E+01  0.24272668162E+02  0.32220042786E+02  0.40493080307E+02  0.10566000000E+00 0. -1.
         23    2    1    0    0    0  0.15976947918E+02  0.12328811377E+02 -0.19435227984E+02  0.96982317342E+02  0.92847074997E+02 0.  0.
         13    1    3    3    0    0  0.19496154067E+02 -0.11943856785E+02 -0.51655270771E+02  0.56489237034E+02  0.10566000000E+00 0.  1.
         22    1    1    0    0    0 -0.15976947918E+02 -0.12328811377E+02  0.19435227984E+02  0.28017682658E+02  0.00000000000E+00 0.  1.
</event>
<event>
 5    1  0.1245610E-004  0.9118800E+02  0.7818608E-02  0.1130116E+00
         25   -1    0    0    0    0  0.00000000000E+00  0.00000000000E+00  0.99999998245E-14  0.12500000000E+03  0.12500000000E+03 0.  0.
        -13    1    3    3    0    0 -0.13094530441E+01 -0.18421539736E+02  0.32965462835E+02  0.37786250112E+02  0.10566000000E+00 0.  1.
         23    2    1    0    0    0  0.12704947086E+02 -0.99171036616E+01 -0.23455662415E+02  0.96540682987E+02  0.92250586702E+02 0.  0.
         13    1    3    3    0    0  0.14014400130E+02  0.85044360744E+01 -0.56421125251E+02  0.58754432876E+02  0.10566000000E+00 0. -1.
         22    1    1    0    0    0 -0.12704947086E+02  0.99171036616E+01  0.23455662415E+02  0.28459317013E+02  0.00000000000E+00 0. -1.
</event>
<event>
 5    1  0.1245610E-004  0.9118800E+02  0.7818608E-02  0.1130116E+00
         25   -1    0    0    0    0  0.00000000000E+00  0.00000000000E+00  0.99999998245E-14  0.12500000000E+03  0.12500000000E+03 0.  0.
        -13    1    3    3    0    0  0.70806365956E+01  0.20266735070E+02  0.25489083565E+02  0.33325373367E+02  0.10566000000E+00 0.  1.
         23    2    1    0    0    0 -0.12725193201E+02  0.22484815064E+01 -0.28565186043E+02  0.93647869853E+02  0.88243795607E+02 0.  0.
         13    1    3    3    0    0 -0.19805829797E+02 -0.18018253564E+02 -0.54054269608E+02  0.60322496486E+02  0.10566000000E+00 0. -1.
         22    1    1    0    0    0  0.12725193201E+02 -0.22484815064E+01  0.28565186043E+02  0.31352130147E+02  0.00000000000E+00 0. -1.
</event>
<event>
 5    1  0.1245610E-004  0.9118800E+02  0.7818608E-02  0.1130116E+00
         25   -1    0    0    0    0  0.00000000000E+00  0.00000000000E+00  0.99999998245E-14  0.12500000000E+03  0.12500000000E+03 0.  0.
        -13    1    3    3    0    0  0.23496530925E+02  0.90156374588E+01  0.38872420062E+02  0.46308151440E+02  0.10566000000E+00 0. -1.
         23    2    1    0    0    0 -0.20861099958E+02 -0.35469484593E+01  0.19181534182E+02  0.96439580038E+02  0.92113489835E+02 0.  0.
         13    1    3    3    0    0 -0.44357630882E+02 -0.12562585918E+02 -0.19690885880E+02  0.50131428598E+02  0.10566000000E+00 0.  1.
         22    1    1    0    0    0  0.20861099958E+02  0.35469484593E+01 -0.19181534182E+02  0.28560419962E+02  0.00000000000E+00 0. -1.
</event>
<event>
 5    1  0.1245610E-004  0.9118800E+02  0.7818608E-02  0.1130116E+00
         25   -1    0    0    0    0  0.00000000000E+00  0.00000000000E+00  0.99999998245E-14  0.12500000000E+03  0.12500000000E+03 0.  0.
        -13    1    3    3    0    0  0.27628410078E+02 -0.39543536009E+02  0.34039262622E+02  0.59039841187E+02  0.10566000000E+00 0. -1.
         23    2    1    0    0    0  0.21752501200E+02 -0.19658424297E+02  0.41925511275E+01  0.95382396464E+02  0.90667519630E+02 0.  0.
         13    1    3    3    0    0 -0.58759088785E+01  0.19885111712E+02 -0.29846711495E+02  0.36342555277E+02  0.10566000000E+00 0.  1.
         22    1    1    0    0    0 -0.21752501200E+02  0.19658424297E+02 -0.41925511275E+01  0.29617603536E+02  0.00000000000E+00 0. -1.
</event>
<event>
 5    1  0.1245610E-004  0.9118800E+02  0.7818608E-02  0.1130116E+00
         25   -1    0    0    0    0  0.00000000000E+00  0.00000000000E+00  0.99999998245E-14  0.12500000000E+03  0.12500000000E+03 0.  0.
        -13    1    3    3    0    0 -0.72041518845E+01 -0.23220093584E+02 -0.46119813433E+02  0.52135601133E+02  0.10566000000E+00 0.  1.
         23    2    1    0    0    0  0.57851661044E+01  0.12363595528E+02 -0.27397702128E+02  0.94390185836E+02  0.89289117249E+02 0.  0.
         13    1    3    3    0    0  0.12989317989E+02  0.35583689112E+02  0.18722111305E+02  0.42254584703E+02  0.10566000000E+00 0. -1.
         22    1    1    0    0    0 -0.57851661044E+01 -0.12363595528E+02  0.27397702128E+02  0.30609814164E+02  0.00000000000E+00 0.  1.
</event>
<event>
 5    1  0.1245610E-004  0.9118800E+02  0.7818608E-02  0.1130116E+00
         25   -1    0    0    0    0  0.00000000000E+00  0.00000000000E+00  0.99999998245E-14  0.12500000000E+03  0.12500000000E+03 0.  0.
        -13    1    3    3    0    0  0.19018680687E+02  0.13404162459E+02 -0.54385671069E+02  0.59153986915E+02  0.10566000000E+00 0.  1.
         23    2    1    0    0    0  0.12309020936E+02  0.18911681696E+02 -0.19269945624E+02  0.95326872336E+02  0.90590938201E+02 0.  0.
         13    1    3    3    0    0 -0.67096597510E+01  0.55075192371E+01  0.35115725445E+02  0.36172885421E+02  0.10566000000E+00 0. -1.
         22    1    1    0    0    0 -0.12309020936E+02 -0.18911681696E+02  0.19269945624E+02  0.29673127664E+02  0.00000000000E+00 0.  1.
</event>
<event>
 5    1  0.1245610E-004  0.9118800E+02  0.7818608E-02  0.1130116E+00
         25   -1    0    0    0    0  0.00000000000E+00  0.00000000000E+00  0.99999998245E-14  0.12500000000E+03  0.12500000000E+03 0.  0.
        -13    1    3    3    0    0  0.11075989307E+02 -0.52719719684E+02 -0.20635063111E+02  0.57687636251E+02  0.10566000000E+00 0. -1.
         23    2    1    0    0    0  0.20204810618E+01 -0.28898142617E+02  0.69149666588E+01  0.95217425324E+02  0.90439793957E+02 0.  0.
         13    1    3    3    0    0 -0.90555082448E+01  0.23821577067E+02  0.27550029769E+02  0.37529789073E+02  0.10566000000E+00 0.  1.
         22    1    1    0    0    0 -0.20204810618E+01  0.28898142617E+02 -0.69149666588E+01  0.29782574676E+02  0.00000000000E+00 0. -1.
</event>
<event>
 5    1  0.1245610E-004  0.9118800E+02  0.7818608E-02  0.1130116E+00
         25   -1    0    0    0    0  0.00000000000E+00  0.00000000000E+00  0.99999998245E-14  0.12500000000E+03  0.12500000000E+03 0.  0.
        -13    1    3    3    0    0 -0.14917885462E+02 -0.34650943971E+02  0.10206125030E+02  0.39082059527E+02  0.10566000000E+00 0. -1.
         23    2    1    0    0    0 -0.28984451619E+02  0.94899842974E+01 -0.14100706406E+02  0.91399580974E+02  0.84999383783E+02 0.  0.
         13    1    3    3    0    0 -0.14066566157E+02  0.44140928268E+02 -0.24306831435E+02  0.52317521446E+02  0.10566000000E+00 0.  1.
         22    1    1    0    0    0  0.28984451619E+02 -0.94899842974E+01  0.14100706406E+02  0.33600419026E+02  0.00000000000E+00 0.  1.
</event>
<event>
 5    1  0.1245610E-004  0.9118800E+02  0.7818608E-02  0.1130116E+00
         25   -1    0    0    0    0  0.00000000000E+00  0.00000000000E+00  0.99999998245E-14  0.12500000000E+03  0.12500000000E+03 0.  0.
        -13    1    3    3    0    0  0.23721339042E+02 -0.54309235032E+02 -0.12524383564E+02  0.60572818024E+02  0.10566000000E+00 0.  1.
         23    2    1    0    0    0  0.58906892397E+01 -0.36893714833E+02 -0.12823917850E+02  0.85499376171E+02  0.75827726081E+02 0.  0.
         13    1    3    3    0    0 -0.17830649802E+02  0.17415520200E+02 -0.29953428669E+00  0.24926558146E+02  0.10566000000E+00 0. -1.
         22    1    1    0    0    0 -0.58906892397E+01  0.36893714833E+02  0.12823917850E+02  0.39500623829E+02  0.00000000000E+00 0.  1.
</event>
<event>
 5    1  0.1245610E-004  0.9118800E+02  0.7818608E-02  0.1130116E+00
         25   -1    0    0    0    0  0.00000000000E+00  0.00000000000E+00  0.99999998245E-14  0.12500000000E+03  0.12500000000E+03 0.  0.
        -13    1    3    3    0    0 -0.15108570939E+02 -0.26684057839E+02  0.16543570186E+02  0.34842628160E+02  0.10566000000E+00 0. -1.
         23    2    1    0    0    0  0.10138084420E+01  0.14875682337E+02 -0.25074056698E+02  0.95827717747E+02  0.91279403135E+02 0.  0.
         13    1    3    3    0    0  0.16122379381E+02  0.41559740176E+02 -0.41617626884E+02  0.60985089587E+02  0.10566000000E+00 0.  1.
         22    1    1    0    0    0 -0.10138084420E+01 -0.14875682337E+02  0.25074056698E+02  0.29172282253E+02  0.00000000000E+00 0.  1.
</event>
<event>
 5    1  0.1245610E-004  0.9118800E+02  0.7818608E-02  0.1130116E+00
         25   -1    0    0    0    0  0.00000000000E+00  0.00000000000E+00  0.99999998245E-14  0.12500000000E+03  0.12500000000E+03 0.  0.
        -13    1    3    3    0    0  0.21560579891E+02 -0.26206593698E+02 -0.18700918068E+02  0.38747640691E+02  0.10566000000E+00 0. -1.
         23    2    1    0    0    0 -0.18732201738E+02  0.79519219869E+01  0.13469186833E+02  0.10059615934E+03  0.97591187275E+02 0.  0.
         13    1    3    3    0    0 -0.40292781629E+02  0.34158515685E+02  0.32170104901E+02  0.61848518645E+02  0.10566000000E+00 0.  1.
         22    1    1    0    0    0  0.18732201738E+02 -0.79519219869E+01 -0.13469186833E+02  0.24403840665E+02  0.00000000000E+00 0.  1.
</event>
<event>
 5    1  0.1245610E-004  0.9118800E+02  0.7818608E-02  0.1130116E+00
         25   -1    0    0    0    0  0.00000000000E+00  0.00000000000E+00  0.99999998245E-14  0.12500000000E+03  0.12500000000E+03 0.  0.
        -13    1    3    3    0    0 -0.52908519656E+01 -0.31605252912E+02  0.91142085977E+01  0.33316138560E+02  0.10566000000E+00 0.  1.
         23    2    1    0    0    0 -0.50741366433E+01  0.23261213221E+02 -0.18602076991E+02  0.94786291661E+02  0.89841932945E+02 0.  0.
         13    1    3    3    0    0  0.21671532228E+00  0.54866466133E+02 -0.27716285589E+02  0.61470153101E+02  0.10566000000E+00 0. -1.
         22    1    1    0    0    0  0.50741366433E+01 -0.23261213221E+02  0.18602076991E+02  0.30213708339E+02  0.00000000000E+00 0. -1.
</event>
<event>
 5    1  0.1245610E-004  0.9118800E+02  0.7818608E-02  0.1130116E+00
         25   -1    0    0    0    0  0.00000000000E+00  0.00000000000E+00  0.99999998245E-14  0.12500000000E+03  0.12500000000E+03 0.  0.
        -13    1    3    3    0    0 -0.10735424849E+02  0.47507510190E+02 -0.16574979308E+02  0.51448556581E+02  0.10566000000E+00 0. -1.
         23    2    1    0    0    0 -0.60006396056E+01  0.22051021112E+02  0.18883393523E+02  0.95354802097E+02  0.90629468300E+02 0.  0.
         13    1    3    3    0    0  0.47347852436E+01 -0.25456489079E+02  0.35458372830E+02  0.43906245516E+02  0.10566000000E+00 0.  1.
         22    1    1    0    0    0  0.60006396056E+01 -0.22051021112E+02 -0.18883393523E+02  0.29645197903E+02  0.00000000000E+00 0. -1.
</event>
<event>
 5    1  0.1245610E-004  0.9118800E+02  0.7818608E-02  0.1130116E+00
         25   -1    0    0    0    0  0.00000000000E+00  0.00000000000E+00  0.99999998245E-14  0.12500000000E+03  0.12500000000E+03 0.  0.
        -13    1    3    3    0    0 -0.74185050729E+01 -0.33459301554E+02 -0.12197065370E+02  0.36377721831E+02  0.10566000000E+00 0.  1.
         23    2    1    0    0    0  0.64062307502E+01  0.24327583394E+02 -0.14727385913E+02  0.95849236682E+02  0.91308866877E+02 0.  0.
         13    1    3    3    0    0  0.13824735823E+02  0.57786884947E+02 -0.25303205436E+01  0.59471514850E+02  0.10566000000E+00 0. -1.
         22    1    1    0    0    0 -0.64062307502E+01 -0.24327583394E+02  0.14727385913E+02  0.29150763318E+02  0.00000000000E+00 0. -1.
</event>
<event>
 5    1  0.1245610E-004  0.9118800E+02  0.7818608E-02  0.1130116E+00
         25   -1    0    0    0    0  0.00000000000E+00  0.00000000000E+00  0.99999998245E-14  0.12500000000E+03  0.12500000000E+03 0.  0.
        -13    1    3    3    0    0  0.27526449934E+01  0.39333889017E+02  0.20695569564E+01  0.39484504678E+02  0.10566000000E+00 0.  1.
         23    2    1    0    0    0  0.26937623767E+02 -0.67876069791E+01 -0.13874174582E+02  0.93948431553E+02  0.88668528172E+02 0.  0.
         13    1    3    3    0    0  0.24184978773E+02 -0.46121495996E+02 -0.15943731539E+02  0.54463926874E+02  0.10566000000E+00 0. -1.
         22    1    1    0    0    0 -0.26937623767E+02  0.67876069791E+01  0.13874174582E+02  0.31051568447E+02  0.00000000000E+00 0. -1.
</event>
<event>
 5    1  0.1245610E-004  0.9118800E+02  0.7818608E-02  0.1130116E+00
         25   -1    0    0    0    0  0.00000000000E+00  0.00000000000E+00  0.99999998245E-14  0.12500000000E+03  0.12500000000E+03 0.  0.
        -13    1    3    3    0    0 -0.30706692533E+02  0.94378632546E+01 -0.52304759789E+02  0.61382190330E+02  0.10566000000E+00 0.  1.
         23    2    1    0    0    0 -0.13681289194E+02 -0.35398569372E+01 -0.26979913575E+02  0.94543079643E+02  0.89502904482E+02 0.  0.
         13    1    3    3    0    0  0.17025403339E+02 -0.12977720192E+02  0.25324846213E+02  0.33160889313E+02  0.10566000000E+00 0. -1.
         22    1    1    0    0    0  0.13681289194E+02  0.35398569372E+01  0.26979913575E+02  0.30456920357E+02  0.00000000000E+00 0.  1.
</event>
<event>
 5    1  0.1245610E-004  0.9118800E+02  0.7818608E-02  0.1130116E+00
         25   -1    0    0    0    0  0.00000000000E+00  0.00000000000E+00  0.99999998245E-14  0.12500000000E+03  0.12500000000E+03 0.  0.
        -13    1    3    3    0    0 -0.26175289454E+02  0.38464429472E+02 -0.20673972528E+02  0.50912497648E+02  0.10566000000E+00 0.  1.
         23    2    1    0    0    0 -0.15743964677E+02 -0.61071351876E+01 -0.22669541116E+02  0.96732039013E+02  0.92509511691E+02 0.  0.
         13    1    3    3    0    0  0.10431324778E+02 -0.44571564660E+02 -0.19955685886E+01  0.45819541365E+02  0.10566000000E+00 0. -1.
         22    1    1    0    0    0  0.15743964677E+02  0.61071351876E+01  0.22669541116E+02  0.28267960987E+02  0.00000000000E+00 0. -1.
</event>
<event>
 5    1  0.1245610E-004  0.9118800E+02  0.7818608E-02  0.1130116E+00
         25   -1    0    0    0    0  0.00000000000E+00  0.00000000000E+00  0.99999998245E-14  0.12500000000E+03  0.12500000000E+03 0.  0.
        -13    1    3    3    0    0  0.20994488516E+02  0.32600067717E+02  0.44782314891E+02  0.59236811649E+02  0.10566000000E+00 0. -1.
         23    2    1    0    0    0  0.17513125109E+02  0.36617443550E+01  0.24136357480E+02  0.94955338657E+02  0.90076826456E+02 0.  0.
         13    1    3    3    0    0 -0.34813634070E+01 -0.28938323362E+02 -0.20645957411E+02  0.35718527009E+02  0.10566000000E+00 0.  1.
         22    1    1    0    0    0 -0.17513125109E+02 -0.36617443550E+01 -0.24136357480E+02  0.30044661343E+02  0.00000000000E+00 0. -1.
</event>
<event>
 5    1  0.1245610E-004  0.9118800E+02  0.7818608E-02  0.1130116E+00
         25   -1    0    0    0    0  0.00000000000E+00  0.00000000000E+00  0.99999998245E-14  0.12500000000E+03  0.12500000000E+03 0.  0.
        -13    1    3    3    0    0 -0.33475251320E+02  0.74596925294E+01 -0.25458697395E+01  0.34390872049E+02  0.10566000000E+00 0. -1.
         23    2    1    0    0    0  0.80609611472E+01  0.37275181655E+02  0.64963184224E+01  0.86313821394E+02  0.77158637550E+02 0.  0.
         13    1    3    3    0    0  0.41536212467E+02  0.29815489126E+02  0.90421881619E+01  0.51922949345E+02  0.10566000000E+00 0.  1.
         22    1    1    0    0    0 -0.80609611472E+01 -0.37275181655E+02 -0.64963184224E+01  0.38686178606E+02  0.00000000000E+00 0.  1.
</event>
<event>
 5    1  0.1245610E-004  0.9118800E+02  0.7818608E-02  0.1130116E+00
         25   -1    0    0    0    0  0.00000000000E+00  0.00000000000E+00  0.99999998245E-14  0.12500000000E+03  0.12500000000E+03 0.  0.
        -13    1    3    3    0    0  0.29529612233E+01  0.24750713414E+02  0.47175328511E+02  0.53355792363E+02  0.10566000000E+00 0. -1.
         23    2    1    0    0    0 -0.19109286648E+02  0.17521325239E+02  0.99449606414E+01  0.97231962322E+02  0.93182565861E+02 0.  0.
         13    1    3    3    0    0 -0.22062247872E+02 -0.72293881757E+01 -0.37230367870E+02  0.43876169959E+02  0.10566000000E+00 0.  1.
         22    1    1    0    0    0  0.19109286648E+02 -0.17521325239E+02 -0.99449606414E+01  0.27768037678E+02  0.00000000000E+00 0.  1.
</event>
<event>
 5    1  0.1245610E-004  0.9118800E+02  0.7818608E-02  0.1130116E+00
         25   -1    0    0    0    0  0.00000000000E+00  0.00000000000E+00  0.99999998245E-14  0.12500000000E+03  0.12500000000E+03 0.  0.
        -13    1    3    3    0    0  0.15240292837E+02 -0.41697033299E+02 -0.16169370918E+02  0.47247950554E+02  0.10566000000E+00 0. -1.
         23    2    1    0    0    0  0.26629323652E+02 -0.29882381525E+01  0.11150170773E+02  0.95976272574E+02  0.91482611154E+02 0.  0.
         13    1    3    3    0    0  0.11389030816E+02  0.38708795146E+02  0.27319541691E+02  0.48728322019E+02  0.10566000000E+00 0.  1.
         22    1    1    0    0    0 -0.26629323652E+02  0.29882381525E+01 -0.11150170773E+02  0.29023727426E+02  0.00000000000E+00 0.  1.
</event>
<event>
 5    1  0.1245610E-004  0.9118800E+02  0.7818608E-02  0.1130116E+00
         25   -1    0    0    0    0  0.00000000000E+00  0.00000000000E+00  0.99999998245E-14  0.12500000000E+03  0.12500000000E+03 0.  0.
        -13    1    3    3    0    0 -0.28135378142E+02  0.83433304561E+01 -0.52628830770E+02  0.60257909511E+02  0.10566000000E+00 0.  1.
         23    2    1    0    0    0 -0.79496172142E+01  0.47938488544E+01 -0.39092902060E+02  0.84820000097E+02  0.74699397751E+02 0.  0.
         13    1    3    3    0    0  0.20185760928E+02 -0.35494816018E+01  0.13535928710E+02  0.24562090586E+02  0.10566000000E+00 0. -1.
         22    1    1    0    0    0  0.79496172142E+01 -0.47938488544E+01  0.39092902060E+02  0.40179999903E+02  0.00000000000E+00 0.  1.
</event>
<event>
 5    1  0.1245610E-004  0.9118800E+02  0.7818608E-02  0.1130116E+00
         25   -1    0    0    0    0  0.00000000000E+00  0.00000000000E+00  0.99999998245E-14  0.12500000000E+03  0.12500000000E+03 0.  0.
        -13    1    3    3    0    0 -0.58734948766E+02  0.87764152078E+01  0.94838403998E+01  0.60139621409E+02  0.10566000000E+00 0. -1.
         23    2    1    0    0    0 -0.23531599502E+02  0.13082652481E+02  0.11632843186E+02  0.95670577714E+02  0.91063957900E+02 0.  0.
         13    1    3    3    0    0  0.35203349265E+02  0.43062372729E+01  0.21490027864E+01  0.35530956304E+02  0.10566000000E+00 0.  1.
         22    1    1    0    0    0  0.23531599502E+02 -0.13082652481E+02 -0.11632843186E+02  0.29329422286E+02  0.00000000000E+00 0. -1.
</event>
<event>
 5    1  0.1245610E-004  0.9118800E+02  0.7818608E-02  0.1130116E+00
         25   -1    0    0    0    0  0.00000000000E+00  0.00000000000E+00  0.99999998245E-14  0.12500000000E+03  0.12500000000E+03 0.  0.
        -13    1    3    3    0    0  0.53360060081E+02  0.44716692516E+01  0.12498061683E+02  0.54986403298E+02  0.10566000000E+00 0.  1.
         23    2    1    0    0    0  0.14306007728E+02  0.78465649769E+01  0.24126088169E+02  0.95874434436E+02  0.91343355582E+02 0.  0.
         13    1    3    3    0    0 -0.39054052353E+02  0.33748957253E+01  0.11628026486E+02  0.40888031138E+02  0.10566000000E+00 0. -1.
         22    1    1    0    0    0 -0.14306007728E+02 -0.78465649769E+01 -0.24126088169E+02  0.29125565564E+02  0.00000000000E+00 0.  1.
</event>
<event>
 5    1  0.1245610E-004  0.9118800E+02  0.7818608E-02  0.1130116E+00
         25   -1    0    0    0    0  0.00000000000E+00  0.00000000000E+00  0.99999998245E-14  0.12500000000E+03  0.12500000000E+03 0.  0.
        -13    1    3    3    0    0 -0.79992839177E+01  0.25429477512E+02  0.25434588390E+02  0.36845302554E+02  0.10566000000E+00 0.  1.
         23    2    1    0    0    0  0.21785059033E+02 -0.19074256993E+02  0.20023887720E+00  0.96043892311E+02  0.91574958792E+02 0.  0.
         13    1    3    3    0    0  0.29784342951E+02 -0.44503734504E+02 -0.25234349513E+02  0.59198589757E+02  0.10566000000E+00 0. -1.
         22    1    1    0    0    0 -0.21785059033E+02  0.19074256993E+02 -0.20023887720E+00  0.28956107689E+02  0.00000000000E+00 0. -1.
</event>
<event>
 5    1  0.1245610E-004  0.9118800E+02  0.7818608E-02  0.1130116E+00
         25   -1    0    0    0    0  0.00000000000E+00  0.00000000000E+00  0.99999998245E-14  0.12500000000E+03  0.12500000000E+03 0.  0.
        -13    1    3    3    0    0  0.40986411166E+02  0.12972897537E+00  0.32737738394E+02  0.52456395312E+02  0.10566000000E+00 0. -1.
         23    2    1    0    0    0 -0.63845179616E+00 -0.12408944524E+02  0.25644600464E+02  0.96503771165E+02  0.92200557434E+02 0.  0.
         13    1    3    3    0    0 -0.41624862962E+02 -0.12538673500E+02 -0.70931379306E+01  0.44047375853E+02  0.10566000000E+00 0.  1.
         22    1    1    0    0    0  0.63845179616E+00  0.12408944524E+02 -0.25644600464E+02  0.28496228835E+02  0.00000000000E+00 0. -1.
</event>
<event>
 5    1  0.1245610E-004  0.9118800E+02  0.7818608E-02  0.1130116E+00
         25   -1    0    0    0    0  0.00000000000E+00  0.00000000000E+00  0.99999998245E-14  0.12500000000E+03  0.12500000000E+03 0.  0.
        -13    1    3    3    0    0  0.32865071375E+02 -0.38799039328E+02 -0.10908359281E+02  0.52004632827E+02  0.10566000000E+00 0.  1.
         23    2    1    0    0    0  0.17992549409E+02  0.23899966978E+01 -0.21302793854E+02  0.97013343457E+02  0.92888836058E+02 0.  0.
         13    1    3    3    0    0 -0.14872521966E+02  0.41189036026E+02 -0.10394434573E+02  0.45008710630E+02  0.10566000000E+00 0. -1.
         22    1    1    0    0    0 -0.17992549409E+02 -0.23899966978E+01  0.21302793854E+02  0.27986656543E+02  0.00000000000E+00 0.  1.
</event>
<event>
 5    1  0.1245610E-004  0.9118800E+02  0.7818608E-02  0.1130116E+00
         25   -1    0    0    0    0  0.00000000000E+00  0.00000000000E+00  0.99999998245E-14  0.12500000000E+03  0.12500000000E+03 0.  0.
        -13    1    3    3    0    0  0.67570212329E+01 -0.26025231696E+02 -0.27873880681E+02  0.38728986676E+02  0.10566000000E+00 0.  1.
         23    2    1    0    0    0  0.13901282701E+01 -0.79056771138E+01  0.27034786067E+02  0.96798726183E+02  0.92599576380E+02 0.  0.
         13    1    3    3    0    0 -0.53668929629E+01  0.18119554582E+02  0.54908666747E+02  0.58069739506E+02  0.10566000000E+00 0. -1.
         22    1    1    0    0    0 -0.13901282701E+01  0.79056771138E+01 -0.27034786067E+02  0.28201273817E+02  0.00000000000E+00 0. -1.
</event>
<event>
 5    1  0.1245610E-004  0.9118800E+02  0.7818608E-02  0.1130116E+00
         25   -1    0    0    0    0  0.00000000000E+00  0.00000000000E+00  0.99999998245E-14  0.12500000000E+03  0.12500000000E+03 0.  0.
        -13    1    3    3    0    0  0.16774875509E+02 -0.24465687702E+02 -0.15674830775E+02  0.33551122290E+02  0.10566000000E+00 0. -1.
         23    2    1    0    0    0 -0.98962076983E+01  0.24211919154E+02  0.12738776489E+02  0.95906557743E+02  0.91387304565E+02 0.  0.
         13    1    3    3    0    0 -0.26671083207E+02  0.48677606856E+02  0.28413607264E+02  0.62355435453E+02  0.10566000000E+00 0.  1.
         22    1    1    0    0    0  0.98962076983E+01 -0.24211919154E+02 -0.12738776489E+02  0.29093442257E+02  0.00000000000E+00 0.  1.
</event>
<event>
 5    1  0.1245610E-004  0.9118800E+02  0.7818608E-02  0.1130116E+00
         25   -1    0    0    0    0  0.00000000000E+00  0.00000000000E+00  0.99999998245E-14  0.12500000000E+03  0.12500000000E+03 0.  0.
        -13    1    3    3    0    0  0.22915480492E+02 -0.25305564608E+02  0.16018976714E+02  0.37710868796E+02  0.10566000000E+00 0.  1.
         23    2    1    0    0    0 -0.20514568306E+02 -0.24461975544E+02 -0.13612745389E+02  0.90293479038E+02  0.83356881896E+02 0.  0.
         13    1    3    3    0    0 -0.43430048798E+02  0.84358906382E+00 -0.29631722103E+02  0.52582610242E+02  0.10566000000E+00 0. -1.
         22    1    1    0    0    0  0.20514568306E+02  0.24461975544E+02  0.13612745389E+02  0.34706520962E+02  0.00000000000E+00 0. -1.
</event>
<event>
 5    1  0.1245610E-004  0.9118800E+02  0.7818608E-02  0.1130116E+00
         25   -1    0    0    0    0  0.00000000000E+00  0.00000000000E+00  0.99999998245E-14  0.12500000000E+03  0.12500000000E+03 0.  0.
        -13    1    3    3    0    0 -0.15733901210E+02 -0.12222729922E+02  0.44052554039E+02  0.48348624132E+02  0.10566000000E+00 0.  1.
         23    2    1    0    0    0  0.91661919293E+01  0.19796621012E+02  0.19341275672E+02  0.95845065210E+02  0.91303156038E+02 0.  0.
         13    1    3    3    0    0  0.24900093140E+02  0.32019350934E+02 -0.24711278367E+02  0.47496441078E+02  0.10566000000E+00 0. -1.
         22    1    1    0    0    0 -0.91661919293E+01 -0.19796621012E+02 -0.19341275672E+02  0.29154934790E+02  0.00000000000E+00 0. -1.
</event>
<event>
 5    1  0.1245610E-004  0.9118800E+02  0.7818608E-02  0.1130116E+00
         25   -1    0    0    0    0  0.00000000000E+00  0.00000000000E+00  0.99999998245E-14  0.12500000000E+03  0.12500000000E+03 0.  0.
        -13    1    3    3    0    0 -0.11687778334E+01  0.39903165425E+02 -0.15305493934E+02  0.42753923342E+02  0.10566000000E+00 0.  1.
         23    2    1    0    0    0 -0.14855400469E+02  0.43909508484E+01  0.23335932372E+02  0.96990553163E+02  0.92858162219E+02 0.  0.
         13    1    3    3    0    0 -0.13686622636E+02 -0.35512214577E+02  0.38641426305E+02  0.54236629820E+02  0.10566000000E+00 0. -1.
         22    1    1    0    0    0  0.14855400469E+02 -0.43909508484E+01 -0.23335932372E+02  0.28009446837E+02  0.00000000000E+00 0. -1.
</event>
<event>
 5    1  0.1245610E-004  0.9118800E+02  0.7818608E-02  0.1130116E+00
         25   -1    0    0    0    0  0.00000000000E+00  0.00000000000E+00  0.99999998245E-14  0.12500000000E+03  0.12500000000E+03 0.  0.
        -13    1    3    3    0    0  0.22875995524E+01  0.10305327895E+02 -0.32474378083E+02  0.34147171049E+02  0.10566000000E+00 0.  1.
         23    2    1    0    0    0 -0.17029093217E+02 -0.12560222870E+00  0.24476101561E+02  0.95182465908E+02  0.90391462412E+02 0.  0.
         13    1    3    3    0    0 -0.19316692770E+02 -0.10430930124E+02  0.56950479644E+02  0.61035294859E+02  0.10566000000E+00 0. -1.
         22    1    1    0    0    0  0.17029093217E+02  0.12560222870E+00 -0.24476101561E+02  0.29817534092E+02  0.00000000000E+00 0. -1.
</event>
<event>
 5    1  0.1245610E-004  0.9118800E+02  0.7818608E-02  0.1130116E+00
         25   -1    0    0    0    0  0.00000000000E+00  0.00000000000E+00  0.99999998245E-14  0.12500000000E+03  0.12500000000E+03 0.  0.
        -13    1    3    3    0    0  0.25295739957E+02  0.48307703700E+02 -0.89352946856E+01  0.55257210859E+02  0.10566000000E+00 0. -1.
         23    2    1    0    0    0  0.57029900822E+01  0.13257917273E+02 -0.23036710624E+02  0.97815693817E+02  0.93962351260E+02 0.  0.
         13    1    3    3    0    0 -0.19592749874E+02 -0.35049786427E+02 -0.14101415938E+02  0.42558482958E+02  0.10566000000E+00 0.  1.
         22    1    1    0    0    0 -0.57029900822E+01 -0.13257917273E+02  0.23036710624E+02  0.27184306183E+02  0.00000000000E+00 0. -1.
</event>
<event>
 5    1  0.1245610E-004  0.9118800E+02  0.7818608E-02  0.1130116E+00
         25   -1    0    0    0    0  0.00000000000E+00  0.00000000000E+00  0.99999998245E-14  0.12500000000E+03  0.12500000000E+03 0.  0.
        -13    1    3    3    0    0 -0.43363997770E+02 -0.26476683392E+00 -0.73192406325E+01  0.43978277042E+02  0.10566000000E+00 0.  1.
         23    2    1    0    0    0 -0.52209358143E+01 -0.22532107634E+02  0.18715197711E+02  0.95247476232E+02  0.90481318834E+02 0.  0.
         13    1    3    3    0    0  0.38143061956E+02 -0.22267340800E+02  0.26034438344E+02  0.51269199190E+02  0.10566000000E+00 0. -1.
         22    1    1    0    0    0  0.52209358143E+01  0.22532107634E+02 -0.18715197711E+02  0.29752523768E+02  0.00000000000E+00 0. -1.
</event>
<event>
 5    1  0.1245610E-004  0.9118800E+02  0.7818608E-02  0.1130116E+00
         25   -1    0    0    0    0  0.00000000000E+00  0.00000000000E+00  0.99999998245E-14  0.12500000000E+03  0.12500000000E+03 0.  0.
        -13    1    3    3    0    0 -0.13791206990E+02  0.87902059266E+01 -0.51078031812E+02  0.53632467855E+02  0.10566000000E+00 0.  1.
         23    2    1    0    0    0  0.13468246747E+02 -0.88950173012E+01 -0.24742040449E+02  0.95458781867E+02  0.90772768310E+02 0.  0.
         13    1    3    3    0    0  0.27259453737E+02 -0.17685223228E+02  0.26335991363E+02  0.41826314011E+02  0.10566000000E+00 0. -1.
         22    1    1    0    0    0 -0.13468246747E+02  0.88950173012E+01  0.24742040449E+02  0.29541218133E+02  0.00000000000E+00 0. -1.
</event>
<event>
 5    1  0.1245610E-004  0.9118800E+02  0.7818608E-02  0.1130116E+00
         25   -1    0    0    0    0  0.00000000000E+00  0.00000000000E+00  0.99999998245E-14  0.12500000000E+03  0.12500000000E+03 0.  0.
        -13    1    3    3    0    0 -0.19171072909E+02 -0.22439903384E+02  0.50947570562E+02  0.58879074471E+02  0.10566000000E+00 0. -1.
         23    2    1    0    0    0 -0.13809278014E+02  0.36847627918E+01  0.25643160404E+02  0.95642797961E+02  0.91025817712E+02 0.  0.
         13    1    3    3    0    0  0.53617948948E+01  0.26124666176E+02 -0.25304410159E+02  0.36763723489E+02  0.10566000000E+00 0.  1.
         22    1    1    0    0    0  0.13809278014E+02 -0.36847627918E+01 -0.25643160404E+02  0.29357202039E+02  0.00000000000E+00 0. -1.
</event>
<event>
 5    1  0.1245610E-004  0.9118800E+02  0.7818608E-02  0.1130116E+00
         25   -1    0    0    0    0  0.00000000000E+00  0.00000000000E+00  0.99999998245E-14  0.12500000000E+03  0.12500000000E+03 0.  0.
        -13    1    3    3    0    0 -0.42495161532E+02 -0.13034551096E+02  0.17451711686E+01  0.44483649382E+02  0.10566000000E+00 0.  1.
         23    2    1    0    0    0 -0.21022779685E+00  0.11376538439E+02  0.24225188654E+02  0.98235665749E+02  0.94519397148E+02 0.  0.
         13    1    3    3    0    0  0.42284933735E+02  0.24411089536E+02  0.22480017486E+02  0.53752016367E+02  0.10566000000E+00 0. -1.
         22    1    1    0    0    0  0.21022779685E+00 -0.11376538439E+02 -0.24225188654E+02  0.26764334251E+02  0.00000000000E+00 0. -1.
</event>
<event>
 5    1  0.1245610E-004  0.9118800E+02  0.7818608E-02  0.1130116E+00
         25   -1    0    0    0    0  0.00000000000E+00  0.00000000000E+00  0.99999998245E-14  0.12500000000E+03  0.12500000000E+03 0.  0.
        -13    1    3    3    0    0  0.54568382253E+02  0.58092343140E-01  0.28901575035E+02  0.61749687610E+02  0.10566000000E+00 0. -1.
         23    2    1    0    0    0  0.26094935366E+02 -0.66821916217E+01  0.12353260727E+02  0.95365554043E+02  0.90644296625E+02 0.  0.
         13    1    3    3    0    0 -0.28473446887E+02 -0.67402839648E+01 -0.16548314308E+02  0.33615866433E+02  0.10566000000E+00 0.  1.
         22    1    1    0    0    0 -0.26094935366E+02  0.66821916217E+01 -0.12353260727E+02  0.29634445957E+02  0.00000000000E+00 0. -1.
</event>
<event>
 5    1  0.1245610E-004  0.9118800E+02  0.7818608E-02  0.1130116E+00
         25   -1    0    0    0    0  0.00000000000E+00  0.00000000000E+00  0.99999998245E-14  0.12500000000E+03  0.12500000000E+03 0.  0.
        -13    1    3    3    0    0  0.11809915546E+02  0.46024384851E+02  0.17028821302E+02  0.50474845469E+02  0.10566000000E+00 0.  1.
         23    2    1    0    0    0  0.29730687473E+02  0.10417549925E+02  0.14220680990E+02  0.90436046350E+02  0.83570398992E+02 0.  0.
         13    1    3    3    0    0  0.17920771927E+02 -0.35606834925E+02 -0.28081403124E+01  0.39961200882E+02  0.10566000000E+00 0. -1.
         22    1    1    0    0    0 -0.29730687473E+02 -0.10417549925E+02 -0.14220680990E+02  0.34563953650E+02  0.00000000000E+00 0. -1.
</event>
<event>
 5    1  0.1245610E-004  0.9118800E+02  0.7818608E-02  0.1130116E+00
         25   -1    0    0    0    0  0.00000000000E+00  0.00000000000E+00  0.99999998245E-14  0.12500000000E+03  0.12500000000E+03 0.  0.
        -13    1    3    3    0    0 -0.33253438303E+01  0.15992061770E+02 -0.31474568496E+02  0.35460732893E+02  0.10566000000E+00 0. -1.
         23    2    1    0    0    0 -0.15354610566E+02 -0.14506978746E+02  0.19620384907E+02  0.96169876832E+02  0.91746766745E+02 0.  0.
         13    1    3    3    0    0 -0.12029266736E+02 -0.30499040516E+02  0.51094953403E+02  0.60709143940E+02  0.10566000000E+00 0.  1.
         22    1    1    0    0    0  0.15354610566E+02  0.14506978746E+02 -0.19620384907E+02  0.28830123168E+02  0.00000000000E+00 0.  1.
</event>
<event>
 5    1  0.1245610E-004  0.9118800E+02  0.7818608E-02  0.1130116E+00
         25   -1    0    0    0    0  0.00000000000E+00  0.00000000000E+00  0.99999998245E-14  0.12500000000E+03  0.12500000000E+03 0.  0.
        -13    1    3    3    0    0  0.11822578963E+01  0.33220715996E+02  0.17576222827E+02  0.37602506272E+02  0.10566000000E+00 0.  1.
         23    2    1    0    0    0 -0.21950489779E+02 -0.18387986134E+02  0.18435524885E+01  0.96306085639E+02  0.91932156560E+02 0.  0.
         13    1    3    3    0    0 -0.23132747675E+02 -0.51608702130E+02 -0.15732670339E+02  0.58703579367E+02  0.10566000000E+00 0. -1.
         22    1    1    0    0    0  0.21950489779E+02  0.18387986134E+02 -0.18435524885E+01  0.28693914361E+02  0.00000000000E+00 0. -1.
</event>
<event>
 5    1  0.1245610E-004  0.9118800E+02  0.7818608E-02  0.1130116E+00
         25   -1    0    0    0    0  0.00000000000E+00  0.00000000000E+00  0.99999998245E-14  0.12500000000E+03  0.12500000000E+03 0.  0.
        -13    1    3    3    0    0 -0.14034856995E+02 -0.40688253794E+02  0.12436845507E+01  0.43058902947E+02  0.10566000000E+00 0. -1.
         23    2    1    0    0    0  0.28200123230E+02 -0.11636602974E+02  0.29625092730E+01  0.94349813375E+02  0.89232580057E+02 0.  0.
         13    1    3    3    0    0  0.42234980225E+02  0.29051650820E+02  0.17188247222E+01  0.51290910428E+02  0.10566000000E+00 0.  1.
         22    1    1    0    0    0 -0.28200123230E+02  0.11636602974E+02 -0.29625092730E+01  0.30650186625E+02  0.00000000000E+00 0. -1.
</event>
<event>
 5    1  0.1245610E-004  0.9118800E+02  0.7818608E-02  0.1130116E+00
         25   -1    0    0    0    0  0.00000000000E+00  0.00000000000E+00  0.99999998245E-14  0.12500000000E+03  0.12500000000E+03 0.  0.
        -13    1    3    3    0    0  0.62816570578E+01 -0.32136750848E+02  0.81886672173E+01  0.33753450273E+02  0.10566000000E+00 0. -1.
         23    2    1    0    0    0  0.49985552964E+01  0.25678167402E+02 -0.13556479024E+02  0.95535920857E+02  0.90878931631E+02 0.  0.
         13    1    3    3    0    0 -0.12831017614E+01  0.57814918251E+02 -0.21745146241E+02  0.61782470585E+02  0.10566000000E+00 0.  1.
         22    1    1    0    0    0 -0.49985552964E+01 -0.25678167402E+02  0.13556479024E+02  0.29464079143E+02  0.00000000000E+00 0.  1.
</event>
<event>
 4    1  0.1245610E-004  0.9118800E+02  0.7818608E-02  0.1130116E+00
         25   -1    0    0    0    0  0.00000000000E+00  0.00000000000E+00  0.99999998245E-14  0.12500000000E+03  0.12500000000E+03 0.  0.
        -13    1    1    0    0    0  0.82814420314E+01 -0.15536985766E+02 -0.40880215681E+01  0.18074935496E+02  0.10566000000E+00 0.  1.
         13    1    1    0    0    0  0.16075415701E+02 -0.14795691071E+02  0.45274966795E+02  0.50270918497E+02  0.10566000000E+00 0. -1.
         22    1    1    0    0    0 -0.24356857732E+02  0.30332676837E+02 -0.41186945227E+02  0.56654146007E+02  0.00000000000E+00 0. -1.
</event>
<event>
 5    1  0.1245610E-004  0.9118800E+02  0.7818608E-02  0.1130116E+00
         25   -1    0    0    0    0  0.00000000000E+00  0.00000000000E+00  0.99999998245E-14  0.12500000000E+03  0.12500000000E+03 0.  0.
        -13    1    3    3    0    0 -0.15327723014E+02 -0.33853309176E+02  0.37360289543E+02  0.52695237296E+02  0.10566000000E+00 0.  1.
         23    2    1    0    0    0 -0.29122629310E+02 -0.45061837961E+01  0.18354780059E+02  0.90282120149E+02  0.83339846635E+02 0.  0.
         13    1    3    3    0    0 -0.13794906296E+02  0.29347125380E+02 -0.19005509484E+02  0.37586882852E+02  0.10566000000E+00 0. -1.
         22    1    1    0    0    0  0.29122629310E+02  0.45061837961E+01 -0.18354780059E+02  0.34717879851E+02  0.00000000000E+00 0.  1.
</event>
<event>
 5    1  0.1245610E-004  0.9118800E+02  0.7818608E-02  0.1130116E+00
         25   -1    0    0    0    0  0.00000000000E+00  0.00000000000E+00  0.99999998245E-14  0.12500000000E+03  0.12500000000E+03 0.  0.
        -13    1    3    3    0    0  0.12058012348E+02 -0.24845925414E+02  0.21663087095E+02  0.35100088005E+02  0.10566000000E+00 0. -1.
         23    2    1    0    0    0  0.21296824023E+02  0.15743187976E+02 -0.18302539041E+02  0.92807056418E+02  0.87044609853E+02 0.  0.
         13    1    3    3    0    0  0.92388116752E+01  0.40589113390E+02 -0.39965626136E+02  0.57706968413E+02  0.10566000000E+00 0.  1.
         22    1    1    0    0    0 -0.21296824023E+02 -0.15743187976E+02  0.18302539041E+02  0.32192943582E+02  0.00000000000E+00 0.  1.
</event>
<event>
 5    1  0.1245610E-004  0.9118800E+02  0.7818608E-02  0.1130116E+00
         25   -1    0    0    0    0  0.00000000000E+00  0.00000000000E+00  0.99999998245E-14  0.12500000000E+03  0.12500000000E+03 0.  0.
        -13    1    3    3    0    0 -0.38502751292E+02  0.25828793697E+02  0.32286537193E+02  0.56497965351E+02  0.10566000000E+00 0. -1.
         23    2    1    0    0    0 -0.13066992619E+02  0.25750904601E+02  0.19921684259E+01  0.96054808363E+02  0.91589858012E+02 0.  0.
         13    1    3    3    0    0  0.25435758673E+02 -0.77889095283E-01 -0.30294368767E+02  0.39556843012E+02  0.10566000000E+00 0.  1.
         22    1    1    0    0    0  0.13066992619E+02 -0.25750904601E+02 -0.19921684259E+01  0.28945191637E+02  0.00000000000E+00 0. -1.
</event>
<event>
 5    1  0.1245610E-004  0.9118800E+02  0.7818608E-02  0.1130116E+00
         25   -1    0    0    0    0  0.00000000000E+00  0.00000000000E+00  0.99999998245E-14  0.12500000000E+03  0.12500000000E+03 0.  0.
        -13    1    3    3    0    0 -0.13692037822E+02 -0.31184997148E+02 -0.42026014484E+02  0.54094112474E+02  0.10566000000E+00 0. -1.
         23    2    1    0    0    0 -0.13485562704E+02 -0.25679540269E+02 -0.49342959282E+00  0.95990645256E+02  0.91502247590E+02 0.  0.
         13    1    3    3    0    0  0.20647511816E+00  0.55054568790E+01  0.41532584891E+02  0.41896532783E+02  0.10566000000E+00 0.  1.
         22    1    1    0    0    0  0.13485562704E+02  0.25679540269E+02  0.49342959282E+00  0.29009354744E+02  0.00000000000E+00 0. -1.
</event>
<event>
 5    1  0.1245610E-004  0.9118800E+02  0.7818608E-02  0.1130116E+00
         25   -1    0    0    0    0  0.00000000000E+00  0.00000000000E+00  0.99999998245E-14  0.12500000000E+03  0.12500000000E+03 0.  0.
        -13    1    3    3    0    0 -0.84070882365E+01  0.35260942918E+02 -0.49714828048E+02  0.61527136451E+02  0.10566000000E+00 0. -1.
         23    2    1    0    0    0  0.13771843811E+01  0.21395163991E+02 -0.20365745056E+02  0.95429520621E+02  0.90732464725E+02 0.  0.
         13    1    3    3    0    0  0.97842726176E+01 -0.13865778926E+02  0.29349082991E+02  0.33902384169E+02  0.10566000000E+00 0.  1.
         22    1    1    0    0    0 -0.13771843811E+01 -0.21395163991E+02  0.20365745056E+02  0.29570479379E+02  0.00000000000E+00 0. -1.
</event>
<event>
 5    1  0.1245610E-004  0.9118800E+02  0.7818608E-02  0.1130116E+00
         25   -1    0    0    0    0  0.00000000000E+00  0.00000000000E+00  0.99999998245E-14  0.12500000000E+03  0.12500000000E+03 0.  0.
        -13    1    3    3    0    0 -0.16249108298E+02  0.52003459991E+02  0.29926711413E+02  0.62161182353E+02  0.10566000000E+00 0.  1.
         23    2    1    0    0    0 -0.11666178567E+02  0.23458959526E+02  0.11959088898E+02  0.96199959867E+02  0.91787744098E+02 0.  0.
         13    1    3    3    0    0  0.45829297307E+01 -0.28544500465E+02 -0.17967622515E+02  0.34038777513E+02  0.10566000000E+00 0. -1.
         22    1    1    0    0    0  0.11666178567E+02 -0.23458959526E+02 -0.11959088898E+02  0.28800040133E+02  0.00000000000E+00 0.  1.
</event>
<event>
 5    1  0.1245610E-004  0.9118800E+02  0.7818608E-02  0.1130116E+00
         25   -1    0    0    0    0  0.00000000000E+00  0.00000000000E+00  0.99999998245E-14  0.12500000000E+03  0.12500000000E+03 0.  0.
        -13    1    3    3    0    0  0.41164116466E+02  0.31075215863E+02  0.54399767904E+01  0.51862877252E+02  0.10566000000E+00 0. -1.
         23    2    1    0    0    0  0.23259980041E+02  0.93509821251E+00 -0.19292277511E+02  0.94766028184E+02  0.89813735286E+02 0.  0.
         13    1    3    3    0    0 -0.17904136424E+02 -0.30140117650E+02 -0.24732254301E+02  0.42903150933E+02  0.10566000000E+00 0.  1.
         22    1    1    0    0    0 -0.23259980041E+02 -0.93509821251E+00  0.19292277511E+02  0.30233971816E+02  0.00000000000E+00 0. -1.
</event>
<event>
 5    1  0.1245610E-004  0.9118800E+02  0.7818608E-02  0.1130116E+00
         25   -1    0    0    0    0  0.00000000000E+00  0.00000000000E+00  0.99999998245E-14  0.12500000000E+03  0.12500000000E+03 0.  0.
        -13    1    3    3    0    0  0.96423528488E+01  0.40434152262E+02 -0.10483862773E+02  0.42869781668E+02  0.10566000000E+00 0.  1.
         23    2    1    0    0    0 -0.20063643395E+02 -0.61989263848E+01  0.98810040920E+01  0.10179201180E+03  0.99111063707E+02 0.  0.
         13    1    3    3    0    0 -0.29705996243E+02 -0.46633078646E+02  0.20364866865E+02  0.58922230129E+02  0.10566000000E+00 0. -1.
         22    1    1    0    0    0  0.20063643395E+02  0.61989263848E+01 -0.98810040920E+01  0.23207988204E+02  0.00000000000E+00 0.  1.
</event>
<event>
 5    1  0.1245610E-004  0.9118800E+02  0.7818608E-02  0.1130116E+00
         25   -1    0    0    0    0  0.00000000000E+00  0.00000000000E+00  0.99999998245E-14  0.12500000000E+03  0.12500000000E+03 0.  0.
        -13    1    3    3    0    0  0.14915420527E+02  0.14360868341E+02  0.30237471334E+02  0.36647239265E+02  0.10566000000E+00 0. -1.
         23    2    1    0    0    0 -0.95048552264E+01 -0.27424659850E+02 -0.36736262443E+01  0.95743380739E+02  0.91163837045E+02 0.  0.
         13    1    3    3    0    0 -0.24420275754E+02 -0.41785528191E+02 -0.33911097579E+02  0.59096141474E+02  0.10566000000E+00 0.  1.
         22    1    1    0    0    0  0.95048552264E+01  0.27424659850E+02  0.36736262443E+01  0.29256619261E+02  0.00000000000E+00 0.  1.
</event>
<event>
 5    1  0.1245610E-004  0.9118800E+02  0.7818608E-02  0.1130116E+00
         25   -1    0    0    0    0  0.00000000000E+00  0.00000000000E+00  0.99999998245E-14  0.12500000000E+03  0.12500000000E+03 0.  0.
        -13    1    3    3    0    0  0.27894336873E+01  0.44964701825E+02 -0.15987970795E+02  0.47804097363E+02  0.10566000000E+00 0.  1.
         23    2    1    0    0    0 -0.11838683697E+02  0.18059313056E+02  0.20351445436E+02  0.95327208573E+02  0.90591402148E+02 0.  0.
         13    1    3    3    0    0 -0.14628117384E+02 -0.26905388769E+02  0.36339416231E+02  0.47523111210E+02  0.10566000000E+00 0. -1.
         22    1    1    0    0    0  0.11838683697E+02 -0.18059313056E+02 -0.20351445436E+02  0.29672791427E+02  0.00000000000E+00 0.  1.
</event>
<event>
 5    1  0.1245610E-004  0.9118800E+02  0.7818608E-02  0.1130116E+00
         25   -1    0    0    0    0  0.00000000000E+00  0.00000000000E+00  0.99999998245E-14  0.12500000000E+03  0.12500000000E+03 0.  0.
        -13    1    3    3    0    0  0.21135508565E+02  0.12317835738E+01 -0.55725020198E+02  0.59611375199E+02  0.10566000000E+00 0. -1.
         23    2    1    0    0    0  0.85111674821E+01 -0.12619223501E+02 -0.21103453001E+02  0.98979998035E+02  0.95498688519E+02 0.  0.
         13    1    3    3    0    0 -0.12624341083E+02 -0.13851007075E+02  0.34621567197E+02  0.39368622836E+02  0.10566000000E+00 0.  1.
         22    1    1    0    0    0 -0.85111674821E+01  0.12619223501E+02  0.21103453001E+02  0.26020001965E+02  0.00000000000E+00 0. -1.
</event>
<event>
 5    1  0.1245610E-004  0.9118800E+02  0.7818608E-02  0.1130116E+00
         25   -1    0    0    0    0  0.00000000000E+00  0.00000000000E+00  0.99999998245E-14  0.12500000000E+03  0.12500000000E+03 0.  0.
        -13    1    3    3    0    0 -0.16230194432E+02 -0.30816820101E+01 -0.51153378715E+02  0.53754955989E+02  0.10566000000E+00 0.  1.
         23    2    1    0    0    0  0.33969221592E+01 -0.21702587589E+02 -0.28331997636E+02  0.89149707417E+02  0.81623690521E+02 0.  0.
         13    1    3    3    0    0  0.19627116592E+02 -0.18620905579E+02  0.22821381079E+02  0.35394751429E+02  0.10566000000E+00 0. -1.
         22    1    1    0    0    0 -0.33969221592E+01  0.21702587589E+02  0.28331997636E+02  0.35850292583E+02  0.00000000000E+00 0.  1.
</event>
<event>
 5    1  0.1245610E-004  0.9118800E+02  0.7818608E-02  0.1130116E+00
         25   -1    0    0    0    0  0.00000000000E+00  0.00000000000E+00  0.99999998245E-14  0.12500000000E+03  0.12500000000E+03 0.  0.
        -13    1    3    3    0    0  0.52162512354E+02  0.19419754812E+02  0.22304498006E+02  0.59962958294E+02  0.10566000000E+00 0.  1.
         23    2    1    0    0    0  0.28253853760E+02  0.91989664020E+01 -0.15451825166E+01  0.95246196476E+02  0.90479550833E+02 0.  0.
         13    1    3    3    0    0 -0.23908658595E+02 -0.10220788410E+02 -0.23849680523E+02  0.35283238182E+02  0.10566000000E+00 0. -1.
         22    1    1    0    0    0 -0.28253853760E+02 -0.91989664020E+01  0.15451825166E+01  0.29753803524E+02  0.00000000000E+00 0.  1.
</event>
<event>
 5    1  0.1245610E-004  0.9118800E+02  0.7818608E-02  0.1130116E+00
         25   -1    0    0    0    0  0.00000000000E+00  0.00000000000E+00  0.99999998245E-14  0.12500000000E+03  0.12500000000E+03 0.  0.
        -13    1    3    3    0    0  0.10572166483E+02  0.33103368607E+02  0.51072831668E+02  0.61774177582E+02  0.10566000000E+00 0. -1.
         23    2    1    0    0    0  0.82562030222E+01  0.19701443541E+02  0.19813062351E+02  0.95864639943E+02  0.91329951197E+02 0.  0.
         13    1    3    3    0    0 -0.23159634606E+01 -0.13401925066E+02 -0.31259769317E+02  0.34090462361E+02  0.10566000000E+00 0.  1.
         22    1    1    0    0    0 -0.82562030222E+01 -0.19701443541E+02 -0.19813062351E+02  0.29135360057E+02  0.00000000000E+00 0. -1.
</event>
<event>
 5    1  0.1245610E-004  0.9118800E+02  0.7818608E-02  0.1130116E+00
         25   -1    0    0    0    0  0.00000000000E+00  0.00000000000E+00  0.99999998245E-14  0.12500000000E+03  0.12500000000E+03 0.  0.
        -13    1    3    3    0    0 -0.14515340117E+02  0.43850288936E+02 -0.41099947282E+01  0.46372903286E+02  0.10566000000E+00 0. -1.
         23    2    1    0    0    0 -0.17366911312E+02  0.14681138592E+01 -0.25641146243E+02  0.93996236559E+02  0.88735895442E+02 0.  0.
         13    1    3    3    0    0 -0.28515711947E+01 -0.42382175076E+02 -0.21531151515E+02  0.47623333274E+02  0.10566000000E+00 0.  1.
         22    1    1    0    0    0  0.17366911312E+02 -0.14681138592E+01  0.25641146243E+02  0.31003763441E+02  0.00000000000E+00 0. -1.
</event>
<event>
 5    1  0.1245610E-004  0.9118800E+02  0.7818608E-02  0.1130116E+00
         25   -1    0    0    0    0  0.00000000000E+00  0.00000000000E+00  0.99999998245E-14  0.12500000000E+03  0.12500000000E+03 0.  0.
        -13    1    3    3    0    0 -0.25645724106E+02 -0.13052543183E+02 -0.34376244132E+02  0.44830897527E+02  0.10566000000E+00 0.  1.
         23    2    1    0    0    0  0.43733620636E+00 -0.29100206743E+02  0.57757862616E+01  0.95328919764E+02  0.90593763256E+02 0.  0.
         13    1    3    3    0    0  0.26083060313E+02 -0.16047663560E+02  0.40152030393E+02  0.50498022236E+02  0.10566000000E+00 0. -1.
         22    1    1    0    0    0 -0.43733620636E+00  0.29100206743E+02 -0.57757862616E+01  0.29671080236E+02  0.00000000000E+00 0. -1.
</event>
<event>
 5    1  0.1245610E-004  0.9118800E+02  0.7818608E-02  0.1130116E+00
         25   -1    0    0    0    0  0.00000000000E+00  0.00000000000E+00  0.99999998245E-14  0.12500000000E+03  0.12500000000E+03 0.  0.
        -13    1    3    3    0    0 -0.94734417703E+01  0.23553167766E+02  0.12256419982E+02  0.28190934813E+02  0.10566000000E+00 0. -1.
         23    2    1    0    0    0 -0.25134584867E+01 -0.33670478180E+02 -0.96902389974E+01  0.89872812435E+02  0.82723655074E+02 0.  0.
         13    1    3    3    0    0  0.69599832836E+01 -0.57223645946E+02 -0.21946658979E+02  0.61681877622E+02  0.10566000000E+00 0.  1.
         22    1    1    0    0    0  0.25134584867E+01  0.33670478180E+02  0.96902389974E+01  0.35127187565E+02  0.00000000000E+00 0.  1.
</event>
<event>
 5    1  0.1245610E-004  0.9118800E+02  0.7818608E-02  0.1130116E+00
         25   -1    0    0    0    0  0.00000000000E+00  0.00000000000E+00  0.99999998245E-14  0.12500000000E+03  0.12500000000E+03 0.  0.
        -13    1    3    3    0    0 -0.25795367216E+02  0.10384110448E+01  0.24232952241E+02  0.35407999176E+02  0.10566000000E+00 0. -1.
         23    2    1    0    0    0 -0.12912011511E+01  0.40733449680E+01 -0.29842022502E+02  0.94853596456E+02  0.89935527541E+02 0.  0.
         13    1    3    3    0    0  0.24504166065E+02  0.30349339232E+01 -0.54074974743E+02  0.59445597280E+02  0.10566000000E+00 0.  1.
         22    1    1    0    0    0  0.12912011511E+01 -0.40733449680E+01  0.29842022502E+02  0.30146403544E+02  0.00000000000E+00 0.  1.
</event>
<event>
 5    1  0.1245610E-004  0.9118800E+02  0.7818608E-02  0.1130116E+00
         25   -1    0    0    0    0  0.00000000000E+00  0.00000000000E+00  0.99999998245E-14  0.12500000000E+03  0.12500000000E+03 0.  0.
        -13    1    3    3    0    0 -0.25952024282E+02  0.25461231220E+02 -0.13636664862E+01  0.36382036912E+02  0.10566000000E+00 0.  1.
         23    2    1    0    0    0  0.28123912074E+02  0.18797498240E+01 -0.78737563667E+01  0.95734253315E+02  0.91151321047E+02 0.  0.
         13    1    3    3    0    0  0.54075936355E+02 -0.23581481396E+02 -0.65100898805E+01  0.59352216402E+02  0.10566000000E+00 0. -1.
         22    1    1    0    0    0 -0.28123912074E+02 -0.18797498240E+01  0.78737563667E+01  0.29265746685E+02  0.00000000000E+00 0. -1.
</event>
<event>
 5    1  0.1245610E-004  0.9118800E+02  0.7818608E-02  0.1130116E+00
         25   -1    0    0    0    0  0.00000000000E+00  0.00000000000E+00  0.99999998245E-14  0.12500000000E+03  0.12500000000E+03 0.  0.
        -13    1    3    3    0    0 -0.28227048840E+02  0.21651127750E+02  0.20369968809E+02  0.40993711863E+02  0.10566000000E+00 0.  1.
         23    2    1    0    0    0  0.13393432640E+02 -0.15764024983E+02  0.18902452982E+02  0.96978735748E+02  0.92842252973E+02 0.  0.
         13    1    3    3    0    0  0.41620481480E+02 -0.37415152732E+02 -0.14675158271E+01  0.55985023885E+02  0.10566000000E+00 0. -1.
         22    1    1    0    0    0 -0.13393432640E+02  0.15764024983E+02 -0.18902452982E+02  0.28021264252E+02  0.00000000000E+00 0. -1.
</event>
<event>
 5    1  0.1245610E-004  0.9118800E+02  0.7818608E-02  0.1130116E+00
         25   -1    0    0    0    0  0.00000000000E+00  0.00000000000E+00  0.99999998245E-14  0.12500000000E+03  0.12500000000E+03 0.  0.
        -13    1    3    3    0    0  0.25889074549E+02 -0.47602329847E+02  0.20130692915E+02  0.57805552927E+02  0.10566000000E+00 0.  1.
         23    2    1    0    0    0  0.26048680269E+02 -0.14688075741E+02  0.29064888031E+01  0.94954684393E+02  0.90075918526E+02 0.  0.
         13    1    3    3    0    0  0.15960572033E+00  0.32914254106E+02 -0.17224204112E+02  0.37149131466E+02  0.10566000000E+00 0. -1.
         22    1    1    0    0    0 -0.26048680269E+02  0.14688075741E+02 -0.29064888031E+01  0.30045315607E+02  0.00000000000E+00 0.  1.
</event>
<event>
 5    1  0.1245610E-004  0.9118800E+02  0.7818608E-02  0.1130116E+00
         25   -1    0    0    0    0  0.00000000000E+00  0.00000000000E+00  0.99999998245E-14  0.12500000000E+03  0.12500000000E+03 0.  0.
        -13    1    3    3    0    0 -0.36439653366E+02  0.20822035467E+02 -0.40582861262E+02  0.58381377945E+02  0.10566000000E+00 0.  1.
         23    2    1    0    0    0 -0.24702578767E+02  0.13223024253E+02 -0.50990861503E+01  0.96520771645E+02  0.92223602788E+02 0.  0.
         13    1    3    3    0    0  0.11737074599E+02 -0.75990112148E+01  0.35483775112E+02  0.38139393700E+02  0.10566000000E+00 0. -1.
         22    1    1    0    0    0  0.24702578767E+02 -0.13223024253E+02  0.50990861503E+01  0.28479228355E+02  0.00000000000E+00 0.  1.
</event>
<event>
 5    1  0.1245610E-004  0.9118800E+02  0.7818608E-02  0.1130116E+00
         25   -1    0    0    0    0  0.00000000000E+00  0.00000000000E+00  0.99999998245E-14  0.12500000000E+03  0.12500000000E+03 0.  0.
        -13    1    3    3    0    0  0.47912998798E+01 -0.25257790214E+01 -0.43539324401E+02  0.43875050399E+02  0.10566000000E+00 0. -1.
         23    2    1    0    0    0  0.24200128107E+02 -0.29692706523E+01  0.83110111175E+01  0.99240813786E+02  0.95839467061E+02 0.  0.
         13    1    3    3    0    0  0.19408828227E+02 -0.44349163086E+00  0.51850335519E+02  0.55365763387E+02  0.10566000000E+00 0.  1.
         22    1    1    0    0    0 -0.24200128107E+02  0.29692706523E+01 -0.83110111175E+01  0.25759186214E+02  0.00000000000E+00 0.  1.
</event>
<event>
 5    1  0.1245610E-004  0.9118800E+02  0.7818608E-02  0.1130116E+00
         25   -1    0    0    0    0  0.00000000000E+00  0.00000000000E+00  0.99999998245E-14  0.12500000000E+03  0.12500000000E+03 0.  0.
        -13    1    3    3    0    0 -0.48153212205E+02  0.42525137263E+01 -0.19538610489E+02  0.52140043944E+02  0.10566000000E+00 0.  1.
         23    2    1    0    0    0 -0.68836862535E+01  0.18755304376E+02 -0.21140037142E+02  0.95913100044E+02  0.91396252718E+02 0.  0.
         13    1    3    3    0    0  0.41269525952E+02  0.14502790650E+02 -0.16014266536E+01  0.43773056099E+02  0.10566000000E+00 0. -1.
         22    1    1    0    0    0  0.68836862535E+01 -0.18755304376E+02  0.21140037142E+02  0.29086899956E+02  0.00000000000E+00 0.  1.
</event>
<event>
 5    1  0.1245610E-004  0.9118800E+02  0.7818608E-02  0.1130116E+00
         25   -1    0    0    0    0  0.00000000000E+00  0.00000000000E+00  0.99999998245E-14  0.12500000000E+03  0.12500000000E+03 0.  0.
        -13    1    3    3    0    0 -0.28329691846E+02 -0.16273356598E+02  0.24758733564E+02  0.40992677721E+02  0.10566000000E+00 0. -1.
         23    2    1    0    0    0  0.10968105360E+02 -0.20308700779E+02 -0.15343037912E+02  0.97284454274E+02  0.93252954744E+02 0.  0.
         13    1    3    3    0    0  0.39297797206E+02 -0.40353441809E+01 -0.40101771476E+02  0.56291776553E+02  0.10566000000E+00 0.  1.
         22    1    1    0    0    0 -0.10968105360E+02  0.20308700779E+02  0.15343037912E+02  0.27715545726E+02  0.00000000000E+00 0.  1.
</event>
<event>
 5    1  0.1245610E-004  0.9118800E+02  0.7818608E-02  0.1130116E+00
         25   -1    0    0    0    0  0.00000000000E+00  0.00000000000E+00  0.99999998245E-14  0.12500000000E+03  0.12500000000E+03 0.  0.
        -13    1    3    3    0    0  0.35648638680E+02 -0.23059524140E+02  0.35305896207E+02  0.55218516499E+02  0.10566000000E+00 0.  1.
         23    2    1    0    0    0  0.14113243096E+02  0.96962856711E+01  0.23040075130E+02  0.96293787284E+02  0.91915432986E+02 0.  0.
         13    1    3    3    0    0 -0.21535395584E+02  0.32755809811E+02 -0.12265821077E+02  0.41075270785E+02  0.10566000000E+00 0. -1.
         22    1    1    0    0    0 -0.14113243096E+02 -0.96962856711E+01 -0.23040075130E+02  0.28706212716E+02  0.00000000000E+00 0.  1.
</event>
<event>
 5    1  0.1245610E-004  0.9118800E+02  0.7818608E-02  0.1130116E+00
         25   -1    0    0    0    0  0.00000000000E+00  0.00000000000E+00  0.99999998245E-14  0.12500000000E+03  0.12500000000E+03 0.  0.
        -13    1    3    3    0    0  0.35956299278E+02 -0.18206082645E+02  0.40659763817E+01  0.40507533016E+02  0.10566000000E+00 0.  1.
         23    2    1    0    0    0 -0.16044792062E+02 -0.22070187274E+02 -0.12172366472E+02  0.95121997655E+02  0.90307803725E+02 0.  0.
         13    1    3    3    0    0 -0.52001091340E+02 -0.38641046290E+01 -0.16238342854E+02  0.54614464639E+02  0.10566000000E+00 0. -1.
         22    1    1    0    0    0  0.16044792062E+02  0.22070187274E+02  0.12172366472E+02  0.29878002345E+02  0.00000000000E+00 0. -1.
</event>
<event>
 5    1  0.1245610E-004  0.9118800E+02  0.7818608E-02  0.1130116E+00
         25   -1    0    0    0    0  0.00000000000E+00  0.00000000000E+00  0.99999998245E-14  0.12500000000E+03  0.12500000000E+03 0.  0.
        -13    1    3    3    0    0 -0.55512750503E+02 -0.23378597065E+02 -0.31380403503E+01  0.60316521206E+02  0.10566000000E+00 0.  1.
         23    2    1    0    0    0 -0.25289668877E+02 -0.73132470148E+01 -0.12580120399E+02  0.95822776639E+02  0.91272636424E+02 0.  0.
         13    1    3    3    0    0  0.30223081626E+02  0.16065350050E+02 -0.94420800483E+01  0.35506255433E+02  0.10566000000E+00 0. -1.
         22    1    1    0    0    0  0.25289668877E+02  0.73132470148E+01  0.12580120399E+02  0.29177223361E+02  0.00000000000E+00 0.  1.
</event>
<event>
 5    1  0.1245610E-004  0.9118800E+02  0.7818608E-02  0.1130116E+00
         25   -1    0    0    0    0  0.00000000000E+00  0.00000000000E+00  0.99999998245E-14  0.12500000000E+03  0.12500000000E+03 0.  0.
        -13    1    3    3    0    0 -0.37964070823E+02  0.23313800451E+02  0.54334741370E+01  0.44881374424E+02  0.10566000000E+00 0.  1.
         23    2    1    0    0    0  0.21364068785E+00  0.18920108059E+02  0.29301691099E+02  0.90120131414E+02  0.83096527325E+02 0.  0.
         13    1    3    3    0    0  0.38177711511E+02 -0.43936923929E+01  0.23868216962E+02  0.45238756990E+02  0.10566000000E+00 0. -1.
         22    1    1    0    0    0 -0.21364068785E+00 -0.18920108059E+02 -0.29301691099E+02  0.34879868586E+02  0.00000000000E+00 0. -1.
</event>
<event>
 5    1  0.1245610E-004  0.9118800E+02  0.7818608E-02  0.1130116E+00
         25   -1    0    0    0    0  0.00000000000E+00  0.00000000000E+00  0.99999998245E-14  0.12500000000E+03  0.12500000000E+03 0.  0.
        -13    1    3    3    0    0 -0.58209921960E+01 -0.49882996190E+02  0.24152231009E+02  0.55727360298E+02  0.10566000000E+00 0.  1.
         23    2    1    0    0    0  0.13181284515E+02 -0.25586515458E+02 -0.19741195752E+01  0.96150161477E+02  0.91719901707E+02 0.  0.
         13    1    3    3    0    0  0.19002276711E+02  0.24296480732E+02 -0.26126350585E+02  0.40422801178E+02  0.10566000000E+00 0. -1.
         22    1    1    0    0    0 -0.13181284515E+02  0.25586515458E+02  0.19741195752E+01  0.28849838523E+02  0.00000000000E+00 0.  1.
</event>
<event>
 5    1  0.1245610E-004  0.9118800E+02  0.7818608E-02  0.1130116E+00
         25   -1    0    0    0    0  0.00000000000E+00  0.00000000000E+00  0.99999998245E-14  0.12500000000E+03  0.12500000000E+03 0.  0.
        -13    1    3    3    0    0 -0.51953370920E+02  0.19592584828E+02 -0.10476389890E+02  0.56504761209E+02  0.10566000000E+00 0.  1.
         23    2    1    0    0    0 -0.16544396245E+02  0.25845993625E+02  0.11384888009E+01  0.94291229424E+02  0.89150475915E+02 0.  0.
         13    1    3    3    0    0  0.35408974675E+02  0.62534087970E+01  0.11614878691E+02  0.37786468215E+02  0.10566000000E+00 0. -1.
         22    1    1    0    0    0  0.16544396245E+02 -0.25845993625E+02 -0.11384888009E+01  0.30708770576E+02  0.00000000000E+00 0.  1.
</event>
<event>
 5    1  0.1245610E-004  0.9118800E+02  0.7818608E-02  0.1130116E+00
         25   -1    0    0    0    0  0.00000000000E+00  0.00000000000E+00  0.99999998245E-14  0.12500000000E+03  0.12500000000E+03 0.  0.
        -13    1    3    3    0    0 -0.40270379924E+02 -0.18269558243E+02 -0.33077123358E+02  0.55223070463E+02  0.10566000000E+00 0.  1.
         23    2    1    0    0    0 -0.17506927263E+02 -0.22614607279E+02  0.94149172076E+00  0.96385329440E+02  0.92039841156E+02 0.  0.
         13    1    3    3    0    0  0.22763452661E+02 -0.43450490359E+01  0.34018615079E+02  0.41162258977E+02  0.10566000000E+00 0. -1.
         22    1    1    0    0    0  0.17506927263E+02  0.22614607279E+02 -0.94149172076E+00  0.28614670560E+02  0.00000000000E+00 0.  1.
</event>
<event>
 5    1  0.1245610E-004  0.9118800E+02  0.7818608E-02  0.1130116E+00
         25   -1    0    0    0    0  0.00000000000E+00  0.00000000000E+00  0.99999998245E-14  0.12500000000E+03  0.12500000000E+03 0.  0.
        -13    1    3    3    0    0  0.12533714860E+02 -0.45793663573E+02  0.67337445780E+01  0.47953186669E+02  0.10566000000E+00 0. -1.
         23    2    1    0    0    0 -0.87455800518E+01 -0.71949466802E+01  0.26442207847E+02  0.96234694787E+02  0.91835035236E+02 0.  0.
         13    1    3    3    0    0 -0.21279294912E+02  0.38598716893E+02  0.19708463269E+02  0.48281508118E+02  0.10566000000E+00 0.  1.
         22    1    1    0    0    0  0.87455800518E+01  0.71949466802E+01 -0.26442207847E+02  0.28765305213E+02  0.00000000000E+00 0.  1.
</event>
<event>
 5    1  0.1245610E-004  0.9118800E+02  0.7818608E-02  0.1130116E+00
         25   -1    0    0    0    0  0.00000000000E+00  0.00000000000E+00  0.99999998245E-14  0.12500000000E+03  0.12500000000E+03 0.  0.
        -13    1    3    3    0    0  0.11912682147E+02 -0.53622170878E+02 -0.55653062645E+01  0.55210805133E+02  0.10566000000E+00 0.  1.
         23    2    1    0    0    0  0.21407809322E+02 -0.16048771662E+02 -0.13896442909E+02  0.94850895579E+02  0.89931773555E+02 0.  0.
         13    1    3    3    0    0  0.94951271755E+01  0.37573399216E+02 -0.83311366448E+01  0.39640090446E+02  0.10566000000E+00 0. -1.
         22    1    1    0    0    0 -0.21407809322E+02  0.16048771662E+02  0.13896442909E+02  0.30149104421E+02  0.00000000000E+00 0.  1.
</event>
<event>
 5    1  0.1245610E-004  0.9118800E+02  0.7818608E-02  0.1130116E+00
         25   -1    0    0    0    0  0.00000000000E+00  0.00000000000E+00  0.99999998245E-14  0.12500000000E+03  0.12500000000E+03 0.  0.
        -13    1    3    3    0    0 -0.25663735526E+02  0.58448804524E+01 -0.25772878665E+02  0.36838056237E+02  0.10566000000E+00 0. -1.
         23    2    1    0    0    0  0.67695847441E+01 -0.25955213027E+02  0.11712749138E+02  0.95730752431E+02  0.91146519997E+02 0.  0.
         13    1    3    3    0    0  0.32433320270E+02 -0.31800093480E+02  0.37485627803E+02  0.58892696193E+02  0.10566000000E+00 0.  1.
         22    1    1    0    0    0 -0.67695847441E+01  0.25955213027E+02 -0.11712749138E+02  0.29269247569E+02  0.00000000000E+00 0.  1.
</event>
<event>
 5    1  0.1245610E-004  0.9118800E+02  0.7818608E-02  0.1130116E+00
         25   -1    0    0    0    0  0.00000000000E+00  0.00000000000E+00  0.99999998245E-14  0.12500000000E+03  0.12500000000E+03 0.  0.
        -13    1    3    3    0    0  0.13555331752E+02  0.41136994868E+02 -0.41070955578E+02  0.59689479155E+02  0.10566000000E+00 0.  1.
         23    2    1    0    0    0  0.99516544145E+01  0.26083536332E+02 -0.83930351872E+01  0.95848167590E+02  0.91307403301E+02 0.  0.
         13    1    3    3    0    0 -0.36036773374E+01 -0.15053458536E+02  0.32677920391E+02  0.36158688435E+02  0.10566000000E+00 0. -1.
         22    1    1    0    0    0 -0.99516544145E+01 -0.26083536332E+02  0.83930351872E+01  0.29151832410E+02  0.00000000000E+00 0.  1.
</event>
<event>
 5    1  0.1245610E-004  0.9118800E+02  0.7818608E-02  0.1130116E+00
         25   -1    0    0    0    0  0.00000000000E+00  0.00000000000E+00  0.99999998245E-14  0.12500000000E+03  0.12500000000E+03 0.  0.
        -13    1    3    3    0    0 -0.24349768437E+02 -0.38180311177E+02  0.37669393824E+02  0.58903665248E+02  0.10566000000E+00 0. -1.
         23    2    1    0    0    0 -0.14925261733E+02 -0.25064210921E+02  0.49237781389E+01  0.95415853941E+02  0.90713634506E+02 0.  0.
         13    1    3    3    0    0  0.94245067043E+01  0.13116100256E+02 -0.32745615685E+02  0.36512188693E+02  0.10566000000E+00 0.  1.
         22    1    1    0    0    0  0.14925261733E+02  0.25064210921E+02 -0.49237781389E+01  0.29584146059E+02  0.00000000000E+00 0.  1.
</event>
<event>
 5    1  0.1245610E-004  0.9118800E+02  0.7818608E-02  0.1130116E+00
         25   -1    0    0    0    0  0.00000000000E+00  0.00000000000E+00  0.99999998245E-14  0.12500000000E+03  0.12500000000E+03 0.  0.
        -13    1    3    3    0    0  0.10765220811E+02  0.29682853572E+02  0.36745502416E+01  0.31787973493E+02  0.10566000000E+00 0.  1.
         23    2    1    0    0    0  0.26038694408E+01 -0.25559318074E+02  0.22633642710E+02  0.90760539450E+02  0.84054356594E+02 0.  0.
         13    1    3    3    0    0 -0.81613513706E+01 -0.55242171645E+02  0.18959092468E+02  0.58972565957E+02  0.10566000000E+00 0. -1.
         22    1    1    0    0    0 -0.26038694408E+01  0.25559318074E+02 -0.22633642710E+02  0.34239460550E+02  0.00000000000E+00 0. -1.
</event>
<event>
 5    1  0.1245610E-004  0.9118800E+02  0.7818608E-02  0.1130116E+00
         25   -1    0    0    0    0  0.00000000000E+00  0.00000000000E+00  0.99999998245E-14  0.12500000000E+03  0.12500000000E+03 0.  0.
        -13    1    3    3    0    0  0.79341956323E+01  0.39255497716E+01  0.58629355472E+02  0.59293961652E+02  0.10566000000E+00 0.  1.
         23    2    1    0    0    0  0.55077050757E+01 -0.12175412524E+02  0.27520075576E+02  0.94407026215E+02  0.89312689769E+02 0.  0.
         13    1    3    3    0    0 -0.24264905566E+01 -0.16100962296E+02 -0.31109279896E+02  0.35113064562E+02  0.10566000000E+00 0. -1.
         22    1    1    0    0    0 -0.55077050757E+01  0.12175412524E+02 -0.27520075576E+02  0.30592973785E+02  0.00000000000E+00 0.  1.
</event>
<event>
 5    1  0.1245610E-004  0.9118800E+02  0.7818608E-02  0.1130116E+00
         25   -1    0    0    0    0  0.00000000000E+00  0.00000000000E+00  0.99999998245E-14  0.12500000000E+03  0.12500000000E+03 0.  0.
        -13    1    3    3    0    0  0.42509917651E+02  0.18423683036E+02  0.37129930646E+02  0.59373126152E+02  0.10566000000E+00 0.  1.
         23    2    1    0    0    0  0.14501482072E+02  0.20783918823E+02  0.12515751070E+02  0.96735034251E+02  0.92513558805E+02 0.  0.
         13    1    3    3    0    0 -0.28008435579E+02  0.23602357875E+01 -0.24614179576E+02  0.37361908099E+02  0.10566000000E+00 0. -1.
         22    1    1    0    0    0 -0.14501482072E+02 -0.20783918823E+02 -0.12515751070E+02  0.28264965749E+02  0.00000000000E+00 0.  1.
</event>
<event>
 5    1  0.1245610E-004  0.9118800E+02  0.7818608E-02  0.1130116E+00
         25   -1    0    0    0    0  0.00000000000E+00  0.00000000000E+00  0.99999998245E-14  0.12500000000E+03  0.12500000000E+03 0.  0.
        -13    1    3    3    0    0  0.16619048087E+02 -0.29254620656E+02 -0.18802548536E+01  0.33698250865E+02  0.10566000000E+00 0.  1.
         23    2    1    0    0    0  0.17274153501E+02  0.22533254388E+02  0.20358214754E+02  0.90062901659E+02  0.83010393415E+02 0.  0.
         13    1    3    3    0    0  0.65510541405E+00  0.51787875043E+02  0.22238469607E+02  0.56364650794E+02  0.10566000000E+00 0. -1.
         22    1    1    0    0    0 -0.17274153501E+02 -0.22533254388E+02 -0.20358214754E+02  0.34937098341E+02  0.00000000000E+00 0. -1.
</event>
<event>
 5    1  0.1245610E-004  0.9118800E+02  0.7818608E-02  0.1130116E+00
         25   -1    0    0    0    0  0.00000000000E+00  0.00000000000E+00  0.99999998245E-14  0.12500000000E+03  0.12500000000E+03 0.  0.
        -13    1    3    3    0    0  0.55651593181E+01  0.30753749990E+02 -0.12991858428E+02  0.33846176832E+02  0.10566000000E+00 0. -1.
         23    2    1    0    0    0 -0.10099845853E+02 -0.17001880000E+02  0.22251405318E+02  0.95230958222E+02  0.90458496314E+02 0.  0.
         13    1    3    3    0    0 -0.15665005172E+02 -0.47755629990E+02  0.35243263745E+02  0.61384781390E+02  0.10566000000E+00 0.  1.
         22    1    1    0    0    0  0.10099845853E+02  0.17001880000E+02 -0.22251405318E+02  0.29769041778E+02  0.00000000000E+00 0.  1.
</event>
<event>
 5    1  0.1245610E-004  0.9118800E+02  0.7818608E-02  0.1130116E+00
         25   -1    0    0    0    0  0.00000000000E+00  0.00000000000E+00  0.99999998245E-14  0.12500000000E+03  0.12500000000E+03 0.  0.
        -13    1    3    3    0    0  0.45913323001E+02  0.12712842397E+02 -0.24124269195E+02  0.53400759536E+02  0.10566000000E+00 0. -1.
         23    2    1    0    0    0  0.10447058931E+02 -0.84090596945E+01 -0.27074972549E+02  0.94785641430E+02  0.89841028252E+02 0.  0.
         13    1    3    3    0    0 -0.35466264070E+02 -0.21121902091E+02 -0.29507033545E+01  0.41384881894E+02  0.10566000000E+00 0.  1.
         22    1    1    0    0    0 -0.10447058931E+02  0.84090596945E+01  0.27074972549E+02  0.30214358570E+02  0.00000000000E+00 0. -1.
</event>
<event>
 5    1  0.1245610E-004  0.9118800E+02  0.7818608E-02  0.1130116E+00
         25   -1    0    0    0    0  0.00000000000E+00  0.00000000000E+00  0.99999998245E-14  0.12500000000E+03  0.12500000000E+03 0.  0.
        -13    1    3    3    0    0  0.36698311096E+02  0.39413180186E+02  0.28459601127E+02  0.60910794364E+02  0.10566000000E+00 0. -1.
         23    2    1    0    0    0  0.28470432625E+02  0.18966899230E+02  0.10883932762E+02  0.89100573923E+02  0.81548411884E+02 0.  0.
         13    1    3    3    0    0 -0.82278784707E+01 -0.20446280957E+02 -0.17575668365E+02  0.28189779559E+02  0.10566000000E+00 0.  1.
         22    1    1    0    0    0 -0.28470432625E+02 -0.18966899230E+02 -0.10883932762E+02  0.35899426077E+02  0.00000000000E+00 0. -1.
</event>
<event>
 5    1  0.1245610E-004  0.9118800E+02  0.7818608E-02  0.1130116E+00
         25   -1    0    0    0    0  0.00000000000E+00  0.00000000000E+00  0.99999998245E-14  0.12500000000E+03  0.12500000000E+03 0.  0.
        -13    1    3    3    0    0 -0.24417853405E+02 -0.16731137983E+02 -0.16263695899E+02  0.33773976838E+02  0.10566000000E+00 0. -1.
         23    2    1    0    0    0  0.16502091041E+02  0.24699743942E+02  0.30819175612E+01  0.95135395944E+02  0.90326347131E+02 0.  0.
         13    1    3    3    0    0  0.40919944446E+02  0.41430881925E+02  0.19345613461E+02  0.61361419106E+02  0.10566000000E+00 0.  1.
         22    1    1    0    0    0 -0.16502091041E+02 -0.24699743942E+02 -0.30819175612E+01  0.29864604056E+02  0.00000000000E+00 0.  1.
</event>
<event>
 5    1  0.1245610E-004  0.9118800E+02  0.7818608E-02  0.1130116E+00
         25   -1    0    0    0    0  0.00000000000E+00  0.00000000000E+00  0.99999998245E-14  0.12500000000E+03  0.12500000000E+03 0.  0.
        -13    1    3    3    0    0 -0.56800606253E+01  0.24259713295E+02 -0.54990862243E+02  0.60372202810E+02  0.10566000000E+00 0.  1.
         23    2    1    0    0    0 -0.12494915223E+02  0.54125264658E+01 -0.26502167646E+02  0.95204308380E+02  0.90421662753E+02 0.  0.
         13    1    3    3    0    0 -0.68148545974E+01 -0.18847186829E+02  0.28488694597E+02  0.34832105570E+02  0.10566000000E+00 0. -1.
         22    1    1    0    0    0  0.12494915223E+02 -0.54125264658E+01  0.26502167646E+02  0.29795691620E+02  0.00000000000E+00 0.  1.
</event>
<event>
 5    1  0.1245610E-004  0.9118800E+02  0.7818608E-02  0.1130116E+00
         25   -1    0    0    0    0  0.00000000000E+00  0.00000000000E+00  0.99999998245E-14  0.12500000000E+03  0.12500000000E+03 0.  0.
        -13    1    3    3    0    0  0.20712447626E+02  0.14930795193E+02 -0.56819258433E+02  0.62292643423E+02  0.10566000000E+00 0. -1.
         23    2    1    0    0    0  0.63494671584E+01  0.77766663874E+01 -0.27641830645E+02  0.95591445552E+02  0.90955271359E+02 0.  0.
         13    1    3    3    0    0 -0.14362980468E+02 -0.71541288051E+01  0.29177427788E+02  0.33298802129E+02  0.10566000000E+00 0.  1.
         22    1    1    0    0    0 -0.63494671584E+01 -0.77766663874E+01  0.27641830645E+02  0.29408554448E+02  0.00000000000E+00 0. -1.
</event>
<event>
 5    1  0.1245610E-004  0.9118800E+02  0.7818608E-02  0.1130116E+00
         25   -1    0    0    0    0  0.00000000000E+00  0.00000000000E+00  0.99999998245E-14  0.12500000000E+03  0.12500000000E+03 0.  0.
        -13    1    3    3    0    0 -0.25787218570E+02 -0.56142502405E+01 -0.26966867603E+02  0.37732261524E+02  0.10566000000E+00 0.  1.
         23    2    1    0    0    0 -0.14377121173E+02  0.34200712217E+02  0.13015983306E+01  0.87877439641E+02  0.79651490320E+02 0.  0.
         13    1    3    3    0    0  0.11410097397E+02  0.39814962458E+02  0.28268465934E+02  0.50145178117E+02  0.10566000000E+00 0. -1.
         22    1    1    0    0    0  0.14377121173E+02 -0.34200712217E+02 -0.13015983306E+01  0.37122560359E+02  0.00000000000E+00 0. -1.
</event>
<event>
 5    1  0.1245610E-004  0.9118800E+02  0.7818608E-02  0.1130116E+00
         25   -1    0    0    0    0  0.00000000000E+00  0.00000000000E+00  0.99999998245E-14  0.12500000000E+03  0.12500000000E+03 0.  0.
        -13    1    3    3    0    0  0.48543220564E+01 -0.42462323162E+02 -0.35091281509E+02  0.55299389987E+02  0.10566000000E+00 0.  1.
         23    2    1    0    0    0  0.19676583603E+02 -0.23606683079E+02 -0.48646983778E+01  0.93885554503E+02  0.88579843225E+02 0.  0.
         13    1    3    3    0    0  0.14822261546E+02  0.18855640082E+02  0.30226583131E+02  0.38586164516E+02  0.10566000000E+00 0. -1.
         22    1    1    0    0    0 -0.19676583603E+02  0.23606683079E+02  0.48646983778E+01  0.31114445497E+02  0.00000000000E+00 0.  1.
</event>
<event>
 5    1  0.1245610E-004  0.9118800E+02  0.7818608E-02  0.1130116E+00
         25   -1    0    0    0    0  0.00000000000E+00  0.00000000000E+00  0.99999998245E-14  0.12500000000E+03  0.12500000000E+03 0.  0.
        -13    1    3    3    0    0  0.23432761063E+02 -0.31272586832E+02  0.28842693068E+02  0.48569343064E+02  0.10566000000E+00 0.  1.
         23    2    1    0    0    0  0.17747043191E+02 -0.30583558012E+02 -0.10332828272E+02  0.88161448145E+02  0.80095955180E+02 0.  0.
         13    1    3    3    0    0 -0.56857178721E+01  0.68902881955E+00 -0.39175521340E+02  0.39592105081E+02  0.10566000000E+00 0. -1.
         22    1    1    0    0    0 -0.17747043191E+02  0.30583558012E+02  0.10332828272E+02  0.36838551855E+02  0.00000000000E+00 0.  1.
</event>
<event>
 5    1  0.1245610E-004  0.9118800E+02  0.7818608E-02  0.1130116E+00
         25   -1    0    0    0    0  0.00000000000E+00  0.00000000000E+00  0.99999998245E-14  0.12500000000E+03  0.12500000000E+03 0.  0.
        -13    1    3    3    0    0  0.27347079138E+02 -0.43208211150E+01  0.19153041632E+02  0.33665745206E+02  0.10566000000E+00 0. -1.
         23    2    1    0    0    0 -0.12884664040E+02  0.25677054871E+02 -0.13209464748E+02  0.93380137995E+02  0.87863726866E+02 0.  0.
         13    1    3    3    0    0 -0.40231743178E+02  0.29997875986E+02 -0.32362506380E+02  0.59714392789E+02  0.10566000000E+00 0.  1.
         22    1    1    0    0    0  0.12884664040E+02 -0.25677054871E+02  0.13209464748E+02  0.31619862005E+02  0.00000000000E+00 0.  1.
</event>
<event>
 5    1  0.1245610E-004  0.9118800E+02  0.7818608E-02  0.1130116E+00
         25   -1    0    0    0    0  0.00000000000E+00  0.00000000000E+00  0.99999998245E-14  0.12500000000E+03  0.12500000000E+03 0.  0.
        -13    1    3    3    0    0  0.43559156227E+02  0.10030216749E+02  0.21041280210E+02  0.49403967211E+02  0.10566000000E+00 0. -1.
         23    2    1    0    0    0  0.18090272607E+02  0.12279068568E+02 -0.18410949838E+02  0.96416848287E+02  0.92082637190E+02 0.  0.
         13    1    3    3    0    0 -0.25468883620E+02  0.22488518182E+01 -0.39452230048E+02  0.47012881077E+02  0.10566000000E+00 0.  1.
         22    1    1    0    0    0 -0.18090272607E+02 -0.12279068568E+02  0.18410949838E+02  0.28583151713E+02  0.00000000000E+00 0. -1.
</event>
<event>
 5    1  0.1245610E-004  0.9118800E+02  0.7818608E-02  0.1130116E+00
         25   -1    0    0    0    0  0.00000000000E+00  0.00000000000E+00  0.99999998245E-14  0.12500000000E+03  0.12500000000E+03 0.  0.
        -13    1    3    3    0    0  0.12820928241E+02 -0.34052090283E+02 -0.33132832337E+02  0.49210941835E+02  0.10566000000E+00 0. -1.
         23    2    1    0    0    0 -0.20498107841E+02 -0.21577848252E+02 -0.44576590302E+01  0.94906035750E+02  0.90008382596E+02 0.  0.
         13    1    3    3    0    0 -0.33319036082E+02  0.12474242031E+02  0.28675173307E+02  0.45695093915E+02  0.10566000000E+00 0.  1.
         22    1    1    0    0    0  0.20498107841E+02  0.21577848252E+02  0.44576590302E+01  0.30093964250E+02  0.00000000000E+00 0.  1.
</event>
<event>
 5    1  0.1245610E-004  0.9118800E+02  0.7818608E-02  0.1130116E+00
         25   -1    0    0    0    0  0.00000000000E+00  0.00000000000E+00  0.99999998245E-14  0.12500000000E+03  0.12500000000E+03 0.  0.
        -13    1    3    3    0    0 -0.13531899027E+02 -0.71577732530E+01 -0.29182070887E+02  0.32953762069E+02  0.10566000000E+00 0.  1.
         23    2    1    0    0    0 -0.91049513918E+00  0.13631410154E+02  0.27312633908E+02  0.94461101605E+02  0.89388340410E+02 0.  0.
         13    1    3    3    0    0  0.12621403888E+02  0.20789183407E+02  0.56494704795E+02  0.61507339536E+02  0.10566000000E+00 0. -1.
         22    1    1    0    0    0  0.91049513918E+00 -0.13631410154E+02 -0.27312633908E+02  0.30538898395E+02  0.00000000000E+00 0. -1.
</event>
<event>
 5    1  0.1245610E-004  0.9118800E+02  0.7818608E-02  0.1130116E+00
         25   -1    0    0    0    0  0.00000000000E+00  0.00000000000E+00  0.99999998245E-14  0.12500000000E+03  0.12500000000E+03 0.  0.
        -13    1    3    3    0    0  0.39740643814E+02 -0.44915556003E+02  0.13969138597E+02  0.61578193697E+02  0.10566000000E+00 0.  1.
         23    2    1    0    0    0  0.14445557346E+02 -0.15025828496E+02  0.12358792870E+02  0.10076800854E+03  0.97811053233E+02 0.  0.
         13    1    3    3    0    0 -0.25295086469E+02  0.29889727507E+02 -0.16103457275E+01  0.39189814841E+02  0.10566000000E+00 0. -1.
         22    1    1    0    0    0 -0.14445557346E+02  0.15025828496E+02 -0.12358792870E+02  0.24231991462E+02  0.00000000000E+00 0.  1.
</event>
<event>
 5    1  0.1245610E-004  0.9118800E+02  0.7818608E-02  0.1130116E+00
         25   -1    0    0    0    0  0.00000000000E+00  0.00000000000E+00  0.99999998245E-14  0.12500000000E+03  0.12500000000E+03 0.  0.
        -13    1    3    3    0    0 -0.23022222157E+02 -0.40832232874E+02 -0.25607371197E+02  0.53413880014E+02  0.10566000000E+00 0. -1.
         23    2    1    0    0    0  0.10474947451E+02 -0.15688587185E+02 -0.22822605293E+02  0.95390413641E+02  0.90678571947E+02 0.  0.
         13    1    3    3    0    0  0.33497169607E+02  0.25143645688E+02  0.27847659037E+01  0.41976533628E+02  0.10566000000E+00 0.  1.
         22    1    1    0    0    0 -0.10474947451E+02  0.15688587185E+02  0.22822605293E+02  0.29609586359E+02  0.00000000000E+00 0. -1.
</event>
<event>
 5    1  0.1245610E-004  0.9118800E+02  0.7818608E-02  0.1130116E+00
         25   -1    0    0    0    0  0.00000000000E+00  0.00000000000E+00  0.99999998245E-14  0.12500000000E+03  0.12500000000E+03 0.  0.
        -13    1    3    3    0    0  0.99775802454E+00  0.51820109692E+02  0.29302119805E+02  0.59539438011E+02  0.10566000000E+00 0.  1.
         23    2    1    0    0    0  0.90057559385E+01  0.27605661589E+02  0.36137251190E+01  0.95738503097E+02  0.91157148783E+02 0.  0.
         13    1    3    3    0    0  0.80079979140E+01 -0.24214448103E+02 -0.25688394686E+02  0.36199065086E+02  0.10566000000E+00 0. -1.
         22    1    1    0    0    0 -0.90057559385E+01 -0.27605661589E+02 -0.36137251190E+01  0.29261496903E+02  0.00000000000E+00 0.  1.
</event>
<event>
 5    1  0.1245610E-004  0.9118800E+02  0.7818608E-02  0.1130116E+00
         25   -1    0    0    0    0  0.00000000000E+00  0.00000000000E+00  0.99999998245E-14  0.12500000000E+03  0.12500000000E+03 0.  0.
        -13    1    3    3    0    0  0.28858271099E+02 -0.20630071328E+02  0.21839370926E+02  0.41657759665E+02  0.10566000000E+00 0.  1.
         23    2    1    0    0    0 -0.23450121342E+02 -0.14954306225E+02  0.72863241826E+01  0.96248826359E+02  0.91854268218E+02 0.  0.
         13    1    3    3    0    0 -0.52308392441E+02  0.56757651036E+01 -0.14553046744E+02  0.54591066694E+02  0.10566000000E+00 0. -1.
         22    1    1    0    0    0  0.23450121342E+02  0.14954306225E+02 -0.72863241826E+01  0.28751173641E+02  0.00000000000E+00 0. -1.
</event>
<event>
 5    1  0.1245610E-004  0.9118800E+02  0.7818608E-02  0.1130116E+00
         25   -1    0    0    0    0  0.00000000000E+00  0.00000000000E+00  0.99999998245E-14  0.12500000000E+03  0.12500000000E+03 0.  0.
        -13    1    3    3    0    0  0.42177005959E+02  0.22624265765E+02 -0.24683358455E+02  0.53851987723E+02  0.10566000000E+00 0. -1.
         23    2    1    0    0    0  0.39217169826E+01  0.27413797167E+02 -0.14558989357E+02  0.93713256636E+02  0.88336369402E+02 0.  0.
         13    1    3    3    0    0 -0.38255288976E+02  0.47895314020E+01  0.10124369098E+02  0.39861268913E+02  0.10566000000E+00 0.  1.
         22    1    1    0    0    0 -0.39217169826E+01 -0.27413797167E+02  0.14558989357E+02  0.31286743364E+02  0.00000000000E+00 0. -1.
</event>
<event>
 5    1  0.1245610E-004  0.9118800E+02  0.7818608E-02  0.1130116E+00
         25   -1    0    0    0    0  0.00000000000E+00  0.00000000000E+00  0.99999998245E-14  0.12500000000E+03  0.12500000000E+03 0.  0.
        -13    1    3    3    0    0  0.13980970195E+01  0.34095702853E+02  0.12923781181E+02  0.36489819298E+02  0.10566000000E+00 0. -1.
         23    2    1    0    0    0  0.16567487797E+02 -0.20925316019E+02 -0.77741678372E+01  0.97200931887E+02  0.93140930701E+02 0.  0.
         13    1    3    3    0    0  0.15169390777E+02 -0.55021018872E+02 -0.20697949018E+02  0.60711112590E+02  0.10566000000E+00 0.  1.
         22    1    1    0    0    0 -0.16567487797E+02  0.20925316019E+02  0.77741678372E+01  0.27799068113E+02  0.00000000000E+00 0.  1.
</event>
<event>
 5    1  0.1245610E-004  0.9118800E+02  0.7818608E-02  0.1130116E+00
         25   -1    0    0    0    0  0.00000000000E+00  0.00000000000E+00  0.99999998245E-14  0.12500000000E+03  0.12500000000E+03 0.  0.
        -13    1    3    3    0    0 -0.17483262568E+02  0.34819027702E+02 -0.19520347364E+02  0.43578484203E+02  0.10566000000E+00 0.  1.
         23    2    1    0    0    0 -0.76962419630E+01 -0.16901787317E+02 -0.21918142990E+02  0.96271833560E+02  0.91885572262E+02 0.  0.
         13    1    3    3    0    0  0.97870206047E+01 -0.51720815019E+02 -0.23977956263E+01  0.52693349357E+02  0.10566000000E+00 0. -1.
         22    1    1    0    0    0  0.76962419630E+01  0.16901787317E+02  0.21918142990E+02  0.28728166440E+02  0.00000000000E+00 0. -1.
</event>
<event>
 5    1  0.1245610E-004  0.9118800E+02  0.7818608E-02  0.1130116E+00
         25   -1    0    0    0    0  0.00000000000E+00  0.00000000000E+00  0.99999998245E-14  0.12500000000E+03  0.12500000000E+03 0.  0.
        -13    1    3    3    0    0 -0.36991006573E+02 -0.29510316695E+02  0.40717775252E+01  0.47495093378E+02  0.10566000000E+00 0. -1.
         23    2    1    0    0    0  0.11102546314E+01 -0.12124311119E+02 -0.24120669248E+02  0.97980779611E+02  0.94181712146E+02 0.  0.
         13    1    3    3    0    0  0.38101261205E+02  0.17386005576E+02 -0.28192446773E+02  0.50485686233E+02  0.10566000000E+00 0.  1.
         22    1    1    0    0    0 -0.11102546314E+01  0.12124311119E+02  0.24120669248E+02  0.27019220389E+02  0.00000000000E+00 0.  1.
</event>
<event>
 5    1  0.1245610E-004  0.9118800E+02  0.7818608E-02  0.1130116E+00
         25   -1    0    0    0    0  0.00000000000E+00  0.00000000000E+00  0.99999998245E-14  0.12500000000E+03  0.12500000000E+03 0.  0.
        -13    1    3    3    0    0 -0.43035253817E+02 -0.40729969509E+02 -0.14864233262E+02  0.61089443292E+02  0.10566000000E+00 0. -1.
         23    2    1    0    0    0 -0.15409657954E+02 -0.25574628802E+02 -0.21609556794E+01  0.95063585284E+02  0.90226915723E+02 0.  0.
         13    1    3    3    0    0  0.27625595862E+02  0.15155340707E+02  0.12703277582E+02  0.33974141991E+02  0.10566000000E+00 0.  1.
         22    1    1    0    0    0  0.15409657954E+02  0.25574628802E+02  0.21609556794E+01  0.29936414716E+02  0.00000000000E+00 0. -1.
</event>
<event>
 5    1  0.1245610E-004  0.9118800E+02  0.7818608E-02  0.1130116E+00
         25   -1    0    0    0    0  0.00000000000E+00  0.00000000000E+00  0.99999998245E-14  0.12500000000E+03  0.12500000000E+03 0.  0.
        -13    1    3    3    0    0 -0.37588107737E+02 -0.27946511519E+02 -0.32908973643E+02  0.57244083184E+02  0.10566000000E+00 0.  1.
         23    2    1    0    0    0 -0.10488318233E+01 -0.11118415063E+02 -0.24118245443E+02  0.98421644804E+02  0.94765031530E+02 0.  0.
         13    1    3    3    0    0  0.36539275913E+02  0.16828096456E+02  0.87907282008E+01  0.41177561620E+02  0.10566000000E+00 0. -1.
         22    1    1    0    0    0  0.10488318233E+01  0.11118415063E+02  0.24118245443E+02  0.26578355196E+02  0.00000000000E+00 0.  1.
</event>
<event>
 5    1  0.1245610E-004  0.9118800E+02  0.7818608E-02  0.1130116E+00
         25   -1    0    0    0    0  0.00000000000E+00  0.00000000000E+00  0.99999998245E-14  0.12500000000E+03  0.12500000000E+03 0.  0.
        -13    1    3    3    0    0  0.13925644400E+02  0.11788142320E+02  0.24859560592E+02  0.30836549550E+02  0.10566000000E+00 0.  1.
         23    2    1    0    0    0 -0.27583401216E+02  0.67432323292E+00 -0.18419449344E+02  0.91825087060E+02  0.85622846046E+02 0.  0.
         13    1    3    3    0    0 -0.41509045615E+02 -0.11113819088E+02 -0.43279009935E+02  0.60988537510E+02  0.10566000000E+00 0. -1.
         22    1    1    0    0    0  0.27583401216E+02 -0.67432323292E+00  0.18419449344E+02  0.33174912940E+02  0.00000000000E+00 0. -1.
</event>
<event>
 5    1  0.1245610E-004  0.9118800E+02  0.7818608E-02  0.1130116E+00
         25   -1    0    0    0    0  0.00000000000E+00  0.00000000000E+00  0.99999998245E-14  0.12500000000E+03  0.12500000000E+03 0.  0.
        -13    1    3    3    0    0  0.97069143558E+01  0.29265017744E+02  0.54124765038E+02  0.62290984936E+02  0.10566000000E+00 0.  1.
         23    2    1    0    0    0  0.53678349703E+01  0.18249312924E+02  0.26194901180E+02  0.92626802409E+02  0.86785370899E+02 0.  0.
         13    1    3    3    0    0 -0.43390793855E+01 -0.11015704821E+02 -0.27929863857E+02  0.30335817473E+02  0.10566000000E+00 0. -1.
         22    1    1    0    0    0 -0.53678349703E+01 -0.18249312924E+02 -0.26194901180E+02  0.32373197591E+02  0.00000000000E+00 0.  1.
</event>
<event>
 5    1  0.1245610E-004  0.9118800E+02  0.7818608E-02  0.1130116E+00
         25   -1    0    0    0    0  0.00000000000E+00  0.00000000000E+00  0.99999998245E-14  0.12500000000E+03  0.12500000000E+03 0.  0.
        -13    1    3    3    0    0  0.12127967982E+02  0.22701482588E+02 -0.24586087719E+02  0.35593985341E+02  0.10566000000E+00 0.  1.
         23    2    1    0    0    0 -0.33599751828E+01  0.33735825078E+01  0.29519383700E+02  0.95099088539E+02  0.90276088388E+02 0.  0.
         13    1    3    3    0    0 -0.15487943165E+02 -0.19327900080E+02  0.54105471420E+02  0.59505103198E+02  0.10566000000E+00 0. -1.
         22    1    1    0    0    0  0.33599751828E+01 -0.33735825078E+01 -0.29519383700E+02  0.29900911461E+02  0.00000000000E+00 0. -1.
</event>
<event>
 5    1  0.1245610E-004  0.9118800E+02  0.7818608E-02  0.1130116E+00
         25   -1    0    0    0    0  0.00000000000E+00  0.00000000000E+00  0.99999998245E-14  0.12500000000E+03  0.12500000000E+03 0.  0.
        -13    1    3    3    0    0 -0.34381836150E+02 -0.44207462016E+01 -0.23852526395E+02  0.42078591154E+02  0.10566000000E+00 0.  1.
         23    2    1    0    0    0 -0.35272583064E+01 -0.22313554572E+02  0.17306777738E+02  0.96541946229E+02  0.92252298384E+02 0.  0.
         13    1    3    3    0    0  0.30854577844E+02 -0.17892808370E+02  0.41159304133E+02  0.54463355075E+02  0.10566000000E+00 0. -1.
         22    1    1    0    0    0  0.35272583064E+01  0.22313554572E+02 -0.17306777738E+02  0.28458053771E+02  0.00000000000E+00 0.  1.
</event>
<event>
 5    1  0.1245610E-004  0.9118800E+02  0.7818608E-02  0.1130116E+00
         25   -1    0    0    0    0  0.00000000000E+00  0.00000000000E+00  0.99999998245E-14  0.12500000000E+03  0.12500000000E+03 0.  0.
        -13    1    3    3    0    0 -0.19721406060E+02 -0.41637571633E+01  0.57856458683E+02  0.61267052369E+02  0.10566000000E+00 0. -1.
         23    2    1    0    0    0 -0.16788860213E+02 -0.56976091499E+01  0.24660010511E+02  0.94628225345E+02  0.89621740311E+02 0.  0.
         13    1    3    3    0    0  0.29325458467E+01 -0.15338519867E+01 -0.33196448172E+02  0.33361172976E+02  0.10566000000E+00 0.  1.
         22    1    1    0    0    0  0.16788860213E+02  0.56976091499E+01 -0.24660010511E+02  0.30371774655E+02  0.00000000000E+00 0. -1.
</event>
<event>
 5    1  0.1245610E-004  0.9118800E+02  0.7818608E-02  0.1130116E+00
         25   -1    0    0    0    0  0.00000000000E+00  0.00000000000E+00  0.99999998245E-14  0.12500000000E+03  0.12500000000E+03 0.  0.
        -13    1    3    3    0    0 -0.44979689647E+02  0.42246116804E+02 -0.98830804411E+01  0.62494746250E+02  0.10566000000E+00 0.  1.
         23    2    1    0    0    0 -0.20537898420E+02  0.20012398784E+02 -0.48111710576E+01  0.95923398694E+02  0.91410336798E+02 0.  0.
         13    1    3    3    0    0  0.24441791227E+02 -0.22233718020E+02  0.50719093834E+01  0.33428652444E+02  0.10566000000E+00 0. -1.
         22    1    1    0    0    0  0.20537898420E+02 -0.20012398784E+02  0.48111710576E+01  0.29076601306E+02  0.00000000000E+00 0.  1.
</event>
<event>
 5    1  0.1245610E-004  0.9118800E+02  0.7818608E-02  0.1130116E+00
         25   -1    0    0    0    0  0.00000000000E+00  0.00000000000E+00  0.99999998245E-14  0.12500000000E+03  0.12500000000E+03 0.  0.
        -13    1    3    3    0    0  0.34016221524E+02  0.45194720854E+02 -0.15617032396E+02  0.58681930649E+02  0.10566000000E+00 0.  1.
         23    2    1    0    0    0  0.52215285223E+01  0.14889333181E+02 -0.18620395773E+02  0.10059353075E+03  0.97587820380E+02 0.  0.
         13    1    3    3    0    0 -0.28794693002E+02 -0.30305387673E+02 -0.30033633769E+01  0.41911600097E+02  0.10566000000E+00 0. -1.
         22    1    1    0    0    0 -0.52215285223E+01 -0.14889333181E+02  0.18620395773E+02  0.24406469254E+02  0.00000000000E+00 0.  1.
</event>
<event>
 5    1  0.1245610E-004  0.9118800E+02  0.7818608E-02  0.1130116E+00
         25   -1    0    0    0    0  0.00000000000E+00  0.00000000000E+00  0.99999998245E-14  0.12500000000E+03  0.12500000000E+03 0.  0.
        -13    1    3    3    0    0  0.19227327932E+02  0.37068329027E+02  0.37054013853E+02  0.55827970256E+02  0.10566000000E+00 0.  1.
         23    2    1    0    0    0  0.22822313726E+02  0.84094129845E+01  0.31436587746E+02  0.85252858220E+02  0.75420252950E+02 0.  0.
         13    1    3    3    0    0  0.35949857943E+01 -0.28658916043E+02 -0.56174261069E+01  0.29424887964E+02  0.10566000000E+00 0. -1.
         22    1    1    0    0    0 -0.22822313726E+02 -0.84094129845E+01 -0.31436587746E+02  0.39747141780E+02  0.00000000000E+00 0.  1.
</event>
<event>
 5    1  0.1245610E-004  0.9118800E+02  0.7818608E-02  0.1130116E+00
         25   -1    0    0    0    0  0.00000000000E+00  0.00000000000E+00  0.99999998245E-14  0.12500000000E+03  0.12500000000E+03 0.  0.
        -13    1    3    3    0    0  0.22138749936E+02  0.15609870200E+02 -0.38333041281E+02  0.46938529102E+02  0.10566000000E+00 0.  1.
         23    2    1    0    0    0 -0.19337667449E+02  0.17933722132E+02 -0.12982562478E+02  0.95604240095E+02  0.90972853224E+02 0.  0.
         13    1    3    3    0    0 -0.41476417385E+02  0.23238519323E+01  0.25350478803E+02  0.48665710993E+02  0.10566000000E+00 0. -1.
         22    1    1    0    0    0  0.19337667449E+02 -0.17933722132E+02  0.12982562478E+02  0.29395759905E+02  0.00000000000E+00 0.  1.
</event>
<event>
 5    1  0.1245610E-004  0.9118800E+02  0.7818608E-02  0.1130116E+00
         25   -1    0    0    0    0  0.00000000000E+00  0.00000000000E+00  0.99999998245E-14  0.12500000000E+03  0.12500000000E+03 0.  0.
        -13    1    3    3    0    0 -0.50754165907E+01  0.21430845711E+02  0.51986092119E+02  0.56458887160E+02  0.10566000000E+00 0.  1.
         23    2    1    0    0    0 -0.20957028905E+02  0.56031673793E+01  0.20194919996E+02  0.95361725103E+02  0.90639016300E+02 0.  0.
         13    1    3    3    0    0 -0.15881612314E+02 -0.15827678332E+02 -0.31791172123E+02  0.38902837943E+02  0.10566000000E+00 0. -1.
         22    1    1    0    0    0  0.20957028905E+02 -0.56031673793E+01 -0.20194919996E+02  0.29638274897E+02  0.00000000000E+00 0.  1.
</event>
<event>
 5    1  0.1245610E-004  0.9118800E+02  0.7818608E-02  0.1130116E+00
         25   -1    0    0    0    0  0.00000000000E+00  0.00000000000E+00  0.99999998245E-14  0.12500000000E+03  0.12500000000E+03 0.  0.
        -13    1    3    3    0    0  0.74136409012E+01 -0.43026671745E+02  0.36468893207E+02  0.56888029397E+02  0.10566000000E+00 0.  1.
         23    2    1    0    0    0 -0.90806032308E+01 -0.28092062220E+02  0.55844897994E+01  0.94953239091E+02  0.90073912831E+02 0.  0.
         13    1    3    3    0    0 -0.16494244132E+02  0.14934609525E+02 -0.30884403407E+02  0.38065209694E+02  0.10566000000E+00 0. -1.
         22    1    1    0    0    0  0.90806032308E+01  0.28092062220E+02 -0.55844897994E+01  0.30046760909E+02  0.00000000000E+00 0. -1.
</event>
<event>
 5    1  0.1245610E-004  0.9118800E+02  0.7818608E-02  0.1130116E+00
         25   -1    0    0    0    0  0.00000000000E+00  0.00000000000E+00  0.99999998245E-14  0.12500000000E+03  0.12500000000E+03 0.  0.
        -13    1    3    3    0    0 -0.27201898503E+02  0.23933038018E+02  0.24486210205E+02  0.43730072549E+02  0.10566000000E+00 0. -1.
         23    2    1    0    0    0 -0.14722582624E+02 -0.23839013572E+02  0.68958480729E+01  0.96145091789E+02  0.91712992248E+02 0.  0.
         13    1    3    3    0    0  0.12479315878E+02 -0.47772051590E+02 -0.17590362132E+02  0.52415019240E+02  0.10566000000E+00 0.  1.
         22    1    1    0    0    0  0.14722582624E+02  0.23839013572E+02 -0.68958480729E+01  0.28854908211E+02  0.00000000000E+00 0. -1.
</event>
<event>
 5    1  0.1245610E-004  0.9118800E+02  0.7818608E-02  0.1130116E+00
         25   -1    0    0    0    0  0.00000000000E+00  0.00000000000E+00  0.99999998245E-14  0.12500000000E+03  0.12500000000E+03 0.  0.
        -13    1    3    3    0    0 -0.42819516842E+01 -0.20137636616E+02 -0.27551470024E+02  0.34394100995E+02  0.10566000000E+00 0.  1.
         23    2    1    0    0    0 -0.13608699336E+02  0.15459870104E+02  0.21178505012E+02  0.95457939209E+02  0.90771607908E+02 0.  0.
         13    1    3    3    0    0 -0.93267476516E+01  0.35597506720E+02  0.48729975036E+02  0.61063838214E+02  0.10566000000E+00 0. -1.
         22    1    1    0    0    0  0.13608699336E+02 -0.15459870104E+02 -0.21178505012E+02  0.29542060791E+02  0.00000000000E+00 0. -1.
</event>
<event>
 5    1  0.1245610E-004  0.9118800E+02  0.7818608E-02  0.1130116E+00
         25   -1    0    0    0    0  0.00000000000E+00  0.00000000000E+00  0.99999998245E-14  0.12500000000E+03  0.12500000000E+03 0.  0.
        -13    1    3    3    0    0 -0.20076509788E+02 -0.13653652789E+02 -0.49859946022E+02  0.55457315668E+02  0.10566000000E+00 0.  1.
         23    2    1    0    0    0 -0.27944210379E+02  0.17510318840E+01 -0.17988226090E+02  0.91720557634E+02  0.85470108274E+02 0.  0.
         13    1    3    3    0    0 -0.78677005904E+01  0.15404684673E+02  0.31871719932E+02  0.36263241966E+02  0.10566000000E+00 0. -1.
         22    1    1    0    0    0  0.27944210379E+02 -0.17510318840E+01  0.17988226090E+02  0.33279442366E+02  0.00000000000E+00 0.  1.
</event>
<event>
 5    1  0.1245610E-004  0.9118800E+02  0.7818608E-02  0.1130116E+00
         25   -1    0    0    0    0  0.00000000000E+00  0.00000000000E+00  0.99999998245E-14  0.12500000000E+03  0.12500000000E+03 0.  0.
        -13    1    3    3    0    0  0.42801029638E+02  0.16541201378E+02  0.23192337921E+02  0.51414348030E+02  0.10566000000E+00 0. -1.
         23    2    1    0    0    0  0.23000110993E+02  0.82206304583E+01 -0.15785333012E+02  0.95918036360E+02  0.91403003726E+02 0.  0.
         13    1    3    3    0    0 -0.19800918645E+02 -0.83205709193E+01 -0.38977670933E+02  0.44503688330E+02  0.10566000000E+00 0.  1.
         22    1    1    0    0    0 -0.23000110993E+02 -0.82206304583E+01  0.15785333012E+02  0.29081963640E+02  0.00000000000E+00 0. -1.
</event>
<event>
 5    1  0.1245610E-004  0.9118800E+02  0.7818608E-02  0.1130116E+00
         25   -1    0    0    0    0  0.00000000000E+00  0.00000000000E+00  0.99999998245E-14  0.12500000000E+03  0.12500000000E+03 0.  0.
        -13    1    3    3    0    0  0.10516138103E+02 -0.27988791466E+01 -0.35376023592E+02  0.37012120911E+02  0.10566000000E+00 0. -1.
         23    2    1    0    0    0  0.13941541245E+02 -0.10479019977E+02  0.23080780554E+02  0.96070795674E+02  0.91611674576E+02 0.  0.
         13    1    3    3    0    0  0.34254031417E+01 -0.76801408304E+01  0.58456804146E+02  0.59058674764E+02  0.10566000000E+00 0.  1.
         22    1    1    0    0    0 -0.13941541245E+02  0.10479019977E+02 -0.23080780554E+02  0.28929204326E+02  0.00000000000E+00 0.  1.
</event>
<event>
 5    1  0.1245610E-004  0.9118800E+02  0.7818608E-02  0.1130116E+00
         25   -1    0    0    0    0  0.00000000000E+00  0.00000000000E+00  0.99999998245E-14  0.12500000000E+03  0.12500000000E+03 0.  0.
        -13    1    3    3    0    0  0.35983326623E+02  0.31054576933E+02  0.16988234258E+02  0.50475715058E+02  0.10566000000E+00 0. -1.
         23    2    1    0    0    0  0.25004367205E+02 -0.12204164984E+02  0.45517705134E+01  0.96806407872E+02  0.92609945297E+02 0.  0.
         13    1    3    3    0    0 -0.10978959417E+02 -0.43258741917E+02 -0.12436463744E+02  0.46330692814E+02  0.10566000000E+00 0.  1.
         22    1    1    0    0    0 -0.25004367205E+02  0.12204164984E+02 -0.45517705134E+01  0.28193592128E+02  0.00000000000E+00 0. -1.
</event>
<event>
 5    1  0.1245610E-004  0.9118800E+02  0.7818608E-02  0.1130116E+00
         25   -1    0    0    0    0  0.00000000000E+00  0.00000000000E+00  0.99999998245E-14  0.12500000000E+03  0.12500000000E+03 0.  0.
        -13    1    3    3    0    0  0.21510424550E+02 -0.32700134250E+02  0.38008076924E+02  0.54558429411E+02  0.10566000000E+00 0. -1.
         23    2    1    0    0    0  0.27255125206E+02 -0.97627651902E+01  0.43026400191E+01  0.95731140349E+02  0.91147051994E+02 0.  0.
         13    1    3    3    0    0  0.57447006558E+01  0.22937369060E+02 -0.33705436905E+02  0.41172710938E+02  0.10566000000E+00 0.  1.
         22    1    1    0    0    0 -0.27255125206E+02  0.97627651902E+01 -0.43026400191E+01  0.29268859651E+02  0.00000000000E+00 0. -1.
</event>
<event>
 5    1  0.1245610E-004  0.9118800E+02  0.7818608E-02  0.1130116E+00
         25   -1    0    0    0    0  0.00000000000E+00  0.00000000000E+00  0.99999998245E-14  0.12500000000E+03  0.12500000000E+03 0.  0.
        -13    1    3    3    0    0  0.37580210662E+02  0.28408479839E+01  0.21334338579E+02  0.43307133562E+02  0.10566000000E+00 0.  1.
         23    2    1    0    0    0 -0.52386643812E+01 -0.25462110302E+02  0.14901781140E+02  0.95036259468E+02  0.90189050704E+02 0.  0.
         13    1    3    3    0    0 -0.42818875044E+02 -0.28302958286E+02 -0.64325574386E+01  0.51729125906E+02  0.10566000000E+00 0. -1.
         22    1    1    0    0    0  0.52386643812E+01  0.25462110302E+02 -0.14901781140E+02  0.29963740532E+02  0.00000000000E+00 0. -1.
</event>
<event>
 5    1  0.1245610E-004  0.9118800E+02  0.7818608E-02  0.1130116E+00
         25   -1    0    0    0    0  0.00000000000E+00  0.00000000000E+00  0.99999998245E-14  0.12500000000E+03  0.12500000000E+03 0.  0.
        -13    1    3    3    0    0 -0.44554015476E+02  0.16924307849E+02 -0.11756816243E+02  0.49088963968E+02  0.10566000000E+00 0. -1.
         23    2    1    0    0    0 -0.34318891412E+02 -0.16329942922E+02  0.29849989343E+01  0.86876994318E+02  0.78065668379E+02 0.  0.
         13    1    3    3    0    0  0.10235124064E+02 -0.33254250771E+02  0.14741815177E+02  0.37788030350E+02  0.10566000000E+00 0.  1.
         22    1    1    0    0    0  0.34318891412E+02  0.16329942922E+02 -0.29849989343E+01  0.38123005682E+02  0.00000000000E+00 0. -1.
</event>
<event>
 5    1  0.1245610E-004  0.9118800E+02  0.7818608E-02  0.1130116E+00
         25   -1    0    0    0    0  0.00000000000E+00  0.00000000000E+00  0.99999998245E-14  0.12500000000E+03  0.12500000000E+03 0.  0.
        -13    1    3    3    0    0 -0.36526550368E+02 -0.26385114588E+02 -0.53253221310E+01  0.45373267168E+02  0.10566000000E+00 0.  1.
         23    2    1    0    0    0  0.28295591701E+01 -0.72113381502E+01 -0.28888987689E+02  0.95090412696E+02  0.90264074658E+02 0.  0.
         13    1    3    3    0    0  0.39356109538E+02  0.19173776438E+02 -0.23563665558E+02  0.49717145528E+02  0.10566000000E+00 0. -1.
         22    1    1    0    0    0 -0.28295591701E+01  0.72113381502E+01  0.28888987689E+02  0.29909587304E+02  0.00000000000E+00 0. -1.
</event>
<event>
 5    1  0.1245610E-004  0.9118800E+02  0.7818608E-02  0.1130116E+00
         25   -1    0    0    0    0  0.00000000000E+00  0.00000000000E+00  0.99999998245E-14  0.12500000000E+03  0.12500000000E+03 0.  0.
        -13    1    3    3    0    0  0.30648457814E+02  0.72909826214E+01 -0.52941164156E+02  0.61605717431E+02  0.10566000000E+00 0. -1.
         23    2    1    0    0    0  0.78880283696E+01  0.47782657388E+01 -0.28258633295E+02  0.95274536660E+02  0.90518695114E+02 0.  0.
         13    1    3    3    0    0 -0.22760429444E+02 -0.25127168826E+01  0.24682530860E+02  0.33668819230E+02  0.10566000000E+00 0.  1.
         22    1    1    0    0    0 -0.78880283696E+01 -0.47782657388E+01  0.28258633295E+02  0.29725463340E+02  0.00000000000E+00 0. -1.
</event>
<event>
 5    1  0.1245610E-004  0.9118800E+02  0.7818608E-02  0.1130116E+00
         25   -1    0    0    0    0  0.00000000000E+00  0.00000000000E+00  0.99999998245E-14  0.12500000000E+03  0.12500000000E+03 0.  0.
        -13    1    3    3    0    0  0.16856341990E+02 -0.34106689271E+02  0.53649652245E+00  0.38048672918E+02  0.10566000000E+00 0.  1.
         23    2    1    0    0    0 -0.13678756782E+02  0.15806546555E+02 -0.15797621194E+02  0.98798470722E+02  0.95260787739E+02 0.  0.
         13    1    3    3    0    0 -0.30535098772E+02  0.49913235826E+02 -0.16334117716E+02  0.60749797804E+02  0.10566000000E+00 0. -1.
         22    1    1    0    0    0  0.13678756782E+02 -0.15806546555E+02  0.15797621194E+02  0.26201529278E+02  0.00000000000E+00 0. -1.
</event>
<event>
 5    1  0.1245610E-004  0.9118800E+02  0.7818608E-02  0.1130116E+00
         25   -1    0    0    0    0  0.00000000000E+00  0.00000000000E+00  0.99999998245E-14  0.12500000000E+03  0.12500000000E+03 0.  0.
        -13    1    3    3    0    0  0.25410176655E+02  0.25229468686E+02  0.34567499732E+02  0.49770738085E+02  0.10566000000E+00 0.  1.
         23    2    1    0    0    0 -0.59379719455E+01 -0.84836814535E+01  0.26553354924E+02  0.96498894415E+02  0.92193945592E+02 0.  0.
         13    1    3    3    0    0 -0.31348148600E+02 -0.33713150139E+02 -0.80141448080E+01  0.46728156330E+02  0.10566000000E+00 0. -1.
         22    1    1    0    0    0  0.59379719455E+01  0.84836814535E+01 -0.26553354924E+02  0.28501105585E+02  0.00000000000E+00 0. -1.
</event>
<event>
 5    1  0.1245610E-004  0.9118800E+02  0.7818608E-02  0.1130116E+00
         25   -1    0    0    0    0  0.00000000000E+00  0.00000000000E+00  0.99999998245E-14  0.12500000000E+03  0.12500000000E+03 0.  0.
        -13    1    3    3    0    0  0.30018995784E+02 -0.23872086633E+02  0.17468469787E+02  0.42144693958E+02  0.10566000000E+00 0.  1.
         23    2    1    0    0    0  0.13138823414E+02  0.27047140693E+01 -0.25956327604E+02  0.95782281034E+02  0.91217159890E+02 0.  0.
         13    1    3    3    0    0 -0.16880172370E+02  0.26576800702E+02 -0.43424797391E+02  0.53637587076E+02  0.10566000000E+00 0. -1.
         22    1    1    0    0    0 -0.13138823414E+02 -0.27047140693E+01  0.25956327604E+02  0.29217718966E+02  0.00000000000E+00 0. -1.
</event>
<event>
 5    1  0.1245610E-004  0.9118800E+02  0.7818608E-02  0.1130116E+00
         25   -1    0    0    0    0  0.00000000000E+00  0.00000000000E+00  0.99999998245E-14  0.12500000000E+03  0.12500000000E+03 0.  0.
        -13    1    3    3    0    0  0.90620835712E+01  0.12974856339E+02 -0.12815584167E+02  0.20364641349E+02  0.10566000000E+00 0.  1.
         23    2    1    0    0    0  0.38297207996E+02 -0.25649650757E+02  0.15373217658E+02  0.76410736315E+02  0.58971892278E+02 0.  0.
         13    1    3    3    0    0  0.29235124425E+02 -0.38624507096E+02  0.28188801826E+02  0.56046094966E+02  0.10566000000E+00 0. -1.
         22    1    1    0    0    0 -0.38297207996E+02  0.25649650757E+02 -0.15373217658E+02  0.48589263685E+02  0.00000000000E+00 0. -1.
</event>
<event>
 5    1  0.1245610E-004  0.9118800E+02  0.7818608E-02  0.1130116E+00
         25   -1    0    0    0    0  0.00000000000E+00  0.00000000000E+00  0.99999998245E-14  0.12500000000E+03  0.12500000000E+03 0.  0.
        -13    1    3    3    0    0  0.27934481362E+02 -0.23400407790E+02 -0.15213277529E+02  0.39488850463E+02  0.10566000000E+00 0.  1.
         23    2    1    0    0    0 -0.75381916229E+01 -0.10126133020E+02  0.26387341801E+02  0.95748423800E+02  0.91170751614E+02 0.  0.
         13    1    3    3    0    0 -0.35472672985E+02  0.13274274770E+02  0.41600619330E+02  0.56259573337E+02  0.10566000000E+00 0. -1.
         22    1    1    0    0    0  0.75381916229E+01  0.10126133020E+02 -0.26387341801E+02  0.29251576200E+02  0.00000000000E+00 0. -1.
</event>
<event>
 5    1  0.1245610E-004  0.9118800E+02  0.7818608E-02  0.1130116E+00
         25   -1    0    0    0    0  0.00000000000E+00  0.00000000000E+00  0.99999998245E-14  0.12500000000E+03  0.12500000000E+03 0.  0.
        -13    1    3    3    0    0 -0.96490419873E+01 -0.66228345887E+01 -0.38058875965E+02  0.39817774335E+02  0.10566000000E+00 0.  1.
         23    2    1    0    0    0 -0.99111855827E+01  0.28195721537E+02  0.44679949145E+01  0.94780911807E+02  0.89834447468E+02 0.  0.
         13    1    3    3    0    0 -0.26214359538E+00  0.34818556125E+02  0.42526870880E+02  0.54963137472E+02  0.10566000000E+00 0. -1.
         22    1    1    0    0    0  0.99111855827E+01 -0.28195721537E+02 -0.44679949145E+01  0.30219088193E+02  0.00000000000E+00 0. -1.
</event>
<event>
 5    1  0.1245610E-004  0.9118800E+02  0.7818608E-02  0.1130116E+00
         25   -1    0    0    0    0  0.00000000000E+00  0.00000000000E+00  0.99999998245E-14  0.12500000000E+03  0.12500000000E+03 0.  0.
        -13    1    3    3    0    0 -0.19559089080E+02 -0.11799692829E+02 -0.28781133613E+02  0.36744462611E+02  0.10566000000E+00 0.  1.
         23    2    1    0    0    0  0.36257063053E+01 -0.12820726709E+02  0.25749279537E+02  0.96007894588E+02  0.91525808639E+02 0.  0.
         13    1    3    3    0    0  0.23184795386E+02 -0.10210338805E+01  0.54530413150E+02  0.59263431976E+02  0.10566000000E+00 0. -1.
         22    1    1    0    0    0 -0.36257063053E+01  0.12820726709E+02 -0.25749279537E+02  0.28992105412E+02  0.00000000000E+00 0. -1.
</event>
<event>
 5    1  0.1245610E-004  0.9118800E+02  0.7818608E-02  0.1130116E+00
         25   -1    0    0    0    0  0.00000000000E+00  0.00000000000E+00  0.99999998245E-14  0.12500000000E+03  0.12500000000E+03 0.  0.
        -13    1    3    3    0    0  0.22100746794E+02 -0.60693910232E+01 -0.56395005711E+02  0.60874365290E+02  0.10566000000E+00 0.  1.
         23    2    1    0    0    0  0.17381730499E+01 -0.83447839453E+01 -0.26854094117E+02  0.96825560600E+02  0.92635793028E+02 0.  0.
         13    1    3    3    0    0 -0.20362573744E+02 -0.22753929222E+01  0.29540911593E+02  0.35951195310E+02  0.10566000000E+00 0. -1.
         22    1    1    0    0    0 -0.17381730499E+01  0.83447839453E+01  0.26854094117E+02  0.28174439400E+02  0.00000000000E+00 0.  1.
</event>
<event>
 5    1  0.1245610E-004  0.9118800E+02  0.7818608E-02  0.1130116E+00
         25   -1    0    0    0    0  0.00000000000E+00  0.00000000000E+00  0.99999998245E-14  0.12500000000E+03  0.12500000000E+03 0.  0.
        -13    1    3    3    0    0 -0.13018577822E+02 -0.30800678575E+02 -0.16747145887E+02  0.37398438852E+02  0.10566000000E+00 0.  1.
         23    2    1    0    0    0  0.29939272321E+01  0.34174216048E+01  0.28383738988E+02  0.96254930690E+02  0.91862574929E+02 0.  0.
         13    1    3    3    0    0  0.16012505054E+02  0.34218100179E+02  0.45130884874E+02  0.58856491839E+02  0.10566000000E+00 0. -1.
         22    1    1    0    0    0 -0.29939272321E+01 -0.34174216048E+01 -0.28383738988E+02  0.28745069310E+02  0.00000000000E+00 0. -1.
</event>
<event>
 5    1  0.1245610E-004  0.9118800E+02  0.7818608E-02  0.1130116E+00
         25   -1    0    0    0    0  0.00000000000E+00  0.00000000000E+00  0.99999998245E-14  0.12500000000E+03  0.12500000000E+03 0.  0.
        -13    1    3    3    0    0 -0.32462720056E+02  0.87240046259E+00 -0.22368163396E+02  0.39432666329E+02  0.10566000000E+00 0.  1.
         23    2    1    0    0    0  0.27468929014E+01  0.25569812638E+02  0.13967182834E+02  0.95734953694E+02  0.91152281505E+02 0.  0.
         13    1    3    3    0    0  0.35209612958E+02  0.24697412176E+02  0.36335346231E+02  0.56302287365E+02  0.10566000000E+00 0. -1.
         22    1    1    0    0    0 -0.27468929014E+01 -0.25569812638E+02 -0.13967182834E+02  0.29265046306E+02  0.00000000000E+00 0. -1.
</event>
<event>
 5    1  0.1245610E-004  0.9118800E+02  0.7818608E-02  0.1130116E+00
         25   -1    0    0    0    0  0.00000000000E+00  0.00000000000E+00  0.99999998245E-14  0.12500000000E+03  0.12500000000E+03 0.  0.
        -13    1    3    3    0    0 -0.48041108134E-01 -0.53661529972E+02 -0.31219594741E+02  0.62082496460E+02  0.10566000000E+00 0.  1.
         23    2    1    0    0    0 -0.15429295997E+01 -0.27357610983E+02 -0.10290097845E+02  0.95730465940E+02  0.91146127098E+02 0.  0.
         13    1    3    3    0    0 -0.14948884916E+01  0.26303918989E+02  0.20929496896E+02  0.33647969480E+02  0.10566000000E+00 0. -1.
         22    1    1    0    0    0  0.15429295997E+01  0.27357610983E+02  0.10290097845E+02  0.29269534060E+02  0.00000000000E+00 0.  1.
</event>
<event>
 5    1  0.1245610E-004  0.9118800E+02  0.7818608E-02  0.1130116E+00
         25   -1    0    0    0    0  0.00000000000E+00  0.00000000000E+00  0.99999998245E-14  0.12500000000E+03  0.12500000000E+03 0.  0.
        -13    1    3    3    0    0 -0.40624744013E+02 -0.11992200982E+02 -0.98116616582E+01  0.43479450078E+02  0.10566000000E+00 0. -1.
         23    2    1    0    0    0 -0.73164508510E+01  0.27955786348E+02 -0.43320097256E+01  0.95779754422E+02  0.91213697466E+02 0.  0.
         13    1    3    3    0    0  0.33308293162E+02  0.39947987330E+02  0.54796519326E+01  0.52300304344E+02  0.10566000000E+00 0.  1.
         22    1    1    0    0    0  0.73164508510E+01 -0.27955786348E+02  0.43320097256E+01  0.29220245578E+02  0.00000000000E+00 0.  1.
</event>
<event>
 5    1  0.1245610E-004  0.9118800E+02  0.7818608E-02  0.1130116E+00
         25   -1    0    0    0    0  0.00000000000E+00  0.00000000000E+00  0.99999998245E-14  0.12500000000E+03  0.12500000000E+03 0.  0.
        -13    1    3    3    0    0 -0.24589867118E+02 -0.96588109788E+01 -0.30960419274E+02  0.40700281572E+02  0.10566000000E+00 0.  1.
         23    2    1    0    0    0 -0.58565137267E+01  0.28895373384E+02  0.29687141712E+01  0.95368013568E+02  0.90647688289E+02 0.  0.
         13    1    3    3    0    0  0.18733353391E+02  0.38554184363E+02  0.33929133446E+02  0.54667731996E+02  0.10566000000E+00 0. -1.
         22    1    1    0    0    0  0.58565137267E+01 -0.28895373384E+02 -0.29687141712E+01  0.29631986432E+02  0.00000000000E+00 0. -1.
</event>
<event>
 5    1  0.1245610E-004  0.9118800E+02  0.7818608E-02  0.1130116E+00
         25   -1    0    0    0    0  0.00000000000E+00  0.00000000000E+00  0.99999998245E-14  0.12500000000E+03  0.12500000000E+03 0.  0.
        -13    1    3    3    0    0 -0.35423055693E+01  0.11361792432E+02 -0.39039940946E+02  0.40813801699E+02  0.10566000000E+00 0. -1.
         23    2    1    0    0    0  0.23333868586E+02  0.14141869580E+02  0.92841852660E+01  0.96178862020E+02  0.91759007759E+02 0.  0.
         13    1    3    3    0    0  0.26876174156E+02  0.27800771485E+01  0.48324126212E+02  0.55365060321E+02  0.10566000000E+00 0.  1.
         22    1    1    0    0    0 -0.23333868586E+02 -0.14141869580E+02 -0.92841852660E+01  0.28821137980E+02  0.00000000000E+00 0.  1.
</event>
<event>
 5    1  0.1245610E-004  0.9118800E+02  0.7818608E-02  0.1130116E+00
         25   -1    0    0    0    0  0.00000000000E+00  0.00000000000E+00  0.99999998245E-14  0.12500000000E+03  0.12500000000E+03 0.  0.
        -13    1    3    3    0    0  0.42084446937E+02  0.19674927111E+02  0.22177271687E+02  0.51478597245E+02  0.10566000000E+00 0. -1.
         23    2    1    0    0    0  0.13166994773E+01 -0.28142738295E+01  0.26573787631E+02  0.98245186905E+02  0.94531987847E+02 0.  0.
         13    1    3    3    0    0 -0.40767747460E+02 -0.22489200941E+02  0.43965159436E+01  0.46766589659E+02  0.10566000000E+00 0.  1.
         22    1    1    0    0    0 -0.13166994773E+01  0.28142738295E+01 -0.26573787631E+02  0.26754813095E+02  0.00000000000E+00 0. -1.
</event>
<event>
 5    1  0.1245610E-004  0.9118800E+02  0.7818608E-02  0.1130116E+00
         25   -1    0    0    0    0  0.00000000000E+00  0.00000000000E+00  0.99999998245E-14  0.12500000000E+03  0.12500000000E+03 0.  0.
        -13    1    3    3    0    0 -0.22988847765E+02 -0.32320768866E+02  0.17822002425E+02  0.43482802993E+02  0.10566000000E+00 0.  1.
         23    2    1    0    0    0 -0.50468748823E+01  0.18440827135E+02  0.19954887829E+02  0.97364287602E+02  0.93359905208E+02 0.  0.
         13    1    3    3    0    0  0.17941972882E+02  0.50761596001E+02  0.21328854036E+01  0.53881484609E+02  0.10566000000E+00 0. -1.
         22    1    1    0    0    0  0.50468748823E+01 -0.18440827135E+02 -0.19954887829E+02  0.27635712398E+02  0.00000000000E+00 0. -1.
</event>
<event>
 5    1  0.1245610E-004  0.9118800E+02  0.7818608E-02  0.1130116E+00
         25   -1    0    0    0    0  0.00000000000E+00  0.00000000000E+00  0.99999998245E-14  0.12500000000E+03  0.12500000000E+03 0.  0.
        -13    1    3    3    0    0  0.19114166597E+02  0.54779171712E+01 -0.34175463662E+02  0.39538998745E+02  0.10566000000E+00 0. -1.
         23    2    1    0    0    0  0.33295266316E+02  0.85346042644E+01  0.12506884822E+02  0.88423554069E+02  0.80503965848E+02 0.  0.
         13    1    3    3    0    0  0.14181099719E+02  0.30566870932E+01  0.46682348484E+02  0.48884555324E+02  0.10566000000E+00 0.  1.
         22    1    1    0    0    0 -0.33295266316E+02 -0.85346042644E+01 -0.12506884822E+02  0.36576445931E+02  0.00000000000E+00 0.  1.
</event>
<event>
 5    1  0.1245610E-004  0.9118800E+02  0.7818608E-02  0.1130116E+00
         25   -1    0    0    0    0  0.00000000000E+00  0.00000000000E+00  0.99999998245E-14  0.12500000000E+03  0.12500000000E+03 0.  0.
        -13    1    3    3    0    0 -0.36270029363E+02  0.14241858661E+02  0.28266760868E+02  0.48139033041E+02  0.10566000000E+00 0.  1.
         23    2    1    0    0    0  0.10871027443E+02  0.16086713067E+02  0.21881750675E+02  0.95746408980E+02  0.91167989146E+02 0.  0.
         13    1    3    3    0    0  0.47141056806E+02  0.18448544057E+01 -0.63850101929E+01  0.47607375939E+02  0.10566000000E+00 0. -1.
         22    1    1    0    0    0 -0.10871027443E+02 -0.16086713067E+02 -0.21881750675E+02  0.29253591020E+02  0.00000000000E+00 0.  1.
</event>
<event>
 5    1  0.1245610E-004  0.9118800E+02  0.7818608E-02  0.1130116E+00
         25   -1    0    0    0    0  0.00000000000E+00  0.00000000000E+00  0.99999998245E-14  0.12500000000E+03  0.12500000000E+03 0.  0.
        -13    1    3    3    0    0  0.63181603963E+00  0.15036007196E+02  0.29035683039E+02  0.32704170338E+02  0.10566000000E+00 0. -1.
         23    2    1    0    0    0  0.33277498081E+01 -0.35369172670E+02  0.34165631069E+01  0.89310713125E+02  0.81869886291E+02 0.  0.
         13    1    3    3    0    0  0.26959337685E+01 -0.50405179866E+02 -0.25619119932E+02  0.56606542787E+02  0.10566000000E+00 0.  1.
         22    1    1    0    0    0 -0.33277498081E+01  0.35369172670E+02 -0.34165631069E+01  0.35689286875E+02  0.00000000000E+00 0.  1.
</event>
<event>
 5    1  0.1245610E-004  0.9118800E+02  0.7818608E-02  0.1130116E+00
         25   -1    0    0    0    0  0.00000000000E+00  0.00000000000E+00  0.99999998245E-14  0.12500000000E+03  0.12500000000E+03 0.  0.
        -13    1    3    3    0    0  0.10017472553E+01  0.23040696693E+02 -0.54482332647E+02  0.59162597444E+02  0.10566000000E+00 0. -1.
         23    2    1    0    0    0 -0.91540384642E+01 -0.14292820384E+01 -0.22329019311E+02  0.10082512935E+03  0.97884024940E+02 0.  0.
         13    1    3    3    0    0 -0.10155785719E+02 -0.24469978731E+02  0.32153313335E+02  0.41662531910E+02  0.10566000000E+00 0.  1.
         22    1    1    0    0    0  0.91540384642E+01  0.14292820384E+01  0.22329019311E+02  0.24174870646E+02  0.00000000000E+00 0. -1.
</event>
<event>
 5    1  0.1245610E-004  0.9118800E+02  0.7818608E-02  0.1130116E+00
         25   -1    0    0    0    0  0.00000000000E+00  0.00000000000E+00  0.99999998245E-14  0.12500000000E+03  0.12500000000E+03 0.  0.
        -13    1    3    3    0    0  0.40847611157E+02 -0.24684321281E+02 -0.16065630894E+02  0.50358303331E+02  0.10566000000E+00 0. -1.
         23    2    1    0    0    0  0.17582026568E+02  0.13049142902E+02 -0.20622947837E+02  0.94921539830E+02  0.90029911460E+02 0.  0.
         13    1    3    3    0    0 -0.23265584589E+02  0.37733464183E+02 -0.45573169423E+01  0.44563236499E+02  0.10566000000E+00 0.  1.
         22    1    1    0    0    0 -0.17582026568E+02 -0.13049142902E+02  0.20622947837E+02  0.30078460170E+02  0.00000000000E+00 0.  1.
</event>
<event>
 5    1  0.1245610E-004  0.9118800E+02  0.7818608E-02  0.1130116E+00
         25   -1    0    0    0    0  0.00000000000E+00  0.00000000000E+00  0.99999998245E-14  0.12500000000E+03  0.12500000000E+03 0.  0.
        -13    1    3    3    0    0 -0.92258049249E+01  0.58588037416E+02  0.92515133876E+01  0.60027287701E+02  0.10566000000E+00 0.  1.
         23    2    1    0    0    0 -0.12099585203E+02  0.26082307557E+02 -0.53102998642E+01  0.95761566146E+02  0.91188768697E+02 0.  0.
         13    1    3    3    0    0 -0.28737802784E+01 -0.32505729859E+02 -0.14561813252E+02  0.35734278445E+02  0.10566000000E+00 0. -1.
         22    1    1    0    0    0  0.12099585203E+02 -0.26082307557E+02  0.53102998642E+01  0.29238433854E+02  0.00000000000E+00 0.  1.
</event>
<event>
 5    1  0.1245610E-004  0.9118800E+02  0.7818608E-02  0.1130116E+00
         25   -1    0    0    0    0  0.00000000000E+00  0.00000000000E+00  0.99999998245E-14  0.12500000000E+03  0.12500000000E+03 0.  0.
        -13    1    3    3    0    0 -0.23157781122E+02 -0.20753973302E+02  0.37870188381E+02  0.49001760850E+02  0.10566000000E+00 0. -1.
         23    2    1    0    0    0 -0.31201406607E+02  0.11034512765E+02  0.18554244229E+02  0.87058621202E+02  0.78355952553E+02 0.  0.
         13    1    3    3    0    0 -0.80436254854E+01  0.31788486066E+02 -0.19315944153E+02  0.38056860352E+02  0.10566000000E+00 0.  1.
         22    1    1    0    0    0  0.31201406607E+02 -0.11034512765E+02 -0.18554244229E+02  0.37941378798E+02  0.00000000000E+00 0. -1.
</event>
<event>
 5    1  0.1245610E-004  0.9118800E+02  0.7818608E-02  0.1130116E+00
         25   -1    0    0    0    0  0.00000000000E+00  0.00000000000E+00  0.99999998245E-14  0.12500000000E+03  0.12500000000E+03 0.  0.
        -13    1    3    3    0    0  0.52363164784E+01  0.21539011860E+02  0.23860342689E+02  0.32568008220E+02  0.10566000000E+00 0. -1.
         23    2    1    0    0    0 -0.29777772689E+00 -0.20371926726E+02 -0.22050611978E+02  0.94977782249E+02  0.90107966142E+02 0.  0.
         13    1    3    3    0    0 -0.55340942053E+01 -0.41910938586E+02 -0.45910954666E+02  0.62409774028E+02  0.10566000000E+00 0.  1.
         22    1    1    0    0    0  0.29777772689E+00  0.20371926726E+02  0.22050611978E+02  0.30022217751E+02  0.00000000000E+00 0.  1.
</event>
<event>
 5    1  0.1245610E-004  0.9118800E+02  0.7818608E-02  0.1130116E+00
         25   -1    0    0    0    0  0.00000000000E+00  0.00000000000E+00  0.99999998245E-14  0.12500000000E+03  0.12500000000E+03 0.  0.
        -13    1    3    3    0    0 -0.59560000670E+00 -0.44196176944E+02  0.40766583457E+02  0.60129712178E+02  0.10566000000E+00 0.  1.
         23    2    1    0    0    0  0.78962037172E+01 -0.26509964890E+02  0.12239729289E+02  0.94752037346E+02  0.89794261156E+02 0.  0.
         13    1    3    3    0    0  0.84918037239E+01  0.17686212054E+02 -0.28526854168E+02  0.34622325168E+02  0.10566000000E+00 0. -1.
         22    1    1    0    0    0 -0.78962037172E+01  0.26509964890E+02 -0.12239729289E+02  0.30247962654E+02  0.00000000000E+00 0.  1.
</event>
<event>
 5    1  0.1245610E-004  0.9118800E+02  0.7818608E-02  0.1130116E+00
         25   -1    0    0    0    0  0.00000000000E+00  0.00000000000E+00  0.99999998245E-14  0.12500000000E+03  0.12500000000E+03 0.  0.
        -13    1    3    3    0    0  0.12247908852E+02 -0.17156300976E+02 -0.34813285932E+02  0.40697984912E+02  0.10566000000E+00 0. -1.
         23    2    1    0    0    0 -0.28573587262E+01  0.28213813196E+02 -0.18121834434E+02  0.91346105171E+02  0.84920705912E+02 0.  0.
         13    1    3    3    0    0 -0.15105267578E+02  0.45370114172E+02  0.16691451499E+02  0.50648120259E+02  0.10566000000E+00 0.  1.
         22    1    1    0    0    0  0.28573587262E+01 -0.28213813196E+02  0.18121834434E+02  0.33653894829E+02  0.00000000000E+00 0.  1.
</event>
<event>
 5    1  0.1245610E-004  0.9118800E+02  0.7818608E-02  0.1130116E+00
         25   -1    0    0    0    0  0.00000000000E+00  0.00000000000E+00  0.99999998245E-14  0.12500000000E+03  0.12500000000E+03 0.  0.
        -13    1    3    3    0    0 -0.16230244716E+02 -0.53233394145E+02  0.12070222234E+02  0.56946611177E+02  0.10566000000E+00 0. -1.
         23    2    1    0    0    0 -0.17534974338E+02 -0.13982571357E+02 -0.81733845814E+01  0.10112968701E+03  0.98272181985E+02 0.  0.
         13    1    3    3    0    0 -0.13047296222E+01  0.39250822789E+02 -0.20243606816E+02  0.44183075831E+02  0.10566000000E+00 0.  1.
         22    1    1    0    0    0  0.17534974338E+02  0.13982571357E+02  0.81733845814E+01  0.23870312991E+02  0.00000000000E+00 0. -1.
</event>
<event>
 5    1  0.1245610E-004  0.9118800E+02  0.7818608E-02  0.1130116E+00
         25   -1    0    0    0    0  0.00000000000E+00  0.00000000000E+00  0.99999998245E-14  0.12500000000E+03  0.12500000000E+03 0.  0.
        -13    1    3    3    0    0 -0.38103160980E+02 -0.76197548728E+01  0.96834708210E+00  0.38869787768E+02  0.10566000000E+00 0. -1.
         23    2    1    0    0    0  0.80754834907E+01  0.23204131987E+02 -0.14455890345E+02  0.96493545634E+02  0.92186693229E+02 0.  0.
         13    1    3    3    0    0  0.46178644471E+02  0.30823886860E+02 -0.15424237427E+02  0.57623757866E+02  0.10566000000E+00 0.  1.
         22    1    1    0    0    0 -0.80754834907E+01 -0.23204131987E+02  0.14455890345E+02  0.28506454366E+02  0.00000000000E+00 0.  1.
</event>
<event>
 5    1  0.1245610E-004  0.9118800E+02  0.7818608E-02  0.1130116E+00
         25   -1    0    0    0    0  0.00000000000E+00  0.00000000000E+00  0.99999998245E-14  0.12500000000E+03  0.12500000000E+03 0.  0.
        -13    1    3    3    0    0 -0.35164764459E+02  0.76814778170E+01  0.23330870005E+02  0.42894130369E+02  0.10566000000E+00 0. -1.
         23    2    1    0    0    0 -0.14840016719E+02  0.27468677780E+01 -0.25135915750E+02  0.95681309044E+02  0.91078687193E+02 0.  0.
         13    1    3    3    0    0  0.20324747740E+02 -0.49346100390E+01 -0.48466785755E+02  0.52787178674E+02  0.10566000000E+00 0.  1.
         22    1    1    0    0    0  0.14840016719E+02 -0.27468677780E+01  0.25135915750E+02  0.29318690956E+02  0.00000000000E+00 0.  1.
</event>
<event>
 5    1  0.1245610E-004  0.9118800E+02  0.7818608E-02  0.1130116E+00
         25   -1    0    0    0    0  0.00000000000E+00  0.00000000000E+00  0.99999998245E-14  0.12500000000E+03  0.12500000000E+03 0.  0.
        -13    1    3    3    0    0 -0.37959557928E+02 -0.38355016985E+01  0.42180252199E+02  0.56875512754E+02  0.10566000000E+00 0. -1.
         23    2    1    0    0    0 -0.22011640326E+02 -0.12944673027E+02  0.41220660008E+01  0.99133645450E+02  0.95699589144E+02 0.  0.
         13    1    3    3    0    0  0.15947917603E+02 -0.91091713287E+01 -0.38058186199E+02  0.42258132696E+02  0.10566000000E+00 0.  1.
         22    1    1    0    0    0  0.22011640326E+02  0.12944673027E+02 -0.41220660008E+01  0.25866354550E+02  0.00000000000E+00 0. -1.
</event>
<event>
 5    1  0.1245610E-004  0.9118800E+02  0.7818608E-02  0.1130116E+00
         25   -1    0    0    0    0  0.00000000000E+00  0.00000000000E+00  0.99999998245E-14  0.12500000000E+03  0.12500000000E+03 0.  0.
        -13    1    3    3    0    0  0.21120469102E+00  0.30021537859E+02 -0.30610880593E+02  0.42876269865E+02  0.10566000000E+00 0.  1.
         23    2    1    0    0    0 -0.19049481175E+02  0.15133511932E+02  0.16291415648E+02  0.95720038588E+02  0.91131825654E+02 0.  0.
         13    1    3    3    0    0 -0.19260685866E+02 -0.14888025927E+02  0.46902296242E+02  0.52843768723E+02  0.10566000000E+00 0. -1.
         22    1    1    0    0    0  0.19049481175E+02 -0.15133511932E+02 -0.16291415648E+02  0.29279961412E+02  0.00000000000E+00 0. -1.
</event>
<event>
 5    1  0.1245610E-004  0.9118800E+02  0.7818608E-02  0.1130116E+00
         25   -1    0    0    0    0  0.00000000000E+00  0.00000000000E+00  0.99999998245E-14  0.12500000000E+03  0.12500000000E+03 0.  0.
        -13    1    3    3    0    0 -0.30054229088E+02 -0.42345585962E+01 -0.24570680155E+02  0.39050194108E+02  0.10566000000E+00 0. -1.
         23    2    1    0    0    0 -0.56963740552E+01 -0.25148237110E+02  0.18856211388E+02  0.93055685717E+02  0.87400923503E+02 0.  0.
         13    1    3    3    0    0  0.24357855033E+02 -0.20913678514E+02  0.43426891543E+02  0.54005491609E+02  0.10566000000E+00 0.  1.
         22    1    1    0    0    0  0.56963740552E+01  0.25148237110E+02 -0.18856211388E+02  0.31944314283E+02  0.00000000000E+00 0.  1.
</event>
<event>
 5    1  0.1245610E-004  0.9118800E+02  0.7818608E-02  0.1130116E+00
         25   -1    0    0    0    0  0.00000000000E+00  0.00000000000E+00  0.99999998245E-14  0.12500000000E+03  0.12500000000E+03 0.  0.
        -13    1    3    3    0    0 -0.35307468302E+02  0.52792205672E+01  0.36494888659E+02  0.51052674268E+02  0.10566000000E+00 0. -1.
         23    2    1    0    0    0  0.55200647146E+01  0.16403006750E+02  0.24440857644E+02  0.95051957205E+02  0.90210804792E+02 0.  0.
         13    1    3    3    0    0  0.40827533016E+02  0.11123786182E+02 -0.12054031015E+02  0.43999282937E+02  0.10566000000E+00 0.  1.
         22    1    1    0    0    0 -0.55200647146E+01 -0.16403006750E+02 -0.24440857644E+02  0.29948042795E+02  0.00000000000E+00 0.  1.
</event>
<event>
 5    1  0.1245610E-004  0.9118800E+02  0.7818608E-02  0.1130116E+00
         25   -1    0    0    0    0  0.00000000000E+00  0.00000000000E+00  0.99999998245E-14  0.12500000000E+03  0.12500000000E+03 0.  0.
        -13    1    3    3    0    0  0.25822255214E+02  0.14909028688E+01  0.32640078143E+02  0.41646098507E+02  0.10566000000E+00 0.  1.
         23    2    1    0    0    0 -0.19552641925E+02 -0.18654448971E+02  0.10442504252E+02  0.96028631933E+02  0.91554125976E+02 0.  0.
         13    1    3    3    0    0 -0.45374897138E+02 -0.20145351840E+02 -0.22197573891E+02  0.54382533425E+02  0.10566000000E+00 0. -1.
         22    1    1    0    0    0  0.19552641925E+02  0.18654448971E+02 -0.10442504252E+02  0.28971368067E+02  0.00000000000E+00 0. -1.
</event>
<event>
 5    1  0.1245610E-004  0.9118800E+02  0.7818608E-02  0.1130116E+00
         25   -1    0    0    0    0  0.00000000000E+00  0.00000000000E+00  0.99999998245E-14  0.12500000000E+03  0.12500000000E+03 0.  0.
        -13    1    3    3    0    0  0.19599627745E+02  0.50837441261E+02 -0.15532037714E+02  0.56655504598E+02  0.10566000000E+00 0. -1.
         23    2    1    0    0    0  0.11669401176E+02  0.14240235252E+02 -0.23706503527E+02  0.94984045354E+02  0.90116654057E+02 0.  0.
         13    1    3    3    0    0 -0.79302265689E+01 -0.36597206009E+02 -0.81744658132E+01  0.38328540756E+02  0.10566000000E+00 0.  1.
         22    1    1    0    0    0 -0.11669401176E+02 -0.14240235252E+02  0.23706503527E+02  0.30015954646E+02  0.00000000000E+00 0. -1.
</event>
<event>
 5    1  0.1245610E-004  0.9118800E+02  0.7818608E-02  0.1130116E+00
         25   -1    0    0    0    0  0.00000000000E+00  0.00000000000E+00  0.99999998245E-14  0.12500000000E+03  0.12500000000E+03 0.  0.
        -13    1    3    3    0    0 -0.36696647602E+02 -0.13384123004E+02  0.18501038748E+02  0.43221271297E+02  0.10566000000E+00 0.  1.
         23    2    1    0    0    0  0.15706339917E+02 -0.14624593048E+02  0.20005756965E+02  0.95660638263E+02  0.91050313375E+02 0.  0.
         13    1    3    3    0    0  0.52402987518E+02 -0.12404700439E+01  0.15047182171E+01  0.52439366965E+02  0.10566000000E+00 0. -1.
         22    1    1    0    0    0 -0.15706339917E+02  0.14624593048E+02 -0.20005756965E+02  0.29339361737E+02  0.00000000000E+00 0. -1.
</event>
<event>
 5    1  0.1245610E-004  0.9118800E+02  0.7818608E-02  0.1130116E+00
         25   -1    0    0    0    0  0.00000000000E+00  0.00000000000E+00  0.99999998245E-14  0.12500000000E+03  0.12500000000E+03 0.  0.
        -13    1    3    3    0    0  0.43770377025E+02  0.10946841292E+02  0.12045303856E+02  0.46698819559E+02  0.10566000000E+00 0. -1.
         23    2    1    0    0    0  0.15320068828E+02 -0.20287728887E+02  0.23400148231E+02  0.90447671721E+02  0.83587785772E+02 0.  0.
         13    1    3    3    0    0 -0.28450308197E+02 -0.31234570178E+02  0.11354844375E+02  0.43748852162E+02  0.10566000000E+00 0.  1.
         22    1    1    0    0    0 -0.15320068828E+02  0.20287728887E+02 -0.23400148231E+02  0.34552328279E+02  0.00000000000E+00 0. -1.
</event>
<event>
 5    1  0.1245610E-004  0.9118800E+02  0.7818608E-02  0.1130116E+00
         25   -1    0    0    0    0  0.00000000000E+00  0.00000000000E+00  0.99999998245E-14  0.12500000000E+03  0.12500000000E+03 0.  0.
        -13    1    3    3    0    0 -0.37010088850E+02  0.19705864846E+02  0.28428848722E+02  0.50658448355E+02  0.10566000000E+00 0. -1.
         23    2    1    0    0    0 -0.92577053250E+01 -0.16239362148E+02  0.21356911169E+02  0.96617969672E+02  0.92355251167E+02 0.  0.
         13    1    3    3    0    0  0.27752383525E+02 -0.35945226993E+02 -0.70719375539E+01  0.45959521318E+02  0.10566000000E+00 0.  1.
         22    1    1    0    0    0  0.92577053250E+01  0.16239362148E+02 -0.21356911169E+02  0.28382030328E+02  0.00000000000E+00 0. -1.
</event>
<event>
 5    1  0.1245610E-004  0.9118800E+02  0.7818608E-02  0.1130116E+00
         25   -1    0    0    0    0  0.00000000000E+00  0.00000000000E+00  0.99999998245E-14  0.12500000000E+03  0.12500000000E+03 0.  0.
        -13    1    3    3    0    0 -0.24519006786E+02 -0.33347028560E+01  0.31593286843E+02  0.40130398384E+02  0.10566000000E+00 0. -1.
         23    2    1    0    0    0 -0.16514652499E+02  0.12334876328E+02 -0.20990965877E+02  0.95580557965E+02  0.90940307297E+02 0.  0.
         13    1    3    3    0    0  0.80043542871E+01  0.15669579184E+02 -0.52584252720E+02  0.55450159581E+02  0.10566000000E+00 0.  1.
         22    1    1    0    0    0  0.16514652499E+02 -0.12334876328E+02  0.20990965877E+02  0.29419442035E+02  0.00000000000E+00 0.  1.
</event>
<event>
 5    1  0.1245610E-004  0.9118800E+02  0.7818608E-02  0.1130116E+00
         25   -1    0    0    0    0  0.00000000000E+00  0.00000000000E+00  0.99999998245E-14  0.12500000000E+03  0.12500000000E+03 0.  0.
        -13    1    3    3    0    0  0.43597620310E+01  0.44529985702E+01 -0.27725426411E+02  0.28417374174E+02  0.10566000000E+00 0. -1.
         23    2    1    0    0    0  0.16584247347E+02 -0.15291195057E+02  0.28150180190E+02  0.88926594962E+02  0.81281293915E+02 0.  0.
         13    1    3    3    0    0  0.12224485316E+02 -0.19744193627E+02  0.55875606601E+02  0.60509220788E+02  0.10566000000E+00 0.  1.
         22    1    1    0    0    0 -0.16584247347E+02  0.15291195057E+02 -0.28150180190E+02  0.36073405038E+02  0.00000000000E+00 0.  1.
</event>
<event>
 5    1  0.1245610E-004  0.9118800E+02  0.7818608E-02  0.1130116E+00
         25   -1    0    0    0    0  0.00000000000E+00  0.00000000000E+00  0.99999998245E-14  0.12500000000E+03  0.12500000000E+03 0.  0.
        -13    1    3    3    0    0  0.45101240751E+02  0.43034545645E+02 -0.12300566509E+01  0.62350767754E+02  0.10566000000E+00 0.  1.
         23    2    1    0    0    0  0.18828495107E+02  0.21126101827E+02  0.14465450508E+01  0.96664211693E+02  0.92417817131E+02 0.  0.
         13    1    3    3    0    0 -0.26272745644E+02 -0.21908443818E+02  0.26766017017E+01  0.34313443938E+02  0.10566000000E+00 0. -1.
         22    1    1    0    0    0 -0.18828495107E+02 -0.21126101827E+02 -0.14465450508E+01  0.28335788307E+02  0.00000000000E+00 0.  1.
</event>
<event>
 5    1  0.1245610E-004  0.9118800E+02  0.7818608E-02  0.1130116E+00
         25   -1    0    0    0    0  0.00000000000E+00  0.00000000000E+00  0.99999998245E-14  0.12500000000E+03  0.12500000000E+03 0.  0.
        -13    1    3    3    0    0 -0.10175624903E+02  0.22801027861E+02 -0.46483576498E+02  0.52765180392E+02  0.10566000000E+00 0. -1.
         23    2    1    0    0    0  0.34592622395E+01 -0.12800682500E+02 -0.25441868441E+02  0.96310060344E+02  0.91937560801E+02 0.  0.
         13    1    3    3    0    0  0.13634887142E+02 -0.35601710361E+02  0.21041708057E+02  0.43544879952E+02  0.10566000000E+00 0.  1.
         22    1    1    0    0    0 -0.34592622395E+01  0.12800682500E+02  0.25441868441E+02  0.28689939656E+02  0.00000000000E+00 0. -1.
</event>
<event>
 5    1  0.1245610E-004  0.9118800E+02  0.7818608E-02  0.1130116E+00
         25   -1    0    0    0    0  0.00000000000E+00  0.00000000000E+00  0.99999998245E-14  0.12500000000E+03  0.12500000000E+03 0.  0.
        -13    1    3    3    0    0  0.28116005809E+02 -0.19177221851E+02  0.11333094276E+01  0.34052476781E+02  0.10566000000E+00 0.  1.
         23    2    1    0    0    0 -0.26205060651E+02 -0.78256851248E+01 -0.17429732652E+02  0.92569425973E+02  0.86702690231E+02 0.  0.
         13    1    3    3    0    0 -0.54321066461E+02  0.11351536727E+02 -0.18563042079E+02  0.58516949192E+02  0.10566000000E+00 0. -1.
         22    1    1    0    0    0  0.26205060651E+02  0.78256851248E+01  0.17429732652E+02  0.32430574027E+02  0.00000000000E+00 0. -1.
</event>
<event>
 5    1  0.1245610E-004  0.9118800E+02  0.7818608E-02  0.1130116E+00
         25   -1    0    0    0    0  0.00000000000E+00  0.00000000000E+00  0.99999998245E-14  0.12500000000E+03  0.12500000000E+03 0.  0.
        -13    1    3    3    0    0 -0.42277625323E+02 -0.25863924254E+02  0.15545567049E+02  0.51942429666E+02  0.10566000000E+00 0.  1.
         23    2    1    0    0    0 -0.62491440756E+01 -0.35750132331E+01  0.27990663370E+02  0.96098274149E+02  0.91649160046E+02 0.  0.
         13    1    3    3    0    0  0.36028481247E+02  0.22288911021E+02  0.12445096321E+02  0.44155844482E+02  0.10566000000E+00 0. -1.
         22    1    1    0    0    0  0.62491440756E+01  0.35750132331E+01 -0.27990663370E+02  0.28901725851E+02  0.00000000000E+00 0.  1.
</event>
<event>
 5    1  0.1245610E-004  0.9118800E+02  0.7818608E-02  0.1130116E+00
         25   -1    0    0    0    0  0.00000000000E+00  0.00000000000E+00  0.99999998245E-14  0.12500000000E+03  0.12500000000E+03 0.  0.
        -13    1    3    3    0    0 -0.54644327486E+02  0.26792902977E+02  0.39092479212E+01  0.60984879762E+02  0.10566000000E+00 0.  1.
         23    2    1    0    0    0 -0.21553965289E+02  0.18180798801E+02  0.86511122060E+01  0.95504973180E+02  0.90836354479E+02 0.  0.
         13    1    3    3    0    0  0.33090362197E+02 -0.86121041757E+01  0.47418642848E+01  0.34520093418E+02  0.10566000000E+00 0. -1.
         22    1    1    0    0    0  0.21553965289E+02 -0.18180798801E+02 -0.86511122060E+01  0.29495026820E+02  0.00000000000E+00 0.  1.
</event>
<event>
 5    1  0.1245610E-004  0.9118800E+02  0.7818608E-02  0.1130116E+00
         25   -1    0    0    0    0  0.00000000000E+00  0.00000000000E+00  0.99999998245E-14  0.12500000000E+03  0.12500000000E+03 0.  0.
        -13    1    3    3    0    0  0.37452615377E+01 -0.75843353010E+01  0.36459647536E+02  0.37428147008E+02  0.10566000000E+00 0.  1.
         23    2    1    0    0    0 -0.61190172260E+01 -0.21337540779E+02 -0.19228900282E+02  0.95631928488E+02  0.91010890128E+02 0.  0.
         13    1    3    3    0    0 -0.98642787637E+01 -0.13753205478E+02 -0.55688547818E+02  0.58203781480E+02  0.10566000000E+00 0. -1.
         22    1    1    0    0    0  0.61190172260E+01  0.21337540779E+02  0.19228900282E+02  0.29368071512E+02  0.00000000000E+00 0.  1.
</event>
<event>
 5    1  0.1245610E-004  0.9118800E+02  0.7818608E-02  0.1130116E+00
         25   -1    0    0    0    0  0.00000000000E+00  0.00000000000E+00  0.99999998245E-14  0.12500000000E+03  0.12500000000E+03 0.  0.
        -13    1    3    3    0    0  0.16600608581E+01 -0.58906965516E+01 -0.55016645763E+02  0.55356107007E+02  0.10566000000E+00 0.  1.
         23    2    1    0    0    0  0.14072580493E+02  0.13589228286E+02 -0.23726535632E+02  0.94248526210E+02  0.89090580605E+02 0.  0.
         13    1    3    3    0    0  0.12412519635E+02  0.19479924838E+02  0.31290110132E+02  0.38892419203E+02  0.10566000000E+00 0. -1.
         22    1    1    0    0    0 -0.14072580493E+02 -0.13589228286E+02  0.23726535632E+02  0.30751473790E+02  0.00000000000E+00 0. -1.
</event>
<event>
 5    1  0.1245610E-004  0.9118800E+02  0.7818608E-02  0.1130116E+00
         25   -1    0    0    0    0  0.00000000000E+00  0.00000000000E+00  0.99999998245E-14  0.12500000000E+03  0.12500000000E+03 0.  0.
        -13    1    3    3    0    0  0.97109097851E+01 -0.31582832208E+02 -0.34940429859E+02  0.48089727197E+02  0.10566000000E+00 0.  1.
         23    2    1    0    0    0 -0.12263804893E+02  0.91735364339E+01 -0.25361001330E+02  0.95373406041E+02  0.90655124016E+02 0.  0.
         13    1    3    3    0    0 -0.21974714678E+02  0.40756368642E+02  0.95794285290E+01  0.47283678844E+02  0.10566000000E+00 0. -1.
         22    1    1    0    0    0  0.12263804893E+02 -0.91735364339E+01  0.25361001330E+02  0.29626593959E+02  0.00000000000E+00 0. -1.
</event>
<event>
 5    1  0.1245610E-004  0.9118800E+02  0.7818608E-02  0.1130116E+00
         25   -1    0    0    0    0  0.00000000000E+00  0.00000000000E+00  0.99999998245E-14  0.12500000000E+03  0.12500000000E+03 0.  0.
        -13    1    3    3    0    0  0.30936087980E+02 -0.48405016421E+02  0.92278609415E+01  0.58182916186E+02  0.10566000000E+00 0.  1.
         23    2    1    0    0    0  0.82349111718E+01 -0.20197627660E+02  0.19417533233E+02  0.95797285709E+02  0.91237719323E+02 0.  0.
         13    1    3    3    0    0 -0.22701176809E+02  0.28207388761E+02  0.10189672291E+02  0.37614369524E+02  0.10566000000E+00 0. -1.
         22    1    1    0    0    0 -0.82349111718E+01  0.20197627660E+02 -0.19417533233E+02  0.29202714291E+02  0.00000000000E+00 0.  1.
</event>
<event>
 5    1  0.1245610E-004  0.9118800E+02  0.7818608E-02  0.1130116E+00
         25   -1    0    0    0    0  0.00000000000E+00  0.00000000000E+00  0.99999998245E-14  0.12500000000E+03  0.12500000000E+03 0.  0.
        -13    1    3    3    0    0 -0.38323277265E+02  0.15983088511E+02  0.20556905442E+02  0.46332820161E+02  0.10566000000E+00 0. -1.
         23    2    1    0    0    0  0.77861051167E+01  0.23431666042E+02  0.20290934496E+02  0.93040831846E+02  0.87379677050E+02 0.  0.
         13    1    3    3    0    0  0.46109382382E+02  0.74485775314E+01 -0.26597094625E+00  0.46708011684E+02  0.10566000000E+00 0.  1.
         22    1    1    0    0    0 -0.77861051167E+01 -0.23431666042E+02 -0.20290934496E+02  0.31959168154E+02  0.00000000000E+00 0. -1.
</event>
<event>
 5    1  0.1245610E-004  0.9118800E+02  0.7818608E-02  0.1130116E+00
         25   -1    0    0    0    0  0.00000000000E+00  0.00000000000E+00  0.99999998245E-14  0.12500000000E+03  0.12500000000E+03 0.  0.
        -13    1    3    3    0    0  0.88145028957E+01 -0.31539765803E+02  0.21214318096E+02  0.39019363713E+02  0.10566000000E+00 0.  1.
         23    2    1    0    0    0  0.18175483674E+02  0.21060639075E+02  0.16504378811E+02  0.92653543548E+02  0.86823878554E+02 0.  0.
         13    1    3    3    0    0  0.93609807781E+01  0.52600404879E+02 -0.47099392851E+01  0.53634179835E+02  0.10566000000E+00 0. -1.
         22    1    1    0    0    0 -0.18175483674E+02 -0.21060639075E+02 -0.16504378811E+02  0.32346456452E+02  0.00000000000E+00 0.  1.
</event>
<event>
 5    1  0.1245610E-004  0.9118800E+02  0.7818608E-02  0.1130116E+00
         25   -1    0    0    0    0  0.00000000000E+00  0.00000000000E+00  0.99999998245E-14  0.12500000000E+03  0.12500000000E+03 0.  0.
        -13    1    3    3    0    0 -0.25609392687E+02 -0.40598454875E+02 -0.36179146291E+01  0.48137054359E+02  0.10566000000E+00 0.  1.
         23    2    1    0    0    0 -0.32422847335E+02 -0.26663576272E+01  0.12816426324E+02  0.90034141280E+02  0.82967073710E+02 0.  0.
         13    1    3    3    0    0 -0.68134546483E+01  0.37932097248E+02  0.16434340953E+02  0.41897086921E+02  0.10566000000E+00 0. -1.
         22    1    1    0    0    0  0.32422847335E+02  0.26663576272E+01 -0.12816426324E+02  0.34965858720E+02  0.00000000000E+00 0. -1.
</event>
<event>
 5    1  0.1245610E-004  0.9118800E+02  0.7818608E-02  0.1130116E+00
         25   -1    0    0    0    0  0.00000000000E+00  0.00000000000E+00  0.99999998245E-14  0.12500000000E+03  0.12500000000E+03 0.  0.
        -13    1    3    3    0    0  0.42503960362E+02  0.29365314136E+01  0.43722681811E+01  0.42829169456E+02  0.10566000000E+00 0.  1.
         23    2    1    0    0    0 -0.71897802264E+01  0.19954065591E+02  0.18096229797E+02  0.97119339926E+02  0.93031365579E+02 0.  0.
         13    1    3    3    0    0 -0.49693740589E+02  0.17017534177E+02  0.13723961616E+02  0.54290170470E+02  0.10566000000E+00 0. -1.
         22    1    1    0    0    0  0.71897802264E+01 -0.19954065591E+02 -0.18096229797E+02  0.27880660074E+02  0.00000000000E+00 0. -1.
</event>
<event>
 5    1  0.1245610E-004  0.9118800E+02  0.7818608E-02  0.1130116E+00
         25   -1    0    0    0    0  0.00000000000E+00  0.00000000000E+00  0.99999998245E-14  0.12500000000E+03  0.12500000000E+03 0.  0.
        -13    1    3    3    0    0 -0.36758958716E+02  0.14761960870E+02  0.36134912148E+02  0.53617903489E+02  0.10566000000E+00 0.  1.
         23    2    1    0    0    0 -0.25125440586E+01  0.25479070769E+02  0.13336327196E+02  0.96132136415E+02  0.91695333054E+02 0.  0.
         13    1    3    3    0    0  0.34246414657E+02  0.10717109899E+02 -0.22798584952E+02  0.42514232926E+02  0.10566000000E+00 0. -1.
         22    1    1    0    0    0  0.25125440586E+01 -0.25479070769E+02 -0.13336327196E+02  0.28867863585E+02  0.00000000000E+00 0. -1.
</event>
<event>
 5    1  0.1245610E-004  0.9118800E+02  0.7818608E-02  0.1130116E+00
         25   -1    0    0    0    0  0.00000000000E+00  0.00000000000E+00  0.99999998245E-14  0.12500000000E+03  0.12500000000E+03 0.  0.
        -13    1    3    3    0    0  0.19489674398E+02  0.37182574530E+02  0.14610249698E+02  0.44450667229E+02  0.10566000000E+00 0. -1.
         23    2    1    0    0    0 -0.16629763485E+02  0.14925470229E+01  0.23673210009E+02  0.96031092490E+02  0.91557485344E+02 0.  0.
         13    1    3    3    0    0 -0.36119437883E+02 -0.35690027507E+02  0.90629603111E+01  0.51580425261E+02  0.10566000000E+00 0.  1.
         22    1    1    0    0    0  0.16629763485E+02 -0.14925470229E+01 -0.23673210009E+02  0.28968907510E+02  0.00000000000E+00 0.  1.
</event>
<event>
 5    1  0.1245610E-004  0.9118800E+02  0.7818608E-02  0.1130116E+00
         25   -1    0    0    0    0  0.00000000000E+00  0.00000000000E+00  0.99999998245E-14  0.12500000000E+03  0.12500000000E+03 0.  0.
        -13    1    3    3    0    0 -0.20592086427E+02 -0.42939776343E+02  0.42591763292E+01  0.47812238630E+02  0.10566000000E+00 0. -1.
         23    2    1    0    0    0  0.30132112844E+01 -0.13194597864E+02 -0.25548889223E+02  0.96087673986E+02  0.91634701377E+02 0.  0.
         13    1    3    3    0    0  0.23605297711E+02  0.29745178479E+02 -0.29808065552E+02  0.48275435356E+02  0.10566000000E+00 0.  1.
         22    1    1    0    0    0 -0.30132112844E+01  0.13194597864E+02  0.25548889223E+02  0.28912326014E+02  0.00000000000E+00 0. -1.
</event>
<event>
 5    1  0.1245610E-004  0.9118800E+02  0.7818608E-02  0.1130116E+00
         25   -1    0    0    0    0  0.00000000000E+00  0.00000000000E+00  0.99999998245E-14  0.12500000000E+03  0.12500000000E+03 0.  0.
        -13    1    3    3    0    0  0.43954671779E+02  0.74085164106E+01  0.12551472781E+01  0.44592441571E+02  0.10566000000E+00 0. -1.
         23    2    1    0    0    0  0.48584430410E+01 -0.16189015251E+02 -0.23123101697E+02  0.96357958947E+02  0.92002661574E+02 0.  0.
         13    1    3    3    0    0 -0.39096228738E+02 -0.23597531662E+02 -0.24378248975E+02  0.51765517376E+02  0.10566000000E+00 0.  1.
         22    1    1    0    0    0 -0.48584430410E+01  0.16189015251E+02  0.23123101697E+02  0.28642041053E+02  0.00000000000E+00 0. -1.
</event>
<event>
 5    1  0.1245610E-004  0.9118800E+02  0.7818608E-02  0.1130116E+00
         25   -1    0    0    0    0  0.00000000000E+00  0.00000000000E+00  0.99999998245E-14  0.12500000000E+03  0.12500000000E+03 0.  0.
        -13    1    3    3    0    0  0.41178181033E+02 -0.41122518491E+01 -0.29259767000E+02  0.50682327663E+02  0.10566000000E+00 0. -1.
         23    2    1    0    0    0  0.21889824329E+02  0.15157505392E+02  0.83145606977E+01  0.97106518710E+02  0.93014136977E+02 0.  0.
         13    1    3    3    0    0 -0.19288356703E+02  0.19269757241E+02  0.37574327697E+02  0.46424191047E+02  0.10566000000E+00 0.  1.
         22    1    1    0    0    0 -0.21889824329E+02 -0.15157505392E+02 -0.83145606977E+01  0.27893481290E+02  0.00000000000E+00 0. -1.
</event>
<event>
 5    1  0.1245610E-004  0.9118800E+02  0.7818608E-02  0.1130116E+00
         25   -1    0    0    0    0  0.00000000000E+00  0.00000000000E+00  0.99999998245E-14  0.12500000000E+03  0.12500000000E+03 0.  0.
        -13    1    3    3    0    0  0.45947082617E+01  0.20714063186E+02 -0.45836233051E+02  0.50508961403E+02  0.10566000000E+00 0.  1.
         23    2    1    0    0    0  0.11491520309E+02 -0.14780299403E+02 -0.29206258828E+02  0.90308245300E+02  0.83379022092E+02 0.  0.
         13    1    3    3    0    0  0.68968120468E+01 -0.35494362589E+02  0.16629974223E+02  0.39799283897E+02  0.10566000000E+00 0. -1.
         22    1    1    0    0    0 -0.11491520309E+02  0.14780299403E+02  0.29206258828E+02  0.34691754700E+02  0.00000000000E+00 0.  1.
</event>
<event>
 5    1  0.1245610E-004  0.9118800E+02  0.7818608E-02  0.1130116E+00
         25   -1    0    0    0    0  0.00000000000E+00  0.00000000000E+00  0.99999998245E-14  0.12500000000E+03  0.12500000000E+03 0.  0.
        -13    1    3    3    0    0 -0.31066846093E+02 -0.37270293485E+02  0.30573011371E+02  0.57349314651E+02  0.10566000000E+00 0. -1.
         23    2    1    0    0    0 -0.27770517047E+02 -0.83579134997E+01  0.61174721077E+01  0.95360840091E+02  0.90637795774E+02 0.  0.
         13    1    3    3    0    0  0.32963290460E+01  0.28912379985E+02 -0.24455539263E+02  0.38011525440E+02  0.10566000000E+00 0.  1.
         22    1    1    0    0    0  0.27770517047E+02  0.83579134997E+01 -0.61174721077E+01  0.29639159909E+02  0.00000000000E+00 0. -1.
</event>
<event>
 5    1  0.1245610E-004  0.9118800E+02  0.7818608E-02  0.1130116E+00
         25   -1    0    0    0    0  0.00000000000E+00  0.00000000000E+00  0.99999998245E-14  0.12500000000E+03  0.12500000000E+03 0.  0.
        -13    1    3    3    0    0  0.15333203842E+01  0.13389447720E+02 -0.54587712004E+02  0.56226842767E+02  0.10566000000E+00 0. -1.
         23    2    1    0    0    0  0.14612666774E+02 -0.80532721627E+01 -0.23074217991E+02  0.96525366400E+02  0.92229830315E+02 0.  0.
         13    1    3    3    0    0  0.13079346390E+02 -0.21442719883E+02  0.31513494014E+02  0.40298523633E+02  0.10566000000E+00 0.  1.
         22    1    1    0    0    0 -0.14612666774E+02  0.80532721627E+01  0.23074217991E+02  0.28474633600E+02  0.00000000000E+00 0. -1.
</event>
<event>
 5    1  0.1245610E-004  0.9118800E+02  0.7818608E-02  0.1130116E+00
         25   -1    0    0    0    0  0.00000000000E+00  0.00000000000E+00  0.99999998245E-14  0.12500000000E+03  0.12500000000E+03 0.  0.
        -13    1    3    3    0    0 -0.38952390920E+02  0.63941894883E+01 -0.14765369319E+01  0.39501465073E+02  0.10566000000E+00 0.  1.
         23    2    1    0    0    0  0.16791227563E+02  0.21743632687E+02 -0.31747643079E+01  0.97344801322E+02  0.93333811293E+02 0.  0.
         13    1    3    3    0    0  0.55743618483E+02  0.15349443199E+02 -0.16982273760E+01  0.57843336248E+02  0.10566000000E+00 0. -1.
         22    1    1    0    0    0 -0.16791227563E+02 -0.21743632687E+02  0.31747643079E+01  0.27655198678E+02  0.00000000000E+00 0.  1.
</event>
<event>
 5    1  0.1245610E-004  0.9118800E+02  0.7818608E-02  0.1130116E+00
         25   -1    0    0    0    0  0.00000000000E+00  0.00000000000E+00  0.99999998245E-14  0.12500000000E+03  0.12500000000E+03 0.  0.
        -13    1    3    3    0    0  0.30488131279E+02  0.15621439394E+02  0.33605453288E+01  0.34421794645E+02  0.10566000000E+00 0.  1.
         23    2    1    0    0    0 -0.23711611829E+02 -0.12434965839E+02  0.11245103212E+02  0.95960005902E+02  0.91460381999E+02 0.  0.
         13    1    3    3    0    0 -0.54199743108E+02 -0.28056405233E+02  0.78845578836E+01  0.61538211257E+02  0.10566000000E+00 0. -1.
         22    1    1    0    0    0  0.23711611829E+02  0.12434965839E+02 -0.11245103212E+02  0.29039994098E+02  0.00000000000E+00 0. -1.
</event>
<event>
 5    1  0.1245610E-004  0.9118800E+02  0.7818608E-02  0.1130116E+00
         25   -1    0    0    0    0  0.00000000000E+00  0.00000000000E+00  0.99999998245E-14  0.12500000000E+03  0.12500000000E+03 0.  0.
        -13    1    3    3    0    0 -0.16540502433E+02  0.37001264005E+02 -0.18676204147E+02  0.44626152916E+02  0.10566000000E+00 0.  1.
         23    2    1    0    0    0  0.23637029581E+02  0.16530675108E+02  0.52645648682E+01  0.95679562926E+02  0.91076290721E+02 0.  0.
         13    1    3    3    0    0  0.40177532015E+02 -0.20470588897E+02  0.23940769015E+02  0.51053410010E+02  0.10566000000E+00 0. -1.
         22    1    1    0    0    0 -0.23637029581E+02 -0.16530675108E+02 -0.52645648682E+01  0.29320437074E+02  0.00000000000E+00 0. -1.
</event>
<event>
 5    1  0.1245610E-004  0.9118800E+02  0.7818608E-02  0.1130116E+00
         25   -1    0    0    0    0  0.00000000000E+00  0.00000000000E+00  0.99999998245E-14  0.12500000000E+03  0.12500000000E+03 0.  0.
        -13    1    3    3    0    0  0.31421348434E+02 -0.13508817236E+02  0.46963453885E+02  0.58097903967E+02  0.10566000000E+00 0. -1.
         23    2    1    0    0    0  0.15223040302E+02 -0.20217401632E+02  0.12480638671E+02  0.96782086782E+02  0.92577112158E+02 0.  0.
         13    1    3    3    0    0 -0.16198308133E+02 -0.67085843954E+01 -0.34482815214E+02  0.38684182815E+02  0.10566000000E+00 0.  1.
         22    1    1    0    0    0 -0.15223040302E+02  0.20217401632E+02 -0.12480638671E+02  0.28217913218E+02  0.00000000000E+00 0. -1.
</event>
<event>
 5    1  0.1245610E-004  0.9118800E+02  0.7818608E-02  0.1130116E+00
         25   -1    0    0    0    0  0.00000000000E+00  0.00000000000E+00  0.99999998245E-14  0.12500000000E+03  0.12500000000E+03 0.  0.
        -13    1    3    3    0    0 -0.32545258009E+02 -0.74599030528E+01  0.52241921431E+02  0.62000592669E+02  0.10566000000E+00 0.  1.
         23    2    1    0    0    0 -0.18318288536E+02 -0.84270408398E+00  0.19952007518E+02  0.97901061846E+02  0.94075849512E+02 0.  0.
         13    1    3    3    0    0  0.14226969473E+02  0.66171989688E+01 -0.32289913913E+02  0.35900469177E+02  0.10566000000E+00 0. -1.
         22    1    1    0    0    0  0.18318288536E+02  0.84270408398E+00 -0.19952007518E+02  0.27098938154E+02  0.00000000000E+00 0.  1.
</event>
<event>
 5    1  0.1245610E-004  0.9118800E+02  0.7818608E-02  0.1130116E+00
         25   -1    0    0    0    0  0.00000000000E+00  0.00000000000E+00  0.99999998245E-14  0.12500000000E+03  0.12500000000E+03 0.  0.
        -13    1    3    3    0    0  0.10712237982E+02  0.35095068494E+02 -0.10497738650E+02  0.38165816590E+02  0.10566000000E+00 0.  1.
         23    2    1    0    0    0  0.23728098486E+01 -0.19766051083E+02  0.15810367204E+02  0.99577672940E+02  0.96277817981E+02 0.  0.
         13    1    3    3    0    0 -0.83394281335E+01 -0.54861119576E+02  0.26308105854E+02  0.61411856351E+02  0.10566000000E+00 0. -1.
         22    1    1    0    0    0 -0.23728098486E+01  0.19766051083E+02 -0.15810367204E+02  0.25422327060E+02  0.00000000000E+00 0. -1.
</event>
<event>
 5    1  0.1245610E-004  0.9118800E+02  0.7818608E-02  0.1130116E+00
         25   -1    0    0    0    0  0.00000000000E+00  0.00000000000E+00  0.99999998245E-14  0.12500000000E+03  0.12500000000E+03 0.  0.
        -13    1    3    3    0    0  0.45619783536E+02 -0.19544459732E+02  0.17314763694E+02  0.52563892187E+02  0.10566000000E+00 0.  1.
         23    2    1    0    0    0  0.18819621803E+02 -0.15828074523E+02 -0.16136289403E+02  0.95587656612E+02  0.90950064062E+02 0.  0.
         13    1    3    3    0    0 -0.26800161733E+02  0.37163852094E+01 -0.33451053096E+02  0.43023764424E+02  0.10566000000E+00 0. -1.
         22    1    1    0    0    0 -0.18819621803E+02  0.15828074523E+02  0.16136289403E+02  0.29412343388E+02  0.00000000000E+00 0.  1.
</event>
<event>
 5    1  0.1245610E-004  0.9118800E+02  0.7818608E-02  0.1130116E+00
         25   -1    0    0    0    0  0.00000000000E+00  0.00000000000E+00  0.99999998245E-14  0.12500000000E+03  0.12500000000E+03 0.  0.
        -13    1    3    3    0    0  0.30087945206E+02  0.63873765957E+01  0.67802042759E+01  0.31497069079E+02  0.10566000000E+00 0.  1.
         23    2    1    0    0    0 -0.29890992356E+02 -0.30438626012E+01 -0.78397605592E+01  0.93948456251E+02  0.88668562991E+02 0.  0.
         13    1    3    3    0    0 -0.59978937562E+02 -0.94312391969E+01 -0.14619964835E+02  0.62451387172E+02  0.10566000000E+00 0. -1.
         22    1    1    0    0    0  0.29890992356E+02  0.30438626012E+01  0.78397605592E+01  0.31051543749E+02  0.00000000000E+00 0. -1.
</event>
<event>
 5    1  0.1245610E-004  0.9118800E+02  0.7818608E-02  0.1130116E+00
         25   -1    0    0    0    0  0.00000000000E+00  0.00000000000E+00  0.99999998245E-14  0.12500000000E+03  0.12500000000E+03 0.  0.
        -13    1    3    3    0    0 -0.16673686861E+02  0.32106787086E+02  0.19017753114E+02  0.40872285329E+02  0.10566000000E+00 0.  1.
         23    2    1    0    0    0 -0.23718638475E+02 -0.14298540560E+02 -0.94134183714E+01  0.95748768937E+02  0.91171224815E+02 0.  0.
         13    1    3    3    0    0 -0.70449516138E+01 -0.46405327646E+02 -0.28431171485E+02  0.54876483608E+02  0.10566000000E+00 0. -1.
         22    1    1    0    0    0  0.23718638475E+02  0.14298540560E+02  0.94134183714E+01  0.29251231063E+02  0.00000000000E+00 0. -1.
</event>
<event>
 5    1  0.1245610E-004  0.9118800E+02  0.7818608E-02  0.1130116E+00
         25   -1    0    0    0    0  0.00000000000E+00  0.00000000000E+00  0.99999998245E-14  0.12500000000E+03  0.12500000000E+03 0.  0.
        -13    1    3    3    0    0  0.23074345564E+02 -0.12082790276E+01  0.50365191101E+02  0.55412534684E+02  0.10566000000E+00 0.  1.
         23    2    1    0    0    0 -0.55706866950E+01 -0.14714743105E+02  0.22167091677E+02  0.97816619631E+02  0.93963582880E+02 0.  0.
         13    1    3    3    0    0 -0.28645032259E+02 -0.13506464077E+02 -0.28198099424E+02  0.42404084947E+02  0.10566000000E+00 0. -1.
         22    1    1    0    0    0  0.55706866950E+01  0.14714743105E+02 -0.22167091677E+02  0.27183380369E+02  0.00000000000E+00 0.  1.
</event>
<event>
 5    1  0.1245610E-004  0.9118800E+02  0.7818608E-02  0.1130116E+00
         25   -1    0    0    0    0  0.00000000000E+00  0.00000000000E+00  0.99999998245E-14  0.12500000000E+03  0.12500000000E+03 0.  0.
        -13    1    3    3    0    0 -0.16575926477E+02  0.12379134735E+02  0.26832453243E+02  0.33882090054E+02  0.10566000000E+00 0.  1.
         23    2    1    0    0    0  0.13929100714E+02 -0.21297453359E+02 -0.14843844934E+02  0.95539159911E+02  0.90883386699E+02 0.  0.
         13    1    3    3    0    0  0.30505027191E+02 -0.33676588094E+02 -0.41676298178E+02  0.61657069857E+02  0.10566000000E+00 0. -1.
         22    1    1    0    0    0 -0.13929100714E+02  0.21297453359E+02  0.14843844934E+02  0.29460840089E+02  0.00000000000E+00 0. -1.
</event>
<event>
 5    1  0.1245610E-004  0.9118800E+02  0.7818608E-02  0.1130116E+00
         25   -1    0    0    0    0  0.00000000000E+00  0.00000000000E+00  0.99999998245E-14  0.12500000000E+03  0.12500000000E+03 0.  0.
        -13    1    3    3    0    0  0.26275810967E+02  0.25733134300E+02  0.19949788053E+02  0.41840383008E+02  0.10566000000E+00 0. -1.
         23    2    1    0    0    0 -0.23871974652E+02  0.68050484368E+01  0.15741651119E+02  0.95606472856E+02  0.90975921067E+02 0.  0.
         13    1    3    3    0    0 -0.50147785620E+02 -0.18928085863E+02 -0.42081369344E+01  0.53766089848E+02  0.10566000000E+00 0.  1.
         22    1    1    0    0    0  0.23871974652E+02 -0.68050484368E+01 -0.15741651119E+02  0.29393527144E+02  0.00000000000E+00 0. -1.
</event>
<event>
 5    1  0.1245610E-004  0.9118800E+02  0.7818608E-02  0.1130116E+00
         25   -1    0    0    0    0  0.00000000000E+00  0.00000000000E+00  0.99999998245E-14  0.12500000000E+03  0.12500000000E+03 0.  0.
        -13    1    3    3    0    0 -0.38937493251E+02 -0.95997656509E+01  0.20478406544E+02  0.45029547853E+02  0.10566000000E+00 0. -1.
         23    2    1    0    0    0 -0.18615817478E+01 -0.27599405528E+02 -0.92338418040E+01  0.95837412554E+02  0.91292678449E+02 0.  0.
         13    1    3    3    0    0  0.37075911504E+02 -0.17999639877E+02 -0.29712248348E+02  0.50807864701E+02  0.10566000000E+00 0.  1.
         22    1    1    0    0    0  0.18615817478E+01  0.27599405528E+02  0.92338418040E+01  0.29162587446E+02  0.00000000000E+00 0. -1.
</event>
<event>
 5    1  0.1245610E-004  0.9118800E+02  0.7818608E-02  0.1130116E+00
         25   -1    0    0    0    0  0.00000000000E+00  0.00000000000E+00  0.99999998245E-14  0.12500000000E+03  0.12500000000E+03 0.  0.
        -13    1    3    3    0    0 -0.15941420736E+02 -0.20796963413E+02 -0.23260998069E+02  0.35038946581E+02  0.10566000000E+00 0.  1.
         23    2    1    0    0    0 -0.19975223385E+02  0.10230442988E+02  0.24269986380E+02  0.91943930181E+02  0.85796168593E+02 0.  0.
         13    1    3    3    0    0 -0.40338026496E+01  0.31027406401E+02  0.47530984449E+02  0.56904983600E+02  0.10566000000E+00 0. -1.
         22    1    1    0    0    0  0.19975223385E+02 -0.10230442988E+02 -0.24269986380E+02  0.33056069819E+02  0.00000000000E+00 0. -1.
</event>
<event>
 5    1  0.1245610E-004  0.9118800E+02  0.7818608E-02  0.1130116E+00
         25   -1    0    0    0    0  0.00000000000E+00  0.00000000000E+00  0.99999998245E-14  0.12500000000E+03  0.12500000000E+03 0.  0.
        -13    1    3    3    0    0 -0.26594878615E+01 -0.44853064519E+02  0.41100468417E+02  0.60894416333E+02  0.10566000000E+00 0.  1.
         23    2    1    0    0    0  0.39058258474E+01 -0.14654663188E+02  0.25046703991E+02  0.95719426073E+02  0.91130985500E+02 0.  0.
         13    1    3    3    0    0  0.65653137089E+01  0.30198401331E+02 -0.16053764427E+02  0.34825009740E+02  0.10566000000E+00 0. -1.
         22    1    1    0    0    0 -0.39058258474E+01  0.14654663188E+02 -0.25046703991E+02  0.29280573927E+02  0.00000000000E+00 0.  1.
</event>
<event>
 5    1  0.1245610E-004  0.9118800E+02  0.7818608E-02  0.1130116E+00
         25   -1    0    0    0    0  0.00000000000E+00  0.00000000000E+00  0.99999998245E-14  0.12500000000E+03  0.12500000000E+03 0.  0.
        -13    1    3    3    0    0  0.43741197963E+02  0.54433366628E+01 -0.23047684192E+02  0.49740619457E+02  0.10566000000E+00 0.  1.
         23    2    1    0    0    0  0.70128423492E+00  0.21871008051E+02 -0.19058769696E+02  0.95981566288E+02  0.91489844093E+02 0.  0.
         13    1    3    3    0    0 -0.43039913728E+02  0.16427671388E+02  0.39889144962E+01  0.46240946832E+02  0.10566000000E+00 0. -1.
         22    1    1    0    0    0 -0.70128423492E+00 -0.21871008051E+02  0.19058769696E+02  0.29018433712E+02  0.00000000000E+00 0.  1.
</event>
<event>
 5    1  0.1245610E-004  0.9118800E+02  0.7818608E-02  0.1130116E+00
         25   -1    0    0    0    0  0.00000000000E+00  0.00000000000E+00  0.99999998245E-14  0.12500000000E+03  0.12500000000E+03 0.  0.
        -13    1    3    3    0    0  0.43935247853E+02  0.11022880890E+01 -0.67407717293E+01  0.44463133161E+02  0.10566000000E+00 0.  1.
         23    2    1    0    0    0 -0.56094840369E+01  0.18698260119E+02 -0.18240565758E+02  0.98282786788E+02  0.94581693244E+02 0.  0.
         13    1    3    3    0    0 -0.49544731890E+02  0.17595972030E+02 -0.11499794029E+02  0.53819653627E+02  0.10566000000E+00 0. -1.
         22    1    1    0    0    0  0.56094840369E+01 -0.18698260119E+02  0.18240565758E+02  0.26717213212E+02  0.00000000000E+00 0. -1.
</event>
<event>
 5    1  0.1245610E-004  0.9118800E+02  0.7818608E-02  0.1130116E+00
         25   -1    0    0    0    0  0.00000000000E+00  0.00000000000E+00  0.99999998245E-14  0.12500000000E+03  0.12500000000E+03 0.  0.
        -13    1    3    3    0    0  0.80464183394E+01  0.52428703182E+02  0.23859835813E+02  0.58161986679E+02  0.10566000000E+00 0.  1.
         23    2    1    0    0    0 -0.44028292740E+01  0.17922381835E+02  0.23847353087E+02  0.94845515665E+02  0.89924295473E+02 0.  0.
         13    1    3    3    0    0 -0.12449247613E+02 -0.34506321347E+02 -0.12482725689E-01  0.36683528986E+02  0.10566000000E+00 0. -1.
         22    1    1    0    0    0  0.44028292740E+01 -0.17922381835E+02 -0.23847353087E+02  0.30154484335E+02  0.00000000000E+00 0.  1.
</event>
<event>
 5    1  0.1245610E-004  0.9118800E+02  0.7818608E-02  0.1130116E+00
         25   -1    0    0    0    0  0.00000000000E+00  0.00000000000E+00  0.99999998245E-14  0.12500000000E+03  0.12500000000E+03 0.  0.
        -13    1    3    3    0    0  0.61758053621E+02 -0.72128659835E+01 -0.62720303550E+01  0.62493456870E+02  0.10566000000E+00 0. -1.
         23    2    1    0    0    0  0.30363178846E+02 -0.36937074762E+01 -0.37087272560E+01  0.94188950644E+02  0.89006952880E+02 0.  0.
         13    1    3    3    0    0 -0.31394874775E+02  0.35191585073E+01  0.25633030990E+01  0.31695493774E+02  0.10566000000E+00 0.  1.
         22    1    1    0    0    0 -0.30363178846E+02  0.36937074762E+01  0.37087272560E+01  0.30811049356E+02  0.00000000000E+00 0. -1.
</event>
<event>
 5    1  0.1245610E-004  0.9118800E+02  0.7818608E-02  0.1130116E+00
         25   -1    0    0    0    0  0.00000000000E+00  0.00000000000E+00  0.99999998245E-14  0.12500000000E+03  0.12500000000E+03 0.  0.
        -13    1    3    3    0    0  0.52728071417E+02 -0.92614087571E+01  0.23337352873E+02  0.58400911043E+02  0.10566000000E+00 0.  1.
         23    2    1    0    0    0  0.21158323684E+02 -0.14388659020E+02  0.23313628762E+02  0.90384491112E+02  0.83493249895E+02 0.  0.
         13    1    3    3    0    0 -0.31569747733E+02 -0.51272502633E+01 -0.23724110251E-01  0.31983580069E+02  0.10566000000E+00 0. -1.
         22    1    1    0    0    0 -0.21158323684E+02  0.14388659020E+02 -0.23313628762E+02  0.34615508888E+02  0.00000000000E+00 0.  1.
</event>
<event>
 5    1  0.1245610E-004  0.9118800E+02  0.7818608E-02  0.1130116E+00
         25   -1    0    0    0    0  0.00000000000E+00  0.00000000000E+00  0.99999998245E-14  0.12500000000E+03  0.12500000000E+03 0.  0.
        -13    1    3    3    0    0  0.94584391489E+01 -0.22474464408E+01  0.54932285249E+02  0.55786021666E+02  0.10566000000E+00 0.  1.
         23    2    1    0    0    0  0.85282904665E+01  0.18580750124E+02  0.20437616640E+02  0.96092004785E+02  0.91640608882E+02 0.  0.
         13    1    3    3    0    0 -0.93014868234E+00  0.20828196565E+02 -0.34494668609E+02  0.40305983119E+02  0.10566000000E+00 0. -1.
         22    1    1    0    0    0 -0.85282904665E+01 -0.18580750124E+02 -0.20437616640E+02  0.28907995215E+02  0.00000000000E+00 0. -1.
</event>
<event>
 5    1  0.1245610E-004  0.9118800E+02  0.7818608E-02  0.1130116E+00
         25   -1    0    0    0    0  0.00000000000E+00  0.00000000000E+00  0.99999998245E-14  0.12500000000E+03  0.12500000000E+03 0.  0.
        -13    1    3    3    0    0  0.83604014318E+01 -0.35720401623E+02  0.42394399440E+02  0.56063710831E+02  0.10566000000E+00 0.  1.
         23    2    1    0    0    0  0.21602251901E+02 -0.17975020843E+02  0.10269875522E+02  0.95079622250E+02  0.90249130536E+02 0.  0.
         13    1    3    3    0    0  0.13241850469E+02  0.17745380780E+02 -0.32124523918E+02  0.39015911419E+02  0.10566000000E+00 0. -1.
         22    1    1    0    0    0 -0.21602251901E+02  0.17975020843E+02 -0.10269875522E+02  0.29920377750E+02  0.00000000000E+00 0.  1.
</event>
<event>
 5    1  0.1245610E-004  0.9118800E+02  0.7818608E-02  0.1130116E+00
         25   -1    0    0    0    0  0.00000000000E+00  0.00000000000E+00  0.99999998245E-14  0.12500000000E+03  0.12500000000E+03 0.  0.
        -13    1    3    3    0    0 -0.21792122929E+02  0.26724740556E+02 -0.27811558639E+02  0.44301267899E+02  0.10566000000E+00 0.  1.
         23    2    1    0    0    0 -0.24863840440E+02 -0.15827578951E+02  0.53143387899E+00  0.95521105196E+02  0.90858551051E+02 0.  0.
         13    1    3    3    0    0 -0.30717175113E+01 -0.42552319506E+02  0.28342992518E+02  0.51219837297E+02  0.10566000000E+00 0. -1.
         22    1    1    0    0    0  0.24863840440E+02  0.15827578951E+02 -0.53143387899E+00  0.29478894804E+02  0.00000000000E+00 0.  1.
</event>
<event>
 5    1  0.1245610E-004  0.9118800E+02  0.7818608E-02  0.1130116E+00
         25   -1    0    0    0    0  0.00000000000E+00  0.00000000000E+00  0.99999998245E-14  0.12500000000E+03  0.12500000000E+03 0.  0.
        -13    1    3    3    0    0 -0.31703281536E+02  0.17490239344E+02 -0.24272113752E+01  0.36289241540E+02  0.10566000000E+00 0.  1.
         23    2    1    0    0    0  0.71784374417E+01 -0.21042665603E+02  0.19662671559E+02  0.95319292586E+02  0.90580478837E+02 0.  0.
         13    1    3    3    0    0  0.38881718978E+02 -0.38532904946E+02  0.22089882935E+02  0.59030051045E+02  0.10566000000E+00 0. -1.
         22    1    1    0    0    0 -0.71784374417E+01  0.21042665603E+02 -0.19662671559E+02  0.29680707414E+02  0.00000000000E+00 0. -1.
</event>
<event>
 5    1  0.1245610E-004  0.9118800E+02  0.7818608E-02  0.1130116E+00
         25   -1    0    0    0    0  0.00000000000E+00  0.00000000000E+00  0.99999998245E-14  0.12500000000E+03  0.12500000000E+03 0.  0.
        -13    1    3    3    0    0 -0.50707412911E+02 -0.12748248958E+02 -0.25059900391E+02  0.57980767046E+02  0.10566000000E+00 0.  1.
         23    2    1    0    0    0 -0.20245054776E+02  0.67063203480E+01 -0.22164306611E+02  0.94241367667E+02  0.89080536127E+02 0.  0.
         13    1    3    3    0    0  0.30462358135E+02  0.19454569306E+02  0.28955937803E+01  0.36260600621E+02  0.10566000000E+00 0. -1.
         22    1    1    0    0    0  0.20245054776E+02 -0.67063203480E+01  0.22164306611E+02  0.30758632333E+02  0.00000000000E+00 0.  1.
</event>
<event>
 5    1  0.1245610E-004  0.9118800E+02  0.7818608E-02  0.1130116E+00
         25   -1    0    0    0    0  0.00000000000E+00  0.00000000000E+00  0.99999998245E-14  0.12500000000E+03  0.12500000000E+03 0.  0.
        -13    1    3    3    0    0  0.30384237675E+02  0.33262639851E+02  0.32123025527E+02  0.55330868798E+02  0.10566000000E+00 0.  1.
         23    2    1    0    0    0  0.20212733562E+01  0.26870344649E+02  0.83720666877E+00  0.98040736610E+02  0.94261254779E+02 0.  0.
         13    1    3    3    0    0 -0.28362964318E+02 -0.63922952021E+01 -0.31285818858E+02  0.42709867812E+02  0.10566000000E+00 0. -1.
         22    1    1    0    0    0 -0.20212733562E+01 -0.26870344649E+02 -0.83720666877E+00  0.26959263390E+02  0.00000000000E+00 0.  1.
</event>
<event>
 5    1  0.1245610E-004  0.9118800E+02  0.7818608E-02  0.1130116E+00
         25   -1    0    0    0    0  0.00000000000E+00  0.00000000000E+00  0.99999998245E-14  0.12500000000E+03  0.12500000000E+03 0.  0.
        -13    1    3    3    0    0 -0.19877474023E+02  0.12210778750E+02 -0.37144809195E+02  0.43863026633E+02  0.10566000000E+00 0.  1.
         23    2    1    0    0    0 -0.14078035978E+02  0.26232118813E+02  0.10160911311E+02  0.93542738945E+02  0.88094748630E+02 0.  0.
         13    1    3    3    0    0  0.57994380445E+01  0.14021340062E+02  0.47305720506E+02  0.49679712312E+02  0.10566000000E+00 0. -1.
         22    1    1    0    0    0  0.14078035978E+02 -0.26232118813E+02 -0.10160911311E+02  0.31457261055E+02  0.00000000000E+00 0. -1.
</event>
<event>
 5    1  0.1245610E-004  0.9118800E+02  0.7818608E-02  0.1130116E+00
         25   -1    0    0    0    0  0.00000000000E+00  0.00000000000E+00  0.99999998245E-14  0.12500000000E+03  0.12500000000E+03 0.  0.
        -13    1    3    3    0    0 -0.17866049720E+02 -0.81372506567E+01  0.30060583514E+02  0.35903487659E+02  0.10566000000E+00 0.  1.
         23    2    1    0    0    0 -0.22506977134E+01 -0.50465341100E+01 -0.28181532967E+02  0.96281853348E+02  0.91899202048E+02 0.  0.
         13    1    3    3    0    0  0.15615352006E+02  0.30907165467E+01 -0.58242116481E+02  0.60378365689E+02  0.10566000000E+00 0. -1.
         22    1    1    0    0    0  0.22506977134E+01  0.50465341100E+01  0.28181532967E+02  0.28718146652E+02  0.00000000000E+00 0. -1.
</event>
<event>
 5    1  0.1245610E-004  0.9118800E+02  0.7818608E-02  0.1130116E+00
         25   -1    0    0    0    0  0.00000000000E+00  0.00000000000E+00  0.99999998245E-14  0.12500000000E+03  0.12500000000E+03 0.  0.
        -13    1    3    3    0    0  0.37086032305E+02  0.61052418622E+01 -0.41724105108E+02  0.56156565791E+02  0.10566000000E+00 0.  1.
         23    2    1    0    0    0  0.32290924059E+02 -0.35842329762E+01 -0.80435274740E+01  0.91529881434E+02  0.85190787991E+02 0.  0.
         13    1    3    3    0    0 -0.47951082465E+01 -0.96894748384E+01  0.33680577634E+02  0.35373315643E+02  0.10566000000E+00 0. -1.
         22    1    1    0    0    0 -0.32290924059E+02  0.35842329762E+01  0.80435274740E+01  0.33470118566E+02  0.00000000000E+00 0.  1.
</event>
<event>
 5    1  0.1245610E-004  0.9118800E+02  0.7818608E-02  0.1130116E+00
         25   -1    0    0    0    0  0.00000000000E+00  0.00000000000E+00  0.99999998245E-14  0.12500000000E+03  0.12500000000E+03 0.  0.
        -13    1    3    3    0    0  0.30552321842E+02  0.41129256423E+02  0.20076283658E+02  0.55028432954E+02  0.10566000000E+00 0.  1.
         23    2    1    0    0    0  0.21545003551E+02  0.16953395908E+02 -0.11036499546E+02  0.95446503877E+02  0.90755859146E+02 0.  0.
         13    1    3    3    0    0 -0.90073182908E+01 -0.24175860515E+02 -0.31112783204E+02  0.40418070923E+02  0.10566000000E+00 0. -1.
         22    1    1    0    0    0 -0.21545003551E+02 -0.16953395908E+02  0.11036499546E+02  0.29553496123E+02  0.00000000000E+00 0.  1.
</event>
<event>
 5    1  0.1245610E-004  0.9118800E+02  0.7818608E-02  0.1130116E+00
         25   -1    0    0    0    0  0.00000000000E+00  0.00000000000E+00  0.99999998245E-14  0.12500000000E+03  0.12500000000E+03 0.  0.
        -13    1    3    3    0    0 -0.94476831808E+01  0.23047454931E+02  0.37119990100E+02  0.44702893925E+02  0.10566000000E+00 0. -1.
         23    2    1    0    0    0 -0.36904339852E+00  0.25944160328E+02 -0.13179918625E+02  0.95897664988E+02  0.91375140203E+02 0.  0.
         13    1    3    3    0    0  0.90786397823E+01  0.28967053979E+01 -0.50299908724E+02  0.51194771063E+02  0.10566000000E+00 0.  1.
         22    1    1    0    0    0  0.36904339852E+00 -0.25944160328E+02  0.13179918625E+02  0.29102335012E+02  0.00000000000E+00 0. -1.
</event>
<event>
 5    1  0.1245610E-004  0.9118800E+02  0.7818608E-02  0.1130116E+00
         25   -1    0    0    0    0  0.00000000000E+00  0.00000000000E+00  0.99999998245E-14  0.12500000000E+03  0.12500000000E+03 0.  0.
        -13    1    3    3    0    0 -0.25246736689E+02 -0.16269562967E+02 -0.38156657465E+02  0.48559634117E+02  0.10566000000E+00 0.  1.
         23    2    1    0    0    0 -0.31402129403E+02 -0.20618547289E+02 -0.20220015583E-01  0.87433809986E+02  0.78952216539E+02 0.  0.
         13    1    3    3    0    0 -0.61553927138E+01 -0.43489843225E+01  0.38136437450E+02  0.38874175869E+02  0.10566000000E+00 0. -1.
         22    1    1    0    0    0  0.31402129403E+02  0.20618547289E+02  0.20220015583E-01  0.37566190014E+02  0.00000000000E+00 0.  1.
</event>
<event>
 5    1  0.1245610E-004  0.9118800E+02  0.7818608E-02  0.1130116E+00
         25   -1    0    0    0    0  0.00000000000E+00  0.00000000000E+00  0.99999998245E-14  0.12500000000E+03  0.12500000000E+03 0.  0.
        -13    1    3    3    0    0 -0.28585630403E+02  0.39438776194E+02 -0.94383766708E+01  0.49615012359E+02  0.10566000000E+00 0. -1.
         23    2    1    0    0    0 -0.18431050480E+02 -0.27827736419E+01 -0.23265087388E+02  0.95188731290E+02  0.90400126231E+02 0.  0.
         13    1    3    3    0    0  0.10154579924E+02 -0.42221549835E+02 -0.13826710717E+02  0.45573718931E+02  0.10566000000E+00 0.  1.
         22    1    1    0    0    0  0.18431050480E+02  0.27827736419E+01  0.23265087388E+02  0.29811268710E+02  0.00000000000E+00 0.  1.
</event>
<event>
 5    1  0.1245610E-004  0.9118800E+02  0.7818608E-02  0.1130116E+00
         25   -1    0    0    0    0  0.00000000000E+00  0.00000000000E+00  0.99999998245E-14  0.12500000000E+03  0.12500000000E+03 0.  0.
        -13    1    3    3    0    0  0.22048554110E+02 -0.39971534224E+02  0.49674619538E+01  0.45918940851E+02  0.10566000000E+00 0. -1.
         23    2    1    0    0    0  0.43380755682E+02 -0.14636460141E+02  0.37919233410E+01  0.79059880152E+02  0.64342598938E+02 0.  0.
         13    1    3    3    0    0  0.21332201572E+02  0.25335074084E+02 -0.11755386128E+01  0.33140939301E+02  0.10566000000E+00 0.  1.
         22    1    1    0    0    0 -0.43380755682E+02  0.14636460141E+02 -0.37919233410E+01  0.45940119848E+02  0.00000000000E+00 0.  1.
</event>
<event>
 5    1  0.1245610E-004  0.9118800E+02  0.7818608E-02  0.1130116E+00
         25   -1    0    0    0    0  0.00000000000E+00  0.00000000000E+00  0.99999998245E-14  0.12500000000E+03  0.12500000000E+03 0.  0.
        -13    1    3    3    0    0 -0.12643474017E+01  0.52177933366E+02 -0.12168649319E+02  0.53593119848E+02  0.10566000000E+00 0. -1.
         23    2    1    0    0    0  0.91289658733E+01  0.16472069683E+02 -0.25675742227E+02  0.93158033408E+02  0.87547177864E+02 0.  0.
         13    1    3    3    0    0  0.10393313275E+02 -0.35705863683E+02 -0.13507092908E+02  0.39564913560E+02  0.10566000000E+00 0.  1.
         22    1    1    0    0    0 -0.91289658733E+01 -0.16472069683E+02  0.25675742227E+02  0.31841966592E+02  0.00000000000E+00 0. -1.
</event>
<event>
 5    1  0.1245610E-004  0.9118800E+02  0.7818608E-02  0.1130116E+00
         25   -1    0    0    0    0  0.00000000000E+00  0.00000000000E+00  0.99999998245E-14  0.12500000000E+03  0.12500000000E+03 0.  0.
        -13    1    3    3    0    0 -0.44394236757E+01  0.27422990595E+02 -0.28199775453E+02  0.39584938997E+02  0.10566000000E+00 0. -1.
         23    2    1    0    0    0 -0.20154448566E+02 -0.40924343114E+01  0.17995354860E+02  0.97672676455E+02  0.93771899383E+02 0.  0.
         13    1    3    3    0    0 -0.15715024890E+02 -0.31515424907E+02  0.46195130313E+02  0.58087737458E+02  0.10566000000E+00 0.  1.
         22    1    1    0    0    0  0.20154448566E+02  0.40924343114E+01 -0.17995354860E+02  0.27327323545E+02  0.00000000000E+00 0.  1.
</event>
<event>
 5    1  0.1245610E-004  0.9118800E+02  0.7818608E-02  0.1130116E+00
         25   -1    0    0    0    0  0.00000000000E+00  0.00000000000E+00  0.99999998245E-14  0.12500000000E+03  0.12500000000E+03 0.  0.
        -13    1    3    3    0    0 -0.20123175913E+02 -0.69891365373E+01  0.50078693449E+02  0.54421291237E+02  0.10566000000E+00 0.  1.
         23    2    1    0    0    0  0.10821479996E+02 -0.39760649495E+01  0.33320836118E+02  0.89741077138E+02  0.82524355704E+02 0.  0.
         13    1    3    3    0    0  0.30944655909E+02  0.30130715878E+01 -0.16757857330E+02  0.35319785900E+02  0.10566000000E+00 0. -1.
         22    1    1    0    0    0 -0.10821479996E+02  0.39760649495E+01 -0.33320836118E+02  0.35258922862E+02  0.00000000000E+00 0.  1.
</event>
<event>
 5    1  0.1245610E-004  0.9118800E+02  0.7818608E-02  0.1130116E+00
         25   -1    0    0    0    0  0.00000000000E+00  0.00000000000E+00  0.99999998245E-14  0.12500000000E+03  0.12500000000E+03 0.  0.
        -13    1    3    3    0    0 -0.22304651817E+02  0.31791453732E+02 -0.11377254323E+02  0.40467852711E+02  0.10566000000E+00 0.  1.
         23    2    1    0    0    0 -0.65021954803E+01 -0.20550078192E+02 -0.19732278125E+02  0.95777627410E+02  0.91210782545E+02 0.  0.
         13    1    3    3    0    0  0.15802456337E+02 -0.52341531924E+02 -0.83550238018E+01  0.55309774699E+02  0.10566000000E+00 0. -1.
         22    1    1    0    0    0  0.65021954803E+01  0.20550078192E+02  0.19732278125E+02  0.29222372590E+02  0.00000000000E+00 0. -1.
</event>
<event>
 5    1  0.1245610E-004  0.9118800E+02  0.7818608E-02  0.1130116E+00
         25   -1    0    0    0    0  0.00000000000E+00  0.00000000000E+00  0.99999998245E-14  0.12500000000E+03  0.12500000000E+03 0.  0.
        -13    1    3    3    0    0  0.17760631048E+01  0.25458245084E+02 -0.23239707323E+02  0.34516254192E+02  0.10566000000E+00 0.  1.
         23    2    1    0    0    0  0.36609002691E+02  0.26926482927E+02  0.48617245292E+01  0.79295613709E+02  0.64798946189E+02 0.  0.
         13    1    3    3    0    0  0.34832939586E+02  0.14682378426E+01  0.28101431852E+02  0.44779359517E+02  0.10566000000E+00 0. -1.
         22    1    1    0    0    0 -0.36609002691E+02 -0.26926482927E+02 -0.48617245292E+01  0.45704386291E+02  0.00000000000E+00 0.  1.
</event>
<event>
 5    1  0.1245610E-004  0.9118800E+02  0.7818608E-02  0.1130116E+00
         25   -1    0    0    0    0  0.00000000000E+00  0.00000000000E+00  0.99999998245E-14  0.12500000000E+03  0.12500000000E+03 0.  0.
        -13    1    3    3    0    0  0.53567031379E+02  0.92396762746E+01 -0.15051436552E+02  0.56403504987E+02  0.10566000000E+00 0.  1.
         23    2    1    0    0    0  0.24750738851E+02  0.13492445753E+02  0.10268526676E+02  0.94998536600E+02  0.90136752493E+02 0.  0.
         13    1    3    3    0    0 -0.28816292529E+02  0.42527694789E+01  0.25319963228E+02  0.38595031613E+02  0.10566000000E+00 0. -1.
         22    1    1    0    0    0 -0.24750738851E+02 -0.13492445753E+02 -0.10268526676E+02  0.30001463400E+02  0.00000000000E+00 0.  1.
</event>
<event>
 5    1  0.1245610E-004  0.9118800E+02  0.7818608E-02  0.1130116E+00
         25   -1    0    0    0    0  0.00000000000E+00  0.00000000000E+00  0.99999998245E-14  0.12500000000E+03  0.12500000000E+03 0.  0.
        -13    1    3    3    0    0 -0.32189695206E+02  0.65091003467E+01  0.14035922333E+02  0.35715026873E+02  0.10566000000E+00 0.  1.
         23    2    1    0    0    0  0.24474399162E+02 -0.12393378731E+02  0.10738170257E+02  0.95539851474E+02  0.90884337861E+02 0.  0.
         13    1    3    3    0    0  0.56664094367E+02 -0.18902479078E+02 -0.32977520757E+01  0.59824824601E+02  0.10566000000E+00 0. -1.
         22    1    1    0    0    0 -0.24474399162E+02  0.12393378731E+02 -0.10738170257E+02  0.29460148526E+02  0.00000000000E+00 0. -1.
</event>
<event>
 5    1  0.1245610E-004  0.9118800E+02  0.7818608E-02  0.1130116E+00
         25   -1    0    0    0    0  0.00000000000E+00  0.00000000000E+00  0.99999998245E-14  0.12500000000E+03  0.12500000000E+03 0.  0.
        -13    1    3    3    0    0  0.29585442056E+01  0.43939940475E+02 -0.83762927675E+01  0.44829061972E+02  0.10566000000E+00 0. -1.
         23    2    1    0    0    0  0.29599825660E+02  0.15272785480E+01 -0.36276603975E+01  0.95139621924E+02  0.90332195152E+02 0.  0.
         13    1    3    3    0    0  0.26641281455E+02 -0.42412661927E+02  0.47486323700E+01  0.50310559952E+02  0.10566000000E+00 0.  1.
         22    1    1    0    0    0 -0.29599825660E+02 -0.15272785480E+01  0.36276603975E+01  0.29860378076E+02  0.00000000000E+00 0.  1.
</event>
<event>
 5    1  0.1245610E-004  0.9118800E+02  0.7818608E-02  0.1130116E+00
         25   -1    0    0    0    0  0.00000000000E+00  0.00000000000E+00  0.99999998245E-14  0.12500000000E+03  0.12500000000E+03 0.  0.
        -13    1    3    3    0    0 -0.71538196237E+01  0.53480535230E+02 -0.20265041624E+02  0.57637035487E+02  0.10566000000E+00 0. -1.
         23    2    1    0    0    0  0.75377891198E+01  0.31191603399E+02  0.26262393538E+01  0.92803237421E+02  0.87039125428E+02 0.  0.
         13    1    3    3    0    0  0.14691608743E+02 -0.22288931831E+02  0.22891280978E+02  0.35166201934E+02  0.10566000000E+00 0.  1.
         22    1    1    0    0    0 -0.75377891198E+01 -0.31191603399E+02 -0.26262393538E+01  0.32196762579E+02  0.00000000000E+00 0. -1.
</event>
<event>
 5    1  0.1245610E-004  0.9118800E+02  0.7818608E-02  0.1130116E+00
         25   -1    0    0    0    0  0.00000000000E+00  0.00000000000E+00  0.99999998245E-14  0.12500000000E+03  0.12500000000E+03 0.  0.
        -13    1    3    3    0    0 -0.41577885188E+02 -0.90224519348E+01  0.42597620916E+02  0.60205428720E+02  0.10566000000E+00 0. -1.
         23    2    1    0    0    0 -0.21300591374E+02  0.68333719821E+01  0.25354403680E+02  0.91187931866E+02  0.84687560872E+02 0.  0.
         13    1    3    3    0    0  0.20277293814E+02  0.15855823917E+02 -0.17243217236E+02  0.30982503146E+02  0.10566000000E+00 0.  1.
         22    1    1    0    0    0  0.21300591374E+02 -0.68333719821E+01 -0.25354403680E+02  0.33812068134E+02  0.00000000000E+00 0. -1.
</event>
<event>
 5    1  0.1245610E-004  0.9118800E+02  0.7818608E-02  0.1130116E+00
         25   -1    0    0    0    0  0.00000000000E+00  0.00000000000E+00  0.99999998245E-14  0.12500000000E+03  0.12500000000E+03 0.  0.
        -13    1    3    3    0    0  0.37651970948E+02 -0.47744645070E+02 -0.10631953669E+02  0.61727397904E+02  0.10566000000E+00 0.  1.
         23    2    1    0    0    0  0.11664224786E+02 -0.22742818813E+02  0.39439382791E+00  0.99437420046E+02  0.96095551466E+02 0.  0.
         13    1    3    3    0    0 -0.25987746162E+02  0.25001826258E+02  0.11026347497E+02  0.37710022142E+02  0.10566000000E+00 0. -1.
         22    1    1    0    0    0 -0.11664224786E+02  0.22742818813E+02 -0.39439382791E+00  0.25562579954E+02  0.00000000000E+00 0.  1.
</event>
<event>
 5    1  0.1245610E-004  0.9118800E+02  0.7818608E-02  0.1130116E+00
         25   -1    0    0    0    0  0.00000000000E+00  0.00000000000E+00  0.99999998245E-14  0.12500000000E+03  0.12500000000E+03 0.  0.
        -13    1    3    3    0    0  0.27819245656E+01  0.28700325113E+02  0.11653516381E+02  0.31100858090E+02  0.10566000000E+00 0.  1.
         23    2    1    0    0    0 -0.25533343722E+02 -0.17001845134E+02 -0.14709575808E+02  0.90979623752E+02  0.84379535067E+02 0.  0.
         13    1    3    3    0    0 -0.28315268287E+02 -0.45702170246E+02 -0.26363092189E+02  0.59878765662E+02  0.10566000000E+00 0. -1.
         22    1    1    0    0    0  0.25533343722E+02  0.17001845134E+02  0.14709575808E+02  0.34020376248E+02  0.00000000000E+00 0. -1.
</event>
<event>
 5    1  0.1245610E-004  0.9118800E+02  0.7818608E-02  0.1130116E+00
         25   -1    0    0    0    0  0.00000000000E+00  0.00000000000E+00  0.99999998245E-14  0.12500000000E+03  0.12500000000E+03 0.  0.
        -13    1    3    3    0    0 -0.11347389741E+02 -0.18071732886E+02 -0.52571972905E+02  0.56737767691E+02  0.10566000000E+00 0. -1.
         23    2    1    0    0    0  0.11018206097E+02  0.69517775558E+00 -0.28013980304E+02  0.94889084534E+02  0.89984838353E+02 0.  0.
         13    1    3    3    0    0  0.22365595838E+02  0.18766910642E+02  0.24557992600E+02  0.38151316843E+02  0.10566000000E+00 0.  1.
         22    1    1    0    0    0 -0.11018206097E+02 -0.69517775558E+00  0.28013980304E+02  0.30110915466E+02  0.00000000000E+00 0. -1.
</event>
<event>
 5    1  0.1245610E-004  0.9118800E+02  0.7818608E-02  0.1130116E+00
         25   -1    0    0    0    0  0.00000000000E+00  0.00000000000E+00  0.99999998245E-14  0.12500000000E+03  0.12500000000E+03 0.  0.
        -13    1    3    3    0    0 -0.11941861021E+02 -0.31279213367E+02 -0.48713941081E+02  0.59110544348E+02  0.10566000000E+00 0.  1.
         23    2    1    0    0    0 -0.19462151336E+02 -0.12496505716E+02 -0.18953164474E+02  0.95097484498E+02  0.90273867340E+02 0.  0.
         13    1    3    3    0    0 -0.75202903156E+01  0.18782707651E+02  0.29760776606E+02  0.35986940150E+02  0.10566000000E+00 0. -1.
         22    1    1    0    0    0  0.19462151336E+02  0.12496505716E+02  0.18953164474E+02  0.29902515502E+02  0.00000000000E+00 0.  1.
</event>
<event>
 5    1  0.1245610E-004  0.9118800E+02  0.7818608E-02  0.1130116E+00
         25   -1    0    0    0    0  0.00000000000E+00  0.00000000000E+00  0.99999998245E-14  0.12500000000E+03  0.12500000000E+03 0.  0.
        -13    1    3    3    0    0  0.33685103116E+02  0.86345634148E+01 -0.41286979231E+02  0.53980252643E+02  0.10566000000E+00 0.  1.
         23    2    1    0    0    0  0.24136142003E+02  0.16829180097E+02 -0.16912910342E+01  0.95527383575E+02  0.90867188214E+02 0.  0.
         13    1    3    3    0    0 -0.95489611123E+01  0.81946166825E+01  0.39595688197E+02  0.41547130933E+02  0.10566000000E+00 0. -1.
         22    1    1    0    0    0 -0.24136142003E+02 -0.16829180097E+02  0.16912910342E+01  0.29472616425E+02  0.00000000000E+00 0. -1.
</event>
<event>
 5    1  0.1245610E-004  0.9118800E+02  0.7818608E-02  0.1130116E+00
         25   -1    0    0    0    0  0.00000000000E+00  0.00000000000E+00  0.99999998245E-14  0.12500000000E+03  0.12500000000E+03 0.  0.
        -13    1    3    3    0    0 -0.22419055555E+02  0.16143878617E+02 -0.20389518286E+02  0.34336314432E+02  0.10566000000E+00 0. -1.
         23    2    1    0    0    0 -0.97317057810E+01 -0.16274908951E+02  0.26300407293E+02  0.92576394671E+02  0.86712736479E+02 0.  0.
         13    1    3    3    0    0  0.12687349774E+02 -0.32418787569E+02  0.46689925579E+02  0.58240080239E+02  0.10566000000E+00 0.  1.
         22    1    1    0    0    0  0.97317057810E+01  0.16274908951E+02 -0.26300407293E+02  0.32423605329E+02  0.00000000000E+00 0.  1.
</event>
<event>
 5    1  0.1245610E-004  0.9118800E+02  0.7818608E-02  0.1130116E+00
         25   -1    0    0    0    0  0.00000000000E+00  0.00000000000E+00  0.99999998245E-14  0.12500000000E+03  0.12500000000E+03 0.  0.
        -13    1    3    3    0    0 -0.48315267956E+02  0.14555727706E+02  0.89563362337E+01  0.51249014132E+02  0.10566000000E+00 0. -1.
         23    2    1    0    0    0 -0.51292744837E+01  0.27522913076E+02  0.14038655972E+01  0.96968035397E+02  0.92827845225E+02 0.  0.
         13    1    3    3    0    0  0.43185993473E+02  0.12967185370E+02 -0.75524706365E+01  0.45719021265E+02  0.10566000000E+00 0.  1.
         22    1    1    0    0    0  0.51292744837E+01 -0.27522913076E+02 -0.14038655972E+01  0.28031964603E+02  0.00000000000E+00 0. -1.
</event>
<event>
 5    1  0.1245610E-004  0.9118800E+02  0.7818608E-02  0.1130116E+00
         25   -1    0    0    0    0  0.00000000000E+00  0.00000000000E+00  0.99999998245E-14  0.12500000000E+03  0.12500000000E+03 0.  0.
        -13    1    3    3    0    0  0.93801663819E+01 -0.41299377759E+02  0.41648390169E+02  0.59398869453E+02  0.10566000000E+00 0.  1.
         23    2    1    0    0    0 -0.10546459772E+01 -0.27163885403E+02  0.91959924442E+01  0.96302348086E+02  0.91927074475E+02 0.  0.
         13    1    3    3    0    0 -0.10434812359E+02  0.14135492356E+02 -0.32452397725E+02  0.36903478633E+02  0.10566000000E+00 0. -1.
         22    1    1    0    0    0  0.10546459772E+01  0.27163885403E+02 -0.91959924442E+01  0.28697651914E+02  0.00000000000E+00 0.  1.
</event>
<event>
 5    1  0.1245610E-004  0.9118800E+02  0.7818608E-02  0.1130116E+00
         25   -1    0    0    0    0  0.00000000000E+00  0.00000000000E+00  0.99999998245E-14  0.12500000000E+03  0.12500000000E+03 0.  0.
        -13    1    3    3    0    0 -0.23514095121E+02  0.30798235450E+02  0.15096109446E+02  0.41585426061E+02  0.10566000000E+00 0. -1.
         23    2    1    0    0    0  0.19947810955E+02 -0.17412022629E+01  0.20739994877E+02  0.96171293218E+02  0.91748696473E+02 0.  0.
         13    1    3    3    0    0  0.43461906076E+02 -0.32539437713E+02  0.56438854311E+01  0.54585867157E+02  0.10566000000E+00 0.  1.
         22    1    1    0    0    0 -0.19947810955E+02  0.17412022629E+01 -0.20739994877E+02  0.28828706782E+02  0.00000000000E+00 0. -1.
</event>
<event>
 5    1  0.1245610E-004  0.9118800E+02  0.7818608E-02  0.1130116E+00
         25   -1    0    0    0    0  0.00000000000E+00  0.00000000000E+00  0.99999998245E-14  0.12500000000E+03  0.12500000000E+03 0.  0.
        -13    1    3    3    0    0  0.30993400832E+02 -0.17587417411E+02  0.22660033554E+00  0.35636647683E+02  0.10566000000E+00 0.  1.
         23    2    1    0    0    0 -0.90321379933E+01  0.27263859534E+02 -0.44673165008E+01  0.95933619590E+02  0.91424312399E+02 0.  0.
         13    1    3    3    0    0 -0.40025538826E+02  0.44851276945E+02 -0.46939168363E+01  0.60296971907E+02  0.10566000000E+00 0. -1.
         22    1    1    0    0    0  0.90321379933E+01 -0.27263859534E+02  0.44673165008E+01  0.29066380410E+02  0.00000000000E+00 0. -1.
</event>
<event>
 5    1  0.1245610E-004  0.9118800E+02  0.7818608E-02  0.1130116E+00
         25   -1    0    0    0    0  0.00000000000E+00  0.00000000000E+00  0.99999998245E-14  0.12500000000E+03  0.12500000000E+03 0.  0.
        -13    1    3    3    0    0  0.32428205132E+02 -0.65693332209E+01  0.24213265519E+02  0.41000463633E+02  0.10566000000E+00 0. -1.
         23    2    1    0    0    0  0.12963542486E+02  0.26745411266E+00 -0.26362022252E+02  0.95621756643E+02  0.90996918414E+02 0.  0.
         13    1    3    3    0    0 -0.19464662645E+02  0.68367873335E+01 -0.50575287771E+02  0.54621293010E+02  0.10566000000E+00 0.  1.
         22    1    1    0    0    0 -0.12963542486E+02 -0.26745411266E+00  0.26362022252E+02  0.29378243357E+02  0.00000000000E+00 0.  1.
</event>
<event>
 5    1  0.1245610E-004  0.9118800E+02  0.7818608E-02  0.1130116E+00
         25   -1    0    0    0    0  0.00000000000E+00  0.00000000000E+00  0.99999998245E-14  0.12500000000E+03  0.12500000000E+03 0.  0.
        -13    1    3    3    0    0  0.25509386379E+02 -0.29667034804E+02 -0.27657857427E+02  0.47914820139E+02  0.10566000000E+00 0.  1.
         23    2    1    0    0    0  0.18345533051E+00 -0.27278324315E+02  0.12134791276E+02  0.95143781341E+02  0.90337950692E+02 0.  0.
         13    1    3    3    0    0 -0.25325931049E+02  0.23887104883E+01  0.39792648704E+02  0.47228961201E+02  0.10566000000E+00 0. -1.
         22    1    1    0    0    0 -0.18345533051E+00  0.27278324315E+02 -0.12134791276E+02  0.29856218659E+02  0.00000000000E+00 0.  1.
</event>
<event>
 5    1  0.1245610E-004  0.9118800E+02  0.7818608E-02  0.1130116E+00
         25   -1    0    0    0    0  0.00000000000E+00  0.00000000000E+00  0.99999998245E-14  0.12500000000E+03  0.12500000000E+03 0.  0.
        -13    1    3    3    0    0 -0.15400980555E+02  0.42857179937E+02  0.13559499248E+02  0.47516305182E+02  0.10566000000E+00 0. -1.
         23    2    1    0    0    0 -0.33911393931E+01  0.23417084258E+02 -0.23882851250E+02  0.91380805403E+02  0.84971767963E+02 0.  0.
         13    1    3    3    0    0  0.12009841162E+02 -0.19440095679E+02 -0.37442350499E+02  0.43864500221E+02  0.10566000000E+00 0.  1.
         22    1    1    0    0    0  0.33911393931E+01 -0.23417084258E+02  0.23882851250E+02  0.33619194597E+02  0.00000000000E+00 0. -1.
</event>
<event>
 5    1  0.1245610E-004  0.9118800E+02  0.7818608E-02  0.1130116E+00
         25   -1    0    0    0    0  0.00000000000E+00  0.00000000000E+00  0.99999998245E-14  0.12500000000E+03  0.12500000000E+03 0.  0.
        -13    1    3    3    0    0  0.26552997656E+02 -0.32420366925E+02  0.34396115347E+02  0.54214811547E+02  0.10566000000E+00 0.  1.
         23    2    1    0    0    0  0.18769099393E+02  0.67022256897E+01  0.20379168874E+02  0.96495448693E+02  0.92189273634E+02 0.  0.
         13    1    3    3    0    0 -0.77838982628E+01  0.39122592615E+02 -0.14016946473E+02  0.42280637146E+02  0.10566000000E+00 0. -1.
         22    1    1    0    0    0 -0.18769099393E+02 -0.67022256897E+01 -0.20379168874E+02  0.28504551307E+02  0.00000000000E+00 0.  1.
</event>
<event>
 5    1  0.1245610E-004  0.9118800E+02  0.7818608E-02  0.1130116E+00
         25   -1    0    0    0    0  0.00000000000E+00  0.00000000000E+00  0.99999998245E-14  0.12500000000E+03  0.12500000000E+03 0.  0.
        -13    1    3    3    0    0  0.35384359320E+02 -0.17091018931E+02 -0.24444012868E+01  0.39371843674E+02  0.10566000000E+00 0.  1.
         23    2    1    0    0    0 -0.20459614165E+01 -0.40322848303E+02 -0.82022107440E+01  0.83800554439E+02  0.72973547329E+02 0.  0.
         13    1    3    3    0    0 -0.37430320737E+02 -0.23231829373E+02 -0.57578094572E+01  0.44428710765E+02  0.10566000000E+00 0. -1.
         22    1    1    0    0    0  0.20459614165E+01  0.40322848303E+02  0.82022107440E+01  0.41199445561E+02  0.00000000000E+00 0.  1.
</event>
<event>
 5    1  0.1245610E-004  0.9118800E+02  0.7818608E-02  0.1130116E+00
         25   -1    0    0    0    0  0.00000000000E+00  0.00000000000E+00  0.99999998245E-14  0.12500000000E+03  0.12500000000E+03 0.  0.
        -13    1    3    3    0    0  0.47347113448E+02 -0.22640579098E+02 -0.19531425793E+02  0.55998506510E+02  0.10566000000E+00 0. -1.
         23    2    1    0    0    0  0.22964326328E+02  0.10321970756E+02 -0.72175209515E+01  0.98808475175E+02  0.95273914550E+02 0.  0.
         13    1    3    3    0    0 -0.24382787120E+02  0.32962549854E+02  0.12313904842E+02  0.42809968665E+02  0.10566000000E+00 0.  1.
         22    1    1    0    0    0 -0.22964326328E+02 -0.10321970756E+02  0.72175209515E+01  0.26191524825E+02  0.00000000000E+00 0. -1.
</event>
<event>
 5    1  0.1245610E-004  0.9118800E+02  0.7818608E-02  0.1130116E+00
         25   -1    0    0    0    0  0.00000000000E+00  0.00000000000E+00  0.99999998245E-14  0.12500000000E+03  0.12500000000E+03 0.  0.
        -13    1    3    3    0    0 -0.26020233539E+02 -0.27531124598E+02 -0.49173060100E+02  0.62072670143E+02  0.10566000000E+00 0.  1.
         23    2    1    0    0    0 -0.16529374740E+02 -0.10117008084E+02 -0.22653792487E+02  0.95187781097E+02  0.90398812350E+02 0.  0.
         13    1    3    3    0    0  0.94908587990E+01  0.17414116514E+02  0.26519267613E+02  0.33115110954E+02  0.10566000000E+00 0. -1.
         22    1    1    0    0    0  0.16529374740E+02  0.10117008084E+02  0.22653792487E+02  0.29812218903E+02  0.00000000000E+00 0.  1.
</event>
<event>
 5    1  0.1245610E-004  0.9118800E+02  0.7818608E-02  0.1130116E+00
         25   -1    0    0    0    0  0.00000000000E+00  0.00000000000E+00  0.99999998245E-14  0.12500000000E+03  0.12500000000E+03 0.  0.
        -13    1    3    3    0    0 -0.20824969053E+02  0.12496756112E+02  0.33275514207E+02  0.41196107330E+02  0.10566000000E+00 0.  1.
         23    2    1    0    0    0  0.18298534086E+02 -0.18966876469E+02  0.76855678997E+01  0.97547373411E+02  0.93604718646E+02 0.  0.
         13    1    3    3    0    0  0.39123503138E+02 -0.31463632581E+02 -0.25589946307E+02  0.56351266082E+02  0.10566000000E+00 0. -1.
         22    1    1    0    0    0 -0.18298534086E+02  0.18966876469E+02 -0.76855678997E+01  0.27452626589E+02  0.00000000000E+00 0. -1.
</event>
<event>
 5    1  0.1245610E-004  0.9118800E+02  0.7818608E-02  0.1130116E+00
         25   -1    0    0    0    0  0.00000000000E+00  0.00000000000E+00  0.99999998245E-14  0.12500000000E+03  0.12500000000E+03 0.  0.
        -13    1    3    3    0    0 -0.32758553475E+02  0.71810978382E+01  0.33539591262E+02  0.47430015159E+02  0.10566000000E+00 0.  1.
         23    2    1    0    0    0 -0.61434264927E+01  0.29291380543E+02  0.80711063416E+00  0.95060426009E+02  0.90222538770E+02 0.  0.
         13    1    3    3    0    0  0.26615126983E+02  0.22110282705E+02 -0.32732480628E+02  0.47630410849E+02  0.10566000000E+00 0. -1.
         22    1    1    0    0    0  0.61434264927E+01 -0.29291380543E+02 -0.80711063416E+00  0.29939573991E+02  0.00000000000E+00 0.  1.
</event>
<event>
 5    1  0.1245610E-004  0.9118800E+02  0.7818608E-02  0.1130116E+00
         25   -1    0    0    0    0  0.00000000000E+00  0.00000000000E+00  0.99999998245E-14  0.12500000000E+03  0.12500000000E+03 0.  0.
        -13    1    3    3    0    0  0.28054075582E+02 -0.39415729838E+02  0.64578236606E+01  0.48809277457E+02  0.10566000000E+00 0. -1.
         23    2    1    0    0    0  0.22187089274E+02 -0.46314065580E+00 -0.19061873596E+02  0.95745317389E+02  0.91166492458E+02 0.  0.
         13    1    3    3    0    0 -0.58669863086E+01  0.38952589182E+02 -0.25519697257E+02  0.46936039931E+02  0.10566000000E+00 0.  1.
         22    1    1    0    0    0 -0.22187089274E+02  0.46314065580E+00  0.19061873596E+02  0.29254682611E+02  0.00000000000E+00 0. -1.
</event>
<event>
 5    1  0.1245610E-004  0.9118800E+02  0.7818608E-02  0.1130116E+00
         25   -1    0    0    0    0  0.00000000000E+00  0.00000000000E+00  0.99999998245E-14  0.12500000000E+03  0.12500000000E+03 0.  0.
        -13    1    3    3    0    0  0.11741725111E+02  0.33677607742E+02 -0.84324551311E+00  0.35675924638E+02  0.10566000000E+00 0.  1.
         23    2    1    0    0    0  0.13201401629E+01 -0.22276946942E+02  0.18731222222E+02  0.95864732350E+02  0.91330077672E+02 0.  0.
         13    1    3    3    0    0 -0.10421584948E+02 -0.55954554683E+02  0.19574467735E+02  0.60188807712E+02  0.10566000000E+00 0. -1.
         22    1    1    0    0    0 -0.13201401629E+01  0.22276946942E+02 -0.18731222222E+02  0.29135267650E+02  0.00000000000E+00 0. -1.
</event>
<event>
 5    1  0.1245610E-004  0.9118800E+02  0.7818608E-02  0.1130116E+00
         25   -1    0    0    0    0  0.00000000000E+00  0.00000000000E+00  0.99999998245E-14  0.12500000000E+03  0.12500000000E+03 0.  0.
        -13    1    3    3    0    0  0.24661920558E+02 -0.14778385452E+02  0.25112729426E+02  0.38174223573E+02  0.10566000000E+00 0.  1.
         23    2    1    0    0    0 -0.10778753481E+02  0.26525791577E+02  0.10198357704E+02  0.94605828762E+02  0.89590497211E+02 0.  0.
         13    1    3    3    0    0 -0.35440674039E+02  0.41304177029E+02 -0.14914371721E+02  0.56431605189E+02  0.10566000000E+00 0. -1.
         22    1    1    0    0    0  0.10778753481E+02 -0.26525791577E+02 -0.10198357704E+02  0.30394171238E+02  0.00000000000E+00 0. -1.
</event>
<event>
 5    1  0.1245610E-004  0.9118800E+02  0.7818608E-02  0.1130116E+00
         25   -1    0    0    0    0  0.00000000000E+00  0.00000000000E+00  0.99999998245E-14  0.12500000000E+03  0.12500000000E+03 0.  0.
        -13    1    3    3    0    0  0.13165412968E+02 -0.52184785484E+02 -0.21221390904E+02  0.57852731400E+02  0.10566000000E+00 0.  1.
         23    2    1    0    0    0  0.10408727067E+01 -0.29085246464E+02  0.57024996678E+01  0.95342733094E+02  0.90612820691E+02 0.  0.
         13    1    3    3    0    0 -0.12124540261E+02  0.23099539020E+02  0.26923890571E+02  0.37490001694E+02  0.10566000000E+00 0. -1.
         22    1    1    0    0    0 -0.10408727067E+01  0.29085246464E+02 -0.57024996678E+01  0.29657266906E+02  0.00000000000E+00 0.  1.
</event>
<event>
 5    1  0.1245610E-004  0.9118800E+02  0.7818608E-02  0.1130116E+00
         25   -1    0    0    0    0  0.00000000000E+00  0.00000000000E+00  0.99999998245E-14  0.12500000000E+03  0.12500000000E+03 0.  0.
        -13    1    3    3    0    0 -0.10296732136E+02 -0.33137391320E+02 -0.15025717573E+02  0.37813922685E+02  0.10566000000E+00 0.  1.
         23    2    1    0    0    0 -0.15054777391E+02  0.82736953497E+01  0.24380246667E+02  0.95175567322E+02  0.90381922034E+02 0.  0.
         13    1    3    3    0    0 -0.47580452547E+01  0.41411086670E+02  0.39405964239E+02  0.57361644637E+02  0.10566000000E+00 0. -1.
         22    1    1    0    0    0  0.15054777391E+02 -0.82736953497E+01 -0.24380246667E+02  0.29824432678E+02  0.00000000000E+00 0. -1.
</event>
<event>
 5    1  0.1245610E-004  0.9118800E+02  0.7818608E-02  0.1130116E+00
         25   -1    0    0    0    0  0.00000000000E+00  0.00000000000E+00  0.99999998245E-14  0.12500000000E+03  0.12500000000E+03 0.  0.
        -13    1    3    3    0    0 -0.35868117989E+02 -0.34446726698E+02  0.14127677987E+01  0.49750436632E+02  0.10566000000E+00 0. -1.
         23    2    1    0    0    0  0.57989324409E+01 -0.26529085181E+02 -0.13455360018E+02  0.94693784611E+02  0.89713132554E+02 0.  0.
         13    1    3    3    0    0  0.41667050430E+02  0.79176415165E+01 -0.14868127817E+02  0.44943347978E+02  0.10566000000E+00 0.  1.
         22    1    1    0    0    0 -0.57989324409E+01  0.26529085181E+02  0.13455360018E+02  0.30306215389E+02  0.00000000000E+00 0.  1.
</event>
<event>
 5    1  0.1245610E-004  0.9118800E+02  0.7818608E-02  0.1130116E+00
         25   -1    0    0    0    0  0.00000000000E+00  0.00000000000E+00  0.99999998245E-14  0.12500000000E+03  0.12500000000E+03 0.  0.
        -13    1    3    3    0    0  0.64000971042E+01  0.18518843942E+02  0.33040085377E+02  0.38413112730E+02  0.10566000000E+00 0. -1.
         23    2    1    0    0    0 -0.15167394336E+02 -0.25089524812E+02  0.31463504806E+01  0.95513840067E+02  0.90848555392E+02 0.  0.
         13    1    3    3    0    0 -0.21567491441E+02 -0.43608368753E+02 -0.29893734896E+02  0.57100727337E+02  0.10566000000E+00 0.  1.
         22    1    1    0    0    0  0.15167394336E+02  0.25089524812E+02 -0.31463504806E+01  0.29486159933E+02  0.00000000000E+00 0.  1.
</event>
<event>
 5    1  0.1245610E-004  0.9118800E+02  0.7818608E-02  0.1130116E+00
         25   -1    0    0    0    0  0.00000000000E+00  0.00000000000E+00  0.99999998245E-14  0.12500000000E+03  0.12500000000E+03 0.  0.
        -13    1    3    3    0    0 -0.35901562264E+02 -0.17565431939E+02  0.32236193831E+02  0.51348319631E+02  0.10566000000E+00 0.  1.
         23    2    1    0    0    0  0.14530620355E+01  0.61009543140E+01  0.28602337128E+02  0.95718150297E+02  0.91129235563E+02 0.  0.
         13    1    3    3    0    0  0.37354624299E+02  0.23666386253E+02 -0.36338567021E+01  0.44369830666E+02  0.10566000000E+00 0. -1.
         22    1    1    0    0    0 -0.14530620355E+01 -0.61009543140E+01 -0.28602337128E+02  0.29281849703E+02  0.00000000000E+00 0. -1.
</event>
<event>
 5    1  0.1245610E-004  0.9118800E+02  0.7818608E-02  0.1130116E+00
         25   -1    0    0    0    0  0.00000000000E+00  0.00000000000E+00  0.99999998245E-14  0.12500000000E+03  0.12500000000E+03 0.  0.
        -13    1    3    3    0    0 -0.13669845277E+01  0.56282522395E+02 -0.23038920836E+02  0.60830863968E+02  0.10566000000E+00 0. -1.
         23    2    1    0    0    0 -0.42452218069E+00  0.21388818962E+02 -0.19736720960E+02  0.95893300601E+02  0.91369169583E+02 0.  0.
         13    1    3    3    0    0  0.94246234697E+00 -0.34893703433E+02  0.33021998760E+01  0.35062436632E+02  0.10566000000E+00 0.  1.
         22    1    1    0    0    0  0.42452218069E+00 -0.21388818962E+02  0.19736720960E+02  0.29106699399E+02  0.00000000000E+00 0. -1.
</event>
<event>
 5    1  0.1245610E-004  0.9118800E+02  0.7818608E-02  0.1130116E+00
         25   -1    0    0    0    0  0.00000000000E+00  0.00000000000E+00  0.99999998245E-14  0.12500000000E+03  0.12500000000E+03 0.  0.
        -13    1    3    3    0    0 -0.62263684964E+01 -0.18360352938E+02 -0.47784709242E+02  0.51568011655E+02  0.10566000000E+00 0.  1.
         23    2    1    0    0    0  0.18581243159E+02  0.70283893962E+01 -0.21427108223E+02  0.95780454801E+02  0.91214657266E+02 0.  0.
         13    1    3    3    0    0  0.24807611656E+02  0.25388742334E+02  0.26357601020E+02  0.44212443146E+02  0.10566000000E+00 0. -1.
         22    1    1    0    0    0 -0.18581243159E+02 -0.70283893962E+01  0.21427108223E+02  0.29219545199E+02  0.00000000000E+00 0.  1.
</event>
<event>
 5    1  0.1245610E-004  0.9118800E+02  0.7818608E-02  0.1130116E+00
         25   -1    0    0    0    0  0.00000000000E+00  0.00000000000E+00  0.99999998245E-14  0.12500000000E+03  0.12500000000E+03 0.  0.
        -13    1    3    3    0    0  0.66910901086E+01  0.27713949303E+02 -0.39582682859E+02  0.48781488489E+02  0.10566000000E+00 0. -1.
         23    2    1    0    0    0 -0.21514496908E+02  0.10179554993E+02  0.94611540322E+00  0.10118000732E+03  0.98336167453E+02 0.  0.
         13    1    3    3    0    0 -0.28205587016E+02 -0.17534394310E+02  0.40528798263E+02  0.52398518828E+02  0.10566000000E+00 0.  1.
         22    1    1    0    0    0  0.21514496908E+02 -0.10179554993E+02 -0.94611540322E+00  0.23819992683E+02  0.00000000000E+00 0. -1.
</event>
<event>
 5    1  0.1245610E-004  0.9118800E+02  0.7818608E-02  0.1130116E+00
         25   -1    0    0    0    0  0.00000000000E+00  0.00000000000E+00  0.99999998245E-14  0.12500000000E+03  0.12500000000E+03 0.  0.
        -13    1    3    3    0    0 -0.41196709347E+02  0.27431599536E+02  0.22674835519E+02  0.54440984965E+02  0.10566000000E+00 0. -1.
         23    2    1    0    0    0 -0.11403515651E+02  0.92739276101E+00  0.28076862045E+02  0.94681517043E+02  0.89696038155E+02 0.  0.
         13    1    3    3    0    0  0.29793193695E+02 -0.26504206775E+02  0.54020265259E+01  0.40240532078E+02  0.10566000000E+00 0.  1.
         22    1    1    0    0    0  0.11403515651E+02 -0.92739276101E+00 -0.28076862045E+02  0.30318482957E+02  0.00000000000E+00 0.  1.
</event>
<event>
 5    1  0.1245610E-004  0.9118800E+02  0.7818608E-02  0.1130116E+00
         25   -1    0    0    0    0  0.00000000000E+00  0.00000000000E+00  0.99999998245E-14  0.12500000000E+03  0.12500000000E+03 0.  0.
        -13    1    3    3    0    0  0.12378642609E+02 -0.41377973428E+02  0.29883290839E+01  0.43293287616E+02  0.10566000000E+00 0.  1.
         23    2    1    0    0    0 -0.24320193510E+00  0.20669992045E+01  0.29297702531E+02  0.95628466052E+02  0.91006134480E+02 0.  0.
         13    1    3    3    0    0 -0.12621844544E+02  0.43444972632E+02  0.26309373447E+02  0.52335178436E+02  0.10566000000E+00 0. -1.
         22    1    1    0    0    0  0.24320193510E+00 -0.20669992045E+01 -0.29297702531E+02  0.29371533948E+02  0.00000000000E+00 0. -1.
</event>
<event>
 5    1  0.1245610E-004  0.9118800E+02  0.7818608E-02  0.1130116E+00
         25   -1    0    0    0    0  0.00000000000E+00  0.00000000000E+00  0.99999998245E-14  0.12500000000E+03  0.12500000000E+03 0.  0.
        -13    1    3    3    0    0 -0.15669268518E+02 -0.45364152836E+01  0.60125950484E+02  0.62299647874E+02  0.10566000000E+00 0.  1.
         23    2    1    0    0    0 -0.65513496271E+01 -0.55595817516E+01  0.27834853161E+02  0.95869119792E+02  0.91336082399E+02 0.  0.
         13    1    3    3    0    0  0.91179188912E+01 -0.10231664680E+01 -0.32291097323E+02  0.33569471918E+02  0.10566000000E+00 0. -1.
         22    1    1    0    0    0  0.65513496271E+01  0.55595817516E+01 -0.27834853161E+02  0.29130880208E+02  0.00000000000E+00 0.  1.
</event>
<event>
 5    1  0.1245610E-004  0.9118800E+02  0.7818608E-02  0.1130116E+00
         25   -1    0    0    0    0  0.00000000000E+00  0.00000000000E+00  0.99999998245E-14  0.12500000000E+03  0.12500000000E+03 0.  0.
        -13    1    3    3    0    0  0.59070079678E+01  0.31201967848E+02  0.23203409011E+02  0.39330203336E+02  0.10566000000E+00 0.  1.
         23    2    1    0    0    0 -0.96938593643E+01  0.24807773432E+01 -0.25285539930E+02  0.97806550511E+02  0.93950186949E+02 0.  0.
         13    1    3    3    0    0 -0.15600867332E+02 -0.28721190504E+02 -0.48488948940E+02  0.58476347175E+02  0.10566000000E+00 0. -1.
         22    1    1    0    0    0  0.96938593643E+01 -0.24807773432E+01  0.25285539930E+02  0.27193449489E+02  0.00000000000E+00 0. -1.
</event>
<event>
 5    1  0.1245610E-004  0.9118800E+02  0.7818608E-02  0.1130116E+00
         25   -1    0    0    0    0  0.00000000000E+00  0.00000000000E+00  0.99999998245E-14  0.12500000000E+03  0.12500000000E+03 0.  0.
        -13    1    3    3    0    0 -0.45875874506E+02 -0.14541577455E+02 -0.34316998433E+02  0.59107705776E+02  0.10566000000E+00 0.  1.
         23    2    1    0    0    0 -0.17725179662E+02 -0.20682101113E+02 -0.19450702260E+02  0.91529697956E+02  0.85190518774E+02 0.  0.
         13    1    3    3    0    0  0.28150694844E+02 -0.61405236577E+01  0.14866296173E+02  0.32421992180E+02  0.10566000000E+00 0. -1.
         22    1    1    0    0    0  0.17725179662E+02  0.20682101113E+02  0.19450702260E+02  0.33470302044E+02  0.00000000000E+00 0.  1.
</event>
<event>
 5    1  0.1245610E-004  0.9118800E+02  0.7818608E-02  0.1130116E+00
         25   -1    0    0    0    0  0.00000000000E+00  0.00000000000E+00  0.99999998245E-14  0.12500000000E+03  0.12500000000E+03 0.  0.
        -13    1    3    3    0    0  0.29470798250E+02 -0.15384904732E+02 -0.58477766979E+01  0.33755457328E+02  0.10566000000E+00 0. -1.
         23    2    1    0    0    0 -0.21580604535E+02  0.17020778014E+02  0.91071567047E+01  0.96045385868E+02  0.91576997478E+02 0.  0.
         13    1    3    3    0    0 -0.51051402784E+02  0.32405682746E+02  0.14954933403E+02  0.62289928540E+02  0.10566000000E+00 0.  1.
         22    1    1    0    0    0  0.21580604535E+02 -0.17020778014E+02 -0.91071567047E+01  0.28954614132E+02  0.00000000000E+00 0.  1.
</event>
<event>
 5    1  0.1245610E-004  0.9118800E+02  0.7818608E-02  0.1130116E+00
         25   -1    0    0    0    0  0.00000000000E+00  0.00000000000E+00  0.99999998245E-14  0.12500000000E+03  0.12500000000E+03 0.  0.
        -13    1    3    3    0    0 -0.12954609195E+02 -0.40863983924E+02 -0.72157495334E+01  0.43471430697E+02  0.10566000000E+00 0.  1.
         23    2    1    0    0    0 -0.28168975190E+01  0.72654685746E+01 -0.27307478851E+02  0.96602458796E+02  0.92334255285E+02 0.  0.
         13    1    3    3    0    0  0.10137711676E+02  0.48129452498E+02 -0.20091729318E+02  0.53131028099E+02  0.10566000000E+00 0. -1.
         22    1    1    0    0    0  0.28168975190E+01 -0.72654685746E+01  0.27307478851E+02  0.28397541204E+02  0.00000000000E+00 0. -1.
</event>
<event>
 5    1  0.1245610E-004  0.9118800E+02  0.7818608E-02  0.1130116E+00
         25   -1    0    0    0    0  0.00000000000E+00  0.00000000000E+00  0.99999998245E-14  0.12500000000E+03  0.12500000000E+03 0.  0.
        -13    1    3    3    0    0 -0.17984290633E+02 -0.47634948651E+02  0.12964731672E+01  0.50933437438E+02  0.10566000000E+00 0.  1.
         23    2    1    0    0    0  0.18837164085E+02 -0.21194456354E+02  0.40905584135E+01  0.96350804566E+02  0.91992940716E+02 0.  0.
         13    1    3    3    0    0  0.36821454718E+02  0.26440492297E+02  0.27940852463E+01  0.45417367128E+02  0.10566000000E+00 0. -1.
         22    1    1    0    0    0 -0.18837164085E+02  0.21194456354E+02 -0.40905584135E+01  0.28649195434E+02  0.00000000000E+00 0.  1.
</event>
<event>
 5    1  0.1245610E-004  0.9118800E+02  0.7818608E-02  0.1130116E+00
         25   -1    0    0    0    0  0.00000000000E+00  0.00000000000E+00  0.99999998245E-14  0.12500000000E+03  0.12500000000E+03 0.  0.
        -13    1    3    3    0    0 -0.14112687060E+02 -0.34112167150E+02 -0.51425430486E+01  0.37272842617E+02  0.10566000000E+00 0.  1.
         23    2    1    0    0    0  0.19062119977E+02  0.42718547235E+01 -0.26297661893E+02  0.92240571100E+02  0.86227273962E+02 0.  0.
         13    1    3    3    0    0  0.33174807037E+02  0.38384021874E+02 -0.21155118845E+02  0.54967728482E+02  0.10566000000E+00 0. -1.
         22    1    1    0    0    0 -0.19062119977E+02 -0.42718547235E+01  0.26297661893E+02  0.32759428900E+02  0.00000000000E+00 0. -1.
</event>
<event>
 5    1  0.1245610E-004  0.9118800E+02  0.7818608E-02  0.1130116E+00
         25   -1    0    0    0    0  0.00000000000E+00  0.00000000000E+00  0.99999998245E-14  0.12500000000E+03  0.12500000000E+03 0.  0.
        -13    1    3    3    0    0  0.13084081589E+02  0.42914780814E+02 -0.83943029548E+01  0.45643697150E+02  0.10566000000E+00 0. -1.
         23    2    1    0    0    0  0.23764046673E+02 -0.21887068245E+01 -0.20489049265E+02  0.93546518609E+02  0.88100111534E+02 0.  0.
         13    1    3    3    0    0  0.10679965084E+02 -0.45103487639E+02 -0.12094746310E+02  0.47902821459E+02  0.10566000000E+00 0.  1.
         22    1    1    0    0    0 -0.23764046673E+02  0.21887068245E+01  0.20489049265E+02  0.31453481391E+02  0.00000000000E+00 0.  1.
</event>
<event>
 5    1  0.1245610E-004  0.9118800E+02  0.7818608E-02  0.1130116E+00
         25   -1    0    0    0    0  0.00000000000E+00  0.00000000000E+00  0.99999998245E-14  0.12500000000E+03  0.12500000000E+03 0.  0.
        -13    1    3    3    0    0  0.10948194621E+01 -0.23873441991E+02  0.27051163910E+02  0.36095934606E+02  0.10566000000E+00 0.  1.
         23    2    1    0    0    0 -0.43547214496E+01 -0.47160058927E+01 -0.28852624960E+02  0.95441950715E+02  0.90749587761E+02 0.  0.
         13    1    3    3    0    0 -0.54495409117E+01  0.19157436098E+02 -0.55903788870E+02  0.59346016109E+02  0.10566000000E+00 0. -1.
         22    1    1    0    0    0  0.43547214496E+01  0.47160058927E+01  0.28852624960E+02  0.29558049285E+02  0.00000000000E+00 0. -1.
</event>
<event>
 5    1  0.1245610E-004  0.9118800E+02  0.7818608E-02  0.1130116E+00
         25   -1    0    0    0    0  0.00000000000E+00  0.00000000000E+00  0.99999998245E-14  0.12500000000E+03  0.12500000000E+03 0.  0.
        -13    1    3    3    0    0 -0.47081450866E+02 -0.21610445644E+02  0.33173248524E+02  0.61515444875E+02  0.10566000000E+00 0. -1.
         23    2    1    0    0    0 -0.31425543439E+02 -0.12179025855E+02  0.12641218816E+02  0.89004252135E+02  0.81400632883E+02 0.  0.
         13    1    3    3    0    0  0.15655907427E+02  0.94314197885E+01 -0.20532029708E+02  0.27488807260E+02  0.10566000000E+00 0.  1.
         22    1    1    0    0    0  0.31425543439E+02  0.12179025855E+02 -0.12641218816E+02  0.35995747865E+02  0.00000000000E+00 0. -1.
</event>
<event>
 5    1  0.1245610E-004  0.9118800E+02  0.7818608E-02  0.1130116E+00
         25   -1    0    0    0    0  0.00000000000E+00  0.00000000000E+00  0.99999998245E-14  0.12500000000E+03  0.12500000000E+03 0.  0.
        -13    1    3    3    0    0  0.56437629826E+01  0.48575491101E+02 -0.21871301163E+02  0.53570471110E+02  0.10566000000E+00 0.  1.
         23    2    1    0    0    0  0.70468910612E+01  0.60051605216E+01 -0.26985896684E+02  0.96470028980E+02  0.92154800445E+02 0.  0.
         13    1    3    3    0    0  0.14031280786E+01 -0.42570330580E+02 -0.51145955213E+01  0.42899557870E+02  0.10566000000E+00 0. -1.
         22    1    1    0    0    0 -0.70468910612E+01 -0.60051605216E+01  0.26985896684E+02  0.28529971020E+02  0.00000000000E+00 0.  1.
</event>
<event>
 5    1  0.1245610E-004  0.9118800E+02  0.7818608E-02  0.1130116E+00
         25   -1    0    0    0    0  0.00000000000E+00  0.00000000000E+00  0.99999998245E-14  0.12500000000E+03  0.12500000000E+03 0.  0.
        -13    1    3    3    0    0  0.17787698770E+02  0.27116697556E+02  0.15749680075E+02  0.36052477036E+02  0.10566000000E+00 0. -1.
         23    2    1    0    0    0 -0.52888395590E+01 -0.42602049609E+01 -0.28905577065E+02  0.95307348457E+02  0.90563994580E+02 0.  0.
         13    1    3    3    0    0 -0.23076538329E+02 -0.31376902517E+02 -0.44655257140E+02  0.59254871421E+02  0.10566000000E+00 0.  1.
         22    1    1    0    0    0  0.52888395590E+01  0.42602049609E+01  0.28905577065E+02  0.29692651543E+02  0.00000000000E+00 0.  1.
</event>
<event>
 5    1  0.1245610E-004  0.9118800E+02  0.7818608E-02  0.1130116E+00
         25   -1    0    0    0    0  0.00000000000E+00  0.00000000000E+00  0.99999998245E-14  0.12500000000E+03  0.12500000000E+03 0.  0.
        -13    1    3    3    0    0 -0.82790661998E+01 -0.12142634741E+02  0.41240962149E+02  0.43781441714E+02  0.10566000000E+00 0.  1.
         23    2    1    0    0    0 -0.90064073130E+01  0.24643649586E+02  0.39015687114E+00  0.98759248105E+02  0.95209306406E+02 0.  0.
         13    1    3    3    0    0 -0.72734111324E+00  0.36786284327E+02 -0.40850805277E+02  0.54977806391E+02  0.10566000000E+00 0. -1.
         22    1    1    0    0    0  0.90064073130E+01 -0.24643649586E+02 -0.39015687114E+00  0.26240751895E+02  0.00000000000E+00 0. -1.
</event>
<event>
 5    1  0.1245610E-004  0.9118800E+02  0.7818608E-02  0.1130116E+00
         25   -1    0    0    0    0  0.00000000000E+00  0.00000000000E+00  0.99999998245E-14  0.12500000000E+03  0.12500000000E+03 0.  0.
        -13    1    3    3    0    0 -0.85326800832E+01 -0.20486628792E+02  0.46133808131E+02  0.51194218476E+02  0.10566000000E+00 0. -1.
         23    2    1    0    0    0 -0.25018406544E+02 -0.14446811995E+02  0.53201079940E+01  0.95624251637E+02  0.91000345655E+02 0.  0.
         13    1    3    3    0    0 -0.16485726460E+02  0.60398167972E+01 -0.40813700137E+02  0.44430033162E+02  0.10566000000E+00 0.  1.
         22    1    1    0    0    0  0.25018406544E+02  0.14446811995E+02 -0.53201079940E+01  0.29375748363E+02  0.00000000000E+00 0. -1.
</event>
<event>
 5    1  0.1245610E-004  0.9118800E+02  0.7818608E-02  0.1130116E+00
         25   -1    0    0    0    0  0.00000000000E+00  0.00000000000E+00  0.99999998245E-14  0.12500000000E+03  0.12500000000E+03 0.  0.
        -13    1    3    3    0    0 -0.13403077941E+02 -0.24792633110E+02 -0.25705282202E+02  0.38145640012E+02  0.10566000000E+00 0. -1.
         23    2    1    0    0    0  0.12095574847E+02 -0.13691986965E+02  0.23841342808E+02  0.94963637624E+02  0.90088342231E+02 0.  0.
         13    1    3    3    0    0  0.25498652787E+02  0.11100646145E+02  0.49546625009E+02  0.56817997612E+02  0.10566000000E+00 0.  1.
         22    1    1    0    0    0 -0.12095574847E+02  0.13691986965E+02 -0.23841342808E+02  0.30036362376E+02  0.00000000000E+00 0.  1.
</event>
<event>
 5    1  0.1245610E-004  0.9118800E+02  0.7818608E-02  0.1130116E+00
         25   -1    0    0    0    0  0.00000000000E+00  0.00000000000E+00  0.99999998245E-14  0.12500000000E+03  0.12500000000E+03 0.  0.
        -13    1    3    3    0    0 -0.41212654880E+02 -0.91757235862E+01 -0.39317031779E+02  0.57693300976E+02  0.10566000000E+00 0.  1.
         23    2    1    0    0    0 -0.37106920178E+01 -0.64460686735E+01 -0.26588782975E+02  0.97390501332E+02  0.93394996295E+02 0.  0.
         13    1    3    3    0    0  0.37501962862E+02  0.27296549127E+01  0.12728248803E+02  0.39697200356E+02  0.10566000000E+00 0. -1.
         22    1    1    0    0    0  0.37106920178E+01  0.64460686735E+01  0.26588782975E+02  0.27609498668E+02  0.00000000000E+00 0.  1.
</event>
<event>
 5    1  0.1245610E-004  0.9118800E+02  0.7818608E-02  0.1130116E+00
         25   -1    0    0    0    0  0.00000000000E+00  0.00000000000E+00  0.99999998245E-14  0.12500000000E+03  0.12500000000E+03 0.  0.
        -13    1    3    3    0    0  0.33310374601E+02 -0.64491404894E+01  0.36286978541E+02  0.49678249212E+02  0.10566000000E+00 0. -1.
         23    2    1    0    0    0  0.58508943377E+01 -0.27092745380E+02  0.36861466141E+01  0.97038642851E+02  0.92922875078E+02 0.  0.
         13    1    3    3    0    0 -0.27459480264E+02 -0.20643604890E+02 -0.32600831927E+02  0.47360393638E+02  0.10566000000E+00 0.  1.
         22    1    1    0    0    0 -0.58508943377E+01  0.27092745380E+02 -0.36861466141E+01  0.27961357149E+02  0.00000000000E+00 0. -1.
</event>
<event>
 5    1  0.1245610E-004  0.9118800E+02  0.7818608E-02  0.1130116E+00
         25   -1    0    0    0    0  0.00000000000E+00  0.00000000000E+00  0.99999998245E-14  0.12500000000E+03  0.12500000000E+03 0.  0.
        -13    1    3    3    0    0 -0.19377910745E+02 -0.37348427043E+01  0.35217271513E+02  0.40369788850E+02  0.10566000000E+00 0. -1.
         23    2    1    0    0    0 -0.18337071631E+02 -0.65194452154E+01 -0.20828387337E+02  0.96494332476E+02  0.92187760136E+02 0.  0.
         13    1    3    3    0    0  0.10408391140E+01 -0.27846025111E+01 -0.56045658851E+02  0.56124543626E+02  0.10566000000E+00 0.  1.
         22    1    1    0    0    0  0.18337071631E+02  0.65194452154E+01  0.20828387337E+02  0.28505667524E+02  0.00000000000E+00 0.  1.
</event>
<event>
 5    1  0.1245610E-004  0.9118800E+02  0.7818608E-02  0.1130116E+00
         25   -1    0    0    0    0  0.00000000000E+00  0.00000000000E+00  0.99999998245E-14  0.12500000000E+03  0.12500000000E+03 0.  0.
        -13    1    3    3    0    0 -0.49857040905E+01  0.34653952795E+02  0.13351618493E+02  0.37470395915E+02  0.10566000000E+00 0.  1.
         23    2    1    0    0    0  0.61893734483E+01 -0.23168354112E+02  0.15575830909E+02  0.96404764655E+02  0.92066232484E+02 0.  0.
         13    1    3    3    0    0  0.11175077539E+02 -0.57822306906E+02  0.22242124158E+01  0.58934368741E+02  0.10566000000E+00 0. -1.
         22    1    1    0    0    0 -0.61893734483E+01  0.23168354112E+02 -0.15575830909E+02  0.28595235345E+02  0.00000000000E+00 0. -1.
</event>
<event>
 5    1  0.1245610E-004  0.9118800E+02  0.7818608E-02  0.1130116E+00
         25   -1    0    0    0    0  0.00000000000E+00  0.00000000000E+00  0.99999998245E-14  0.12500000000E+03  0.12500000000E+03 0.  0.
        -13    1    3    3    0    0 -0.24732604782E+02 -0.23496206528E+02 -0.90771303943E+01  0.35301259478E+02  0.10566000000E+00 0.  1.
         23    2    1    0    0    0  0.39038771949E+01  0.26242527010E+02 -0.17366661812E+02  0.93290199882E+02  0.87735682424E+02 0.  0.
         13    1    3    3    0    0  0.28636481977E+02  0.49738733539E+02 -0.82895314174E+01  0.57988940404E+02  0.10566000000E+00 0. -1.
         22    1    1    0    0    0 -0.39038771949E+01 -0.26242527010E+02  0.17366661812E+02  0.31709800118E+02  0.00000000000E+00 0. -1.
</event>
<event>
 5    1  0.1245610E-004  0.9118800E+02  0.7818608E-02  0.1130116E+00
         25   -1    0    0    0    0  0.00000000000E+00  0.00000000000E+00  0.99999998245E-14  0.12500000000E+03  0.12500000000E+03 0.  0.
        -13    1    3    3    0    0 -0.17928736773E+02 -0.43361755401E+01 -0.27080439020E+02  0.32765887171E+02  0.10566000000E+00 0. -1.
         23    2    1    0    0    0  0.29942036686E+02  0.44342415409E+01  0.90821749451E+01  0.93398196876E+02  0.87889414716E+02 0.  0.
         13    1    3    3    0    0  0.47870773459E+02  0.87704170811E+01  0.36162613965E+02  0.60632309705E+02  0.10566000000E+00 0.  1.
         22    1    1    0    0    0 -0.29942036686E+02 -0.44342415409E+01 -0.90821749451E+01  0.31601803124E+02  0.00000000000E+00 0.  1.
</event>
<event>
 5    1  0.1245610E-004  0.9118800E+02  0.7818608E-02  0.1130116E+00
         25   -1    0    0    0    0  0.00000000000E+00  0.00000000000E+00  0.99999998245E-14  0.12500000000E+03  0.12500000000E+03 0.  0.
        -13    1    3    3    0    0  0.13929668391E+02 -0.23319482627E+02  0.47559990562E+02  0.54770409874E+02  0.10566000000E+00 0. -1.
         23    2    1    0    0    0  0.11387865738E+02 -0.24381854856E+02  0.47442643237E+01  0.97674803272E+02  0.93774734433E+02 0.  0.
         13    1    3    3    0    0 -0.25418026524E+01 -0.10623722285E+01 -0.42815726238E+02  0.42904393398E+02  0.10566000000E+00 0.  1.
         22    1    1    0    0    0 -0.11387865738E+02  0.24381854856E+02 -0.47442643237E+01  0.27325196728E+02  0.00000000000E+00 0. -1.
</event>
<event>
 5    1  0.1245610E-004  0.9118800E+02  0.7818608E-02  0.1130116E+00
         25   -1    0    0    0    0  0.00000000000E+00  0.00000000000E+00  0.99999998245E-14  0.12500000000E+03  0.12500000000E+03 0.  0.
        -13    1    3    3    0    0 -0.64408530214E+01  0.34846120550E+02 -0.17257276730E+02  0.39415244122E+02  0.10566000000E+00 0.  1.
         23    2    1    0    0    0 -0.16377403728E+02 -0.99376544896E+00  0.24613630857E+02  0.95418963057E+02  0.90717918651E+02 0.  0.
         13    1    3    3    0    0 -0.99365507070E+01 -0.35839885999E+02  0.41870907587E+02  0.56003718935E+02  0.10566000000E+00 0. -1.
         22    1    1    0    0    0  0.16377403728E+02  0.99376544896E+00 -0.24613630857E+02  0.29581036943E+02  0.00000000000E+00 0. -1.
</event>
<event>
 5    1  0.1245610E-004  0.9118800E+02  0.7818608E-02  0.1130116E+00
         25   -1    0    0    0    0  0.00000000000E+00  0.00000000000E+00  0.99999998245E-14  0.12500000000E+03  0.12500000000E+03 0.  0.
        -13    1    3    3    0    0 -0.12061854556E+02  0.36357173280E+02 -0.27799474704E+01  0.38406661612E+02  0.10566000000E+00 0.  1.
         23    2    1    0    0    0  0.26887463159E+02 -0.29316204227E+01 -0.13519106061E+02  0.94762667080E+02  0.89809057283E+02 0.  0.
         13    1    3    3    0    0  0.38949317714E+02 -0.39288793703E+02 -0.10739158591E+02  0.56356005468E+02  0.10566000000E+00 0. -1.
         22    1    1    0    0    0 -0.26887463159E+02  0.29316204227E+01  0.13519106061E+02  0.30237332920E+02  0.00000000000E+00 0. -1.
</event>
<event>
 5    1  0.1245610E-004  0.9118800E+02  0.7818608E-02  0.1130116E+00
         25   -1    0    0    0    0  0.00000000000E+00  0.00000000000E+00  0.99999998245E-14  0.12500000000E+03  0.12500000000E+03 0.  0.
        -13    1    3    3    0    0 -0.10893727440E+02  0.26540537863E+02  0.83921805333E+00  0.28701722920E+02  0.10566000000E+00 0.  1.
         23    2    1    0    0    0  0.39069790070E+02 -0.35074877850E+00 -0.43896050524E+01  0.85682826229E+02  0.76129538008E+02 0.  0.
         13    1    3    3    0    0  0.49963517510E+02 -0.26891286641E+02 -0.52288231057E+01  0.56981103309E+02  0.10566000000E+00 0. -1.
         22    1    1    0    0    0 -0.39069790070E+02  0.35074877850E+00  0.43896050524E+01  0.39317173771E+02  0.00000000000E+00 0. -1.
</event>
<event>
 5    1  0.1245610E-004  0.9118800E+02  0.7818608E-02  0.1130116E+00
         25   -1    0    0    0    0  0.00000000000E+00  0.00000000000E+00  0.99999998245E-14  0.12500000000E+03  0.12500000000E+03 0.  0.
        -13    1    3    3    0    0 -0.53393409430E+02 -0.19239427551E+02 -0.21653325599E+02  0.60744459966E+02  0.10566000000E+00 0. -1.
         23    2    1    0    0    0 -0.24948804621E+02  0.91789669178E+00 -0.13773962225E+02  0.96486714996E+02  0.92177430800E+02 0.  0.
         13    1    3    3    0    0  0.28444604809E+02  0.20157324243E+02  0.78793633743E+01  0.35742255029E+02  0.10566000000E+00 0.  1.
         22    1    1    0    0    0  0.24948804621E+02 -0.91789669178E+00  0.13773962225E+02  0.28513285004E+02  0.00000000000E+00 0. -1.
</event>
<event>
 5    1  0.1245610E-004  0.9118800E+02  0.7818608E-02  0.1130116E+00
         25   -1    0    0    0    0  0.00000000000E+00  0.00000000000E+00  0.99999998245E-14  0.12500000000E+03  0.12500000000E+03 0.  0.
        -13    1    3    3    0    0 -0.18160122802E+02  0.51019170033E+02  0.10334997226E+02  0.55132287298E+02  0.10566000000E+00 0.  1.
         23    2    1    0    0    0 -0.18568932496E+02  0.17552655003E+02 -0.13385035103E+02  0.96154547734E+02  0.91725879301E+02 0.  0.
         13    1    3    3    0    0 -0.40880969376E+00 -0.33466515030E+02 -0.23720032329E+02  0.41022260436E+02  0.10566000000E+00 0. -1.
         22    1    1    0    0    0  0.18568932496E+02 -0.17552655003E+02  0.13385035103E+02  0.28845452266E+02  0.00000000000E+00 0.  1.
</event>
<event>
 5    1  0.1245610E-004  0.9118800E+02  0.7818608E-02  0.1130116E+00
         25   -1    0    0    0    0  0.00000000000E+00  0.00000000000E+00  0.99999998245E-14  0.12500000000E+03  0.12500000000E+03 0.  0.
        -13    1    3    3    0    0  0.29105900221E+02  0.21813320545E+02 -0.28552959639E+01  0.36484767505E+02  0.10566000000E+00 0. -1.
         23    2    1    0    0    0 -0.62937569807E+01 -0.21852347029E+02 -0.19429182998E+02  0.95089640597E+02  0.90263005430E+02 0.  0.
         13    1    3    3    0    0 -0.35399657201E+02 -0.43665667574E+02 -0.16573887035E+02  0.58604873092E+02  0.10566000000E+00 0.  1.
         22    1    1    0    0    0  0.62937569807E+01  0.21852347029E+02  0.19429182998E+02  0.29910359403E+02  0.00000000000E+00 0.  1.
</event>
<event>
 5    1  0.1245610E-004  0.9118800E+02  0.7818608E-02  0.1130116E+00
         25   -1    0    0    0    0  0.00000000000E+00  0.00000000000E+00  0.99999998245E-14  0.12500000000E+03  0.12500000000E+03 0.  0.
        -13    1    3    3    0    0 -0.93940625169E+01 -0.75699768433E+01 -0.28515960985E+02  0.30963271063E+02  0.10566000000E+00 0. -1.
         23    2    1    0    0    0  0.81091618021E+01  0.83483980342E+01  0.29321684026E+02  0.93452965132E+02  0.87967273931E+02 0.  0.
         13    1    3    3    0    0  0.17503224319E+02  0.15918374877E+02  0.57837645011E+02  0.62489694069E+02  0.10566000000E+00 0.  1.
         22    1    1    0    0    0 -0.81091618021E+01 -0.83483980342E+01 -0.29321684026E+02  0.31547034868E+02  0.00000000000E+00 0.  1.
</event>
<event>
 5    1  0.1245610E-004  0.9118800E+02  0.7818608E-02  0.1130116E+00
         25   -1    0    0    0    0  0.00000000000E+00  0.00000000000E+00  0.99999998245E-14  0.12500000000E+03  0.12500000000E+03 0.  0.
        -13    1    3    3    0    0  0.44598765122E+02  0.40090384616E+02  0.63932087762E+01  0.60308980024E+02  0.10566000000E+00 0.  1.
         23    2    1    0    0    0  0.27133618835E+02  0.13858259105E+02 -0.55876875370E+01  0.94024092127E+02  0.88775126200E+02 0.  0.
         13    1    3    3    0    0 -0.17465146286E+02 -0.26232125511E+02 -0.11980896313E+02  0.33715112103E+02  0.10566000000E+00 0. -1.
         22    1    1    0    0    0 -0.27133618835E+02 -0.13858259105E+02  0.55876875370E+01  0.30975907873E+02  0.00000000000E+00 0.  1.
</event>
<event>
 5    1  0.1245610E-004  0.9118800E+02  0.7818608E-02  0.1130116E+00
         25   -1    0    0    0    0  0.00000000000E+00  0.00000000000E+00  0.99999998245E-14  0.12500000000E+03  0.12500000000E+03 0.  0.
        -13    1    3    3    0    0 -0.64380927325E+00 -0.23332050170E+02 -0.22851831711E+02  0.32665217466E+02  0.10566000000E+00 0.  1.
         23    2    1    0    0    0 -0.16807190985E+02  0.14845580232E+02  0.21890157605E+02  0.93662292343E+02  0.88264223135E+02 0.  0.
         13    1    3    3    0    0 -0.16163381711E+02  0.38177630402E+02  0.44741989316E+02  0.60997074877E+02  0.10566000000E+00 0. -1.
         22    1    1    0    0    0  0.16807190985E+02 -0.14845580232E+02 -0.21890157605E+02  0.31337707657E+02  0.00000000000E+00 0. -1.
</event>
<event>
 5    1  0.1245610E-004  0.9118800E+02  0.7818608E-02  0.1130116E+00
         25   -1    0    0    0    0  0.00000000000E+00  0.00000000000E+00  0.99999998245E-14  0.12500000000E+03  0.12500000000E+03 0.  0.
        -13    1    3    3    0    0 -0.93175282762E+01  0.53188874555E+02 -0.24875864952E+02  0.59453280235E+02  0.10566000000E+00 0. -1.
         23    2    1    0    0    0 -0.43361727271E+01  0.35779910545E+02 -0.16275797698E+01  0.88921565882E+02  0.81273559479E+02 0.  0.
         13    1    3    3    0    0  0.49813555491E+01 -0.17408964010E+02  0.23248285182E+02  0.29468285647E+02  0.10566000000E+00 0.  1.
         22    1    1    0    0    0  0.43361727271E+01 -0.35779910545E+02  0.16275797698E+01  0.36078434118E+02  0.00000000000E+00 0. -1.
</event>
<event>
 5    1  0.1245610E-004  0.9118800E+02  0.7818608E-02  0.1130116E+00
         25   -1    0    0    0    0  0.00000000000E+00  0.00000000000E+00  0.99999998245E-14  0.12500000000E+03  0.12500000000E+03 0.  0.
        -13    1    3    3    0    0  0.21241112707E+02 -0.21232862286E+02 -0.45106488972E+02  0.54190643300E+02  0.10566000000E+00 0.  1.
         23    2    1    0    0    0 -0.73005353321E+01  0.26273799678E+01 -0.29437271944E+02  0.94557366718E+02  0.89522855627E+02 0.  0.
         13    1    3    3    0    0 -0.28541648039E+02  0.23860242254E+02  0.15669217028E+02  0.40366723418E+02  0.10566000000E+00 0. -1.
         22    1    1    0    0    0  0.73005353321E+01 -0.26273799678E+01  0.29437271944E+02  0.30442633282E+02  0.00000000000E+00 0.  1.
</event>
<event>
 5    1  0.1245610E-004  0.9118800E+02  0.7818608E-02  0.1130116E+00
         25   -1    0    0    0    0  0.00000000000E+00  0.00000000000E+00  0.99999998245E-14  0.12500000000E+03  0.12500000000E+03 0.  0.
        -13    1    3    3    0    0 -0.32383387561E+02 -0.58801001258E+01 -0.90661049414E+00  0.32925559586E+02  0.10566000000E+00 0.  1.
         23    2    1    0    0    0  0.23046124051E+02 -0.16096928109E+01 -0.22674843801E+02  0.92629280420E+02  0.86788939993E+02 0.  0.
         13    1    3    3    0    0  0.55429511611E+02  0.42704073150E+01 -0.21768233307E+02  0.59703720834E+02  0.10566000000E+00 0. -1.
         22    1    1    0    0    0 -0.23046124051E+02  0.16096928109E+01  0.22674843801E+02  0.32370719580E+02  0.00000000000E+00 0. -1.
</event>
<event>
 5    1  0.1245610E-004  0.9118800E+02  0.7818608E-02  0.1130116E+00
         25   -1    0    0    0    0  0.00000000000E+00  0.00000000000E+00  0.99999998245E-14  0.12500000000E+03  0.12500000000E+03 0.  0.
        -13    1    3    3    0    0  0.14476582474E+01 -0.49250519496E+02  0.21254911963E+02  0.53660896672E+02  0.10566000000E+00 0.  1.
         23    2    1    0    0    0  0.13732456505E+02 -0.13144448177E+02  0.26739469726E+02  0.92192133249E+02  0.86157027063E+02 0.  0.
         13    1    3    3    0    0  0.12284798257E+02  0.36106071319E+02  0.54845577625E+01  0.38531236578E+02  0.10566000000E+00 0. -1.
         22    1    1    0    0    0 -0.13732456505E+02  0.13144448177E+02 -0.26739469726E+02  0.32807866751E+02  0.00000000000E+00 0.  1.
</event>
<event>
 5    1  0.1245610E-004  0.9118800E+02  0.7818608E-02  0.1130116E+00
         25   -1    0    0    0    0  0.00000000000E+00  0.00000000000E+00  0.99999998245E-14  0.12500000000E+03  0.12500000000E+03 0.  0.
        -13    1    3    3    0    0 -0.16108935001E+02 -0.38941076308E+02  0.62972438022E+01  0.42609525396E+02  0.10566000000E+00 0. -1.
         23    2    1    0    0    0  0.26318591224E+02 -0.95444262403E+01 -0.74587339158E+01  0.96027650632E+02  0.91552786184E+02 0.  0.
         13    1    3    3    0    0  0.42427526225E+02  0.29396650067E+02 -0.13755977718E+02  0.53418125237E+02  0.10566000000E+00 0.  1.
         22    1    1    0    0    0 -0.26318591224E+02  0.95444262403E+01  0.74587339158E+01  0.28972349368E+02  0.00000000000E+00 0.  1.
</event>
<event>
 5    1  0.1245610E-004  0.9118800E+02  0.7818608E-02  0.1130116E+00
         25   -1    0    0    0    0  0.00000000000E+00  0.00000000000E+00  0.99999998245E-14  0.12500000000E+03  0.12500000000E+03 0.  0.
        -13    1    3    3    0    0 -0.69525077684E+01  0.11913008235E-01 -0.44477900471E+02  0.45018133019E+02  0.10566000000E+00 0.  1.
         23    2    1    0    0    0 -0.14170199686E+02 -0.24440401748E+02  0.52803333673E+00  0.96743910109E+02  0.92525550672E+02 0.  0.
         13    1    3    3    0    0 -0.72176919176E+01 -0.24452314756E+02  0.45005933808E+02  0.51725777089E+02  0.10566000000E+00 0. -1.
         22    1    1    0    0    0  0.14170199686E+02  0.24440401748E+02 -0.52803333673E+00  0.28256089891E+02  0.00000000000E+00 0. -1.
</event>
<event>
 5    1  0.1245610E-004  0.9118800E+02  0.7818608E-02  0.1130116E+00
         25   -1    0    0    0    0  0.00000000000E+00  0.00000000000E+00  0.99999998245E-14  0.12500000000E+03  0.12500000000E+03 0.  0.
        -13    1    3    3    0    0 -0.23780166290E+02 -0.25450866671E+02 -0.23668975591E+02  0.42112640533E+02  0.10566000000E+00 0. -1.
         23    2    1    0    0    0  0.25399649642E+02 -0.89339086432E+01 -0.13098231300E+02  0.95058046344E+02  0.90219241773E+02 0.  0.
         13    1    3    3    0    0  0.49179815932E+02  0.16516958028E+02  0.10570744292E+02  0.52945405811E+02  0.10566000000E+00 0.  1.
         22    1    1    0    0    0 -0.25399649642E+02  0.89339086432E+01  0.13098231300E+02  0.29941953656E+02  0.00000000000E+00 0.  1.
</event>
<event>
 5    1  0.1245610E-004  0.9118800E+02  0.7818608E-02  0.1130116E+00
         25   -1    0    0    0    0  0.00000000000E+00  0.00000000000E+00  0.99999998245E-14  0.12500000000E+03  0.12500000000E+03 0.  0.
        -13    1    3    3    0    0  0.30688455762E+02  0.22518812003E+02 -0.14481377024E+02  0.40725908899E+02  0.10566000000E+00 0.  1.
         23    2    1    0    0    0 -0.61075660358E+01  0.13776571547E+02  0.25259446103E+02  0.95586807315E+02  0.90948896799E+02 0.  0.
         13    1    3    3    0    0 -0.36796021798E+02 -0.87422404558E+01  0.39740823126E+02  0.54860898417E+02  0.10566000000E+00 0. -1.
         22    1    1    0    0    0  0.61075660358E+01 -0.13776571547E+02 -0.25259446103E+02  0.29413192685E+02  0.00000000000E+00 0. -1.
</event>
<event>
 5    1  0.1245610E-004  0.9118800E+02  0.7818608E-02  0.1130116E+00
         25   -1    0    0    0    0  0.00000000000E+00  0.00000000000E+00  0.99999998245E-14  0.12500000000E+03  0.12500000000E+03 0.  0.
        -13    1    3    3    0    0  0.43894337280E+02  0.20138262081E+02 -0.20686262082E+02  0.52537558450E+02  0.10566000000E+00 0.  1.
         23    2    1    0    0    0  0.38784498593E+01  0.92277981609E+01 -0.28543750121E+02  0.94752019850E+02  0.89794236800E+02 0.  0.
         13    1    3    3    0    0 -0.40015887420E+02 -0.10910463920E+02 -0.78574880388E+01  0.42214461400E+02  0.10566000000E+00 0. -1.
         22    1    1    0    0    0 -0.38784498593E+01 -0.92277981609E+01  0.28543750121E+02  0.30247980150E+02  0.00000000000E+00 0. -1.
</event>
<event>
 5    1  0.1245610E-004  0.9118800E+02  0.7818608E-02  0.1130116E+00
         25   -1    0    0    0    0  0.00000000000E+00  0.00000000000E+00  0.99999998245E-14  0.12500000000E+03  0.12500000000E+03 0.  0.
        -13    1    3    3    0    0 -0.81112785636E+01 -0.14675816757E+02 -0.33085017946E+02  0.37091805213E+02  0.10566000000E+00 0. -1.
         23    2    1    0    0    0 -0.22807428624E+02  0.43558322202E+01  0.19348223472E+02  0.94775741096E+02  0.89827252401E+02 0.  0.
         13    1    3    3    0    0 -0.14696150060E+02  0.19031648977E+02  0.52433241418E+02  0.57683935883E+02  0.10566000000E+00 0.  1.
         22    1    1    0    0    0  0.22807428624E+02 -0.43558322202E+01 -0.19348223472E+02  0.30224258904E+02  0.00000000000E+00 0.  1.
</event>
<event>
 5    1  0.1245610E-004  0.9118800E+02  0.7818608E-02  0.1130116E+00
         25   -1    0    0    0    0  0.00000000000E+00  0.00000000000E+00  0.99999998245E-14  0.12500000000E+03  0.12500000000E+03 0.  0.
        -13    1    3    3    0    0  0.23768880703E+02  0.53285555787E+02 -0.18836798410E+02  0.61311877184E+02  0.10566000000E+00 0. -1.
         23    2    1    0    0    0  0.15298352128E+02  0.25527834059E+02 -0.13205291837E+01  0.95209839092E+02  0.90429308153E+02 0.  0.
         13    1    3    3    0    0 -0.84705285751E+01 -0.27757721728E+02  0.17516269226E+02  0.33897961908E+02  0.10566000000E+00 0.  1.
         22    1    1    0    0    0 -0.15298352128E+02 -0.25527834059E+02  0.13205291837E+01  0.29790160908E+02  0.00000000000E+00 0. -1.
</event>
<event>
 5    1  0.1245610E-004  0.9118800E+02  0.7818608E-02  0.1130116E+00
         25   -1    0    0    0    0  0.00000000000E+00  0.00000000000E+00  0.99999998245E-14  0.12500000000E+03  0.12500000000E+03 0.  0.
        -13    1    3    3    0    0 -0.60395182476E+02 -0.28436730794E+01  0.11898080792E+02  0.61621749679E+02  0.10566000000E+00 0. -1.
         23    2    1    0    0    0 -0.28802758736E+02  0.34754130411E+01  0.11356828643E+02  0.93844663965E+02  0.88522121480E+02 0.  0.
         13    1    3    3    0    0  0.31592423740E+02  0.63190861205E+01 -0.54125214897E+00  0.32222914286E+02  0.10566000000E+00 0.  1.
         22    1    1    0    0    0  0.28802758736E+02 -0.34754130411E+01 -0.11356828643E+02  0.31155336035E+02  0.00000000000E+00 0. -1.
</event>
<event>
 5    1  0.1245610E-004  0.9118800E+02  0.7818608E-02  0.1130116E+00
         25   -1    0    0    0    0  0.00000000000E+00  0.00000000000E+00  0.99999998245E-14  0.12500000000E+03  0.12500000000E+03 0.  0.
        -13    1    3    3    0    0  0.16685947558E+02 -0.51349796406E+02 -0.21922759429E+02  0.58273844749E+02  0.10566000000E+00 0. -1.
         23    2    1    0    0    0 -0.51164026875E+00 -0.44324944706E+02 -0.13578924967E+02  0.78638920395E+02  0.63519525334E+02 0.  0.
         13    1    3    3    0    0 -0.17197587827E+02  0.70248517000E+01  0.83438344627E+01  0.20365075646E+02  0.10566000000E+00 0.  1.
         22    1    1    0    0    0  0.51164026875E+00  0.44324944706E+02  0.13578924967E+02  0.46361079605E+02  0.00000000000E+00 0. -1.
</event>
<event>
 5    1  0.1245610E-004  0.9118800E+02  0.7818608E-02  0.1130116E+00
         25   -1    0    0    0    0  0.00000000000E+00  0.00000000000E+00  0.99999998245E-14  0.12500000000E+03  0.12500000000E+03 0.  0.
        -13    1    3    3    0    0 -0.38539128324E+02 -0.11567325938E+02 -0.12514427108E+02  0.42138930827E+02  0.10566000000E+00 0.  1.
         23    2    1    0    0    0 -0.41257806838E+01  0.28438184264E+02 -0.83598324934E+01  0.95072768424E+02  0.90239637112E+02 0.  0.
         13    1    3    3    0    0  0.34413347641E+02  0.40005510202E+02  0.41545946147E+01  0.52933837597E+02  0.10566000000E+00 0. -1.
         22    1    1    0    0    0  0.41257806838E+01 -0.28438184264E+02  0.83598324934E+01  0.29927231576E+02  0.00000000000E+00 0. -1.
</event>
<event>
 5    1  0.1245610E-004  0.9118800E+02  0.7818608E-02  0.1130116E+00
         25   -1    0    0    0    0  0.00000000000E+00  0.00000000000E+00  0.99999998245E-14  0.12500000000E+03  0.12500000000E+03 0.  0.
        -13    1    3    3    0    0  0.27577968291E+00 -0.34980781893E+02  0.52547272890E+01  0.35374489102E+02  0.10566000000E+00 0.  1.
         23    2    1    0    0    0 -0.23273898448E+02  0.19041320672E+02 -0.25513139467E+01  0.94821274965E+02  0.89890593174E+02 0.  0.
         13    1    3    3    0    0 -0.23549678131E+02  0.54022102565E+02 -0.78060412358E+01  0.59446785863E+02  0.10566000000E+00 0. -1.
         22    1    1    0    0    0  0.23273898448E+02 -0.19041320672E+02  0.25513139467E+01  0.30178725035E+02  0.00000000000E+00 0. -1.
</event>
<event>
 5    1  0.1245610E-004  0.9118800E+02  0.7818608E-02  0.1130116E+00
         25   -1    0    0    0    0  0.00000000000E+00  0.00000000000E+00  0.99999998245E-14  0.12500000000E+03  0.12500000000E+03 0.  0.
        -13    1    3    3    0    0 -0.42897884531E+02 -0.33804038972E+01  0.44414190307E+02  0.61840820599E+02  0.10566000000E+00 0.  1.
         23    2    1    0    0    0 -0.11557848592E+02  0.47803222535E+01  0.13043196715E+02  0.10692901980E+03  0.10539096237E+03 0.  0.
         13    1    3    3    0    0  0.31340035939E+02  0.81607261507E+01 -0.31370993592E+02  0.45088199198E+02  0.10566000000E+00 0. -1.
         22    1    1    0    0    0  0.11557848592E+02 -0.47803222535E+01 -0.13043196715E+02  0.18070980203E+02  0.00000000000E+00 0.  1.
</event>
<event>
 5    1  0.1245610E-004  0.9118800E+02  0.7818608E-02  0.1130116E+00
         25   -1    0    0    0    0  0.00000000000E+00  0.00000000000E+00  0.99999998245E-14  0.12500000000E+03  0.12500000000E+03 0.  0.
        -13    1    3    3    0    0 -0.27968052105E+02  0.22138800395E+02 -0.28331489904E+02  0.45552419318E+02  0.10566000000E+00 0. -1.
         23    2    1    0    0    0 -0.27555472547E+02 -0.79603335766E+01  0.10297513447E+02  0.94525260278E+02  0.89478014448E+02 0.  0.
         13    1    3    3    0    0  0.41257955841E+00 -0.30099133972E+02  0.38629003351E+02  0.48972840960E+02  0.10566000000E+00 0.  1.
         22    1    1    0    0    0  0.27555472547E+02  0.79603335766E+01 -0.10297513447E+02  0.30474739722E+02  0.00000000000E+00 0.  1.
</event>
<event>
 5    1  0.1245610E-004  0.9118800E+02  0.7818608E-02  0.1130116E+00
         25   -1    0    0    0    0  0.00000000000E+00  0.00000000000E+00  0.99999998245E-14  0.12500000000E+03  0.12500000000E+03 0.  0.
        -13    1    3    3    0    0  0.33472403416E+02  0.44064478614E+02  0.12253944137E+02  0.56676718121E+02  0.10566000000E+00 0.  1.
         23    2    1    0    0    0  0.17582374405E+02  0.22943276030E+02 -0.13065762235E+02  0.93278588501E+02  0.87719137736E+02 0.  0.
         13    1    3    3    0    0 -0.15890029011E+02 -0.21121202584E+02 -0.25319706372E+02  0.36601870380E+02  0.10566000000E+00 0. -1.
         22    1    1    0    0    0 -0.17582374405E+02 -0.22943276030E+02  0.13065762235E+02  0.31721411499E+02  0.00000000000E+00 0.  1.
</event>
<event>
 5    1  0.1245610E-004  0.9118800E+02  0.7818608E-02  0.1130116E+00
         25   -1    0    0    0    0  0.00000000000E+00  0.00000000000E+00  0.99999998245E-14  0.12500000000E+03  0.12500000000E+03 0.  0.
        -13    1    3    3    0    0 -0.14458418579E+02  0.41793488855E+02  0.41748675856E+02  0.60816976892E+02  0.10566000000E+00 0.  1.
         23    2    1    0    0    0  0.34479459023E+00  0.25816512249E+02  0.15657978599E+02  0.94804247288E+02  0.89866911720E+02 0.  0.
         13    1    3    3    0    0  0.14803213169E+02 -0.15976976606E+02 -0.26090697257E+02  0.33987270396E+02  0.10566000000E+00 0. -1.
         22    1    1    0    0    0 -0.34479459023E+00 -0.25816512249E+02 -0.15657978599E+02  0.30195752712E+02  0.00000000000E+00 0.  1.
</event>
<event>
 5    1  0.1245610E-004  0.9118800E+02  0.7818608E-02  0.1130116E+00
         25   -1    0    0    0    0  0.00000000000E+00  0.00000000000E+00  0.99999998245E-14  0.12500000000E+03  0.12500000000E+03 0.  0.
        -13    1    3    3    0    0  0.43244200772E+02 -0.44025573234E+02 -0.31814562356E+01  0.61793566225E+02  0.10566000000E+00 0.  1.
         23    2    1    0    0    0  0.21325420817E+02 -0.18511360603E+02 -0.76941908906E+01  0.95731508104E+02  0.91147556336E+02 0.  0.
         13    1    3    3    0    0 -0.21918779955E+02  0.25514212631E+02 -0.45127346550E+01  0.33937941879E+02  0.10566000000E+00 0. -1.
         22    1    1    0    0    0 -0.21325420817E+02  0.18511360603E+02  0.76941908906E+01  0.29268491896E+02  0.00000000000E+00 0.  1.
</event>
<event>
 5    1  0.1245610E-004  0.9118800E+02  0.7818608E-02  0.1130116E+00
         25   -1    0    0    0    0  0.00000000000E+00  0.00000000000E+00  0.99999998245E-14  0.12500000000E+03  0.12500000000E+03 0.  0.
        -13    1    3    3    0    0  0.33755375284E+02  0.14721204440E+02 -0.11664519970E+01  0.36844416063E+02  0.10566000000E+00 0.  1.
         23    2    1    0    0    0 -0.10155393900E+01 -0.27058548110E+02  0.15628397786E+02  0.93735912561E+02  0.88368422755E+02 0.  0.
         13    1    3    3    0    0 -0.34770914674E+02 -0.41779752550E+02  0.16794849783E+02  0.56891496497E+02  0.10566000000E+00 0. -1.
         22    1    1    0    0    0  0.10155393900E+01  0.27058548110E+02 -0.15628397786E+02  0.31264087439E+02  0.00000000000E+00 0. -1.
</event>
<event>
 5    1  0.1245610E-004  0.9118800E+02  0.7818608E-02  0.1130116E+00
         25   -1    0    0    0    0  0.00000000000E+00  0.00000000000E+00  0.99999998245E-14  0.12500000000E+03  0.12500000000E+03 0.  0.
        -13    1    3    3    0    0 -0.14484608440E+02  0.74959403039E+01  0.33859059440E+02  0.37582443679E+02  0.10566000000E+00 0.  1.
         23    2    1    0    0    0  0.28803663845E+02  0.32096211646E+01 -0.46115239665E+01  0.95653469163E+02  0.91040470620E+02 0.  0.
         13    1    3    3    0    0  0.43288272284E+02 -0.42863191394E+01 -0.38470583406E+02  0.58071025484E+02  0.10566000000E+00 0. -1.
         22    1    1    0    0    0 -0.28803663845E+02 -0.32096211646E+01  0.46115239665E+01  0.29346530837E+02  0.00000000000E+00 0. -1.
</event>
<event>
 5    1  0.1245610E-004  0.9118800E+02  0.7818608E-02  0.1130116E+00
         25   -1    0    0    0    0  0.00000000000E+00  0.00000000000E+00  0.99999998245E-14  0.12500000000E+03  0.12500000000E+03 0.  0.
        -13    1    3    3    0    0  0.39728418554E+02 -0.39086783767E+02  0.38002406259E+01  0.55862124010E+02  0.10566000000E+00 0.  1.
         23    2    1    0    0    0  0.48782456115E+01 -0.25654330802E+02  0.15038091945E+02  0.94865531720E+02  0.89952114651E+02 0.  0.
         13    1    3    3    0    0 -0.34850172942E+02  0.13432452965E+02  0.11237851319E+02  0.39003407711E+02  0.10566000000E+00 0. -1.
         22    1    1    0    0    0 -0.48782456115E+01  0.25654330802E+02 -0.15038091945E+02  0.30134468280E+02  0.00000000000E+00 0.  1.
</event>
<event>
 5    1  0.1245610E-004  0.9118800E+02  0.7818608E-02  0.1130116E+00
         25   -1    0    0    0    0  0.00000000000E+00  0.00000000000E+00  0.99999998245E-14  0.12500000000E+03  0.12500000000E+03 0.  0.
        -13    1    3    3    0    0  0.34197307738E+02 -0.95202263650E+01  0.16704378966E+02  0.39231849399E+02  0.10566000000E+00 0.  1.
         23    2    1    0    0    0 -0.19608469709E+02 -0.21171847678E+02  0.28429582693E+01  0.96003075505E+02  0.91519226813E+02 0.  0.
         13    1    3    3    0    0 -0.53805777447E+02 -0.11651621313E+02 -0.13861420697E+02  0.56771226107E+02  0.10566000000E+00 0. -1.
         22    1    1    0    0    0  0.19608469709E+02  0.21171847678E+02 -0.28429582693E+01  0.28996924495E+02  0.00000000000E+00 0. -1.
</event>
<event>
 5    1  0.1245610E-004  0.9118800E+02  0.7818608E-02  0.1130116E+00
         25   -1    0    0    0    0  0.00000000000E+00  0.00000000000E+00  0.99999998245E-14  0.12500000000E+03  0.12500000000E+03 0.  0.
        -13    1    3    3    0    0  0.35390140257E+02 -0.12906048386E+02 -0.77348263348E+01  0.38456037430E+02  0.10566000000E+00 0.  1.
         23    2    1    0    0    0  0.51684605979E+01 -0.12312808278E+02  0.33126777216E+02  0.89283034824E+02  0.81827615791E+02 0.  0.
         13    1    3    3    0    0 -0.30221679660E+02  0.59324010826E+00  0.40861603551E+02  0.50826997394E+02  0.10566000000E+00 0. -1.
         22    1    1    0    0    0 -0.51684605979E+01  0.12312808278E+02 -0.33126777216E+02  0.35716965176E+02  0.00000000000E+00 0. -1.
</event>
<event>
 5    1  0.1245610E-004  0.9118800E+02  0.7818608E-02  0.1130116E+00
         25   -1    0    0    0    0  0.00000000000E+00  0.00000000000E+00  0.99999998245E-14  0.12500000000E+03  0.12500000000E+03 0.  0.
        -13    1    3    3    0    0 -0.39204719396E+01  0.25710590168E+02 -0.40494485735E+02  0.48127113834E+02  0.10566000000E+00 0.  1.
         23    2    1    0    0    0  0.20747481199E+02 -0.90389596502E+01 -0.12077444393E+02  0.99347993632E+02  0.95979156112E+02 0.  0.
         13    1    3    3    0    0  0.24667953138E+02 -0.34749549818E+02  0.28417041342E+02  0.51220879798E+02  0.10566000000E+00 0. -1.
         22    1    1    0    0    0 -0.20747481199E+02  0.90389596502E+01  0.12077444393E+02  0.25652006368E+02  0.00000000000E+00 0. -1.
</event>
<event>
 5    1  0.1245610E-004  0.9118800E+02  0.7818608E-02  0.1130116E+00
         25   -1    0    0    0    0  0.00000000000E+00  0.00000000000E+00  0.99999998245E-14  0.12500000000E+03  0.12500000000E+03 0.  0.
        -13    1    3    3    0    0 -0.21723860464E+02 -0.54088577958E+01  0.54668018395E+02  0.59074404401E+02  0.10566000000E+00 0.  1.
         23    2    1    0    0    0 -0.11233121112E+02  0.12051881265E+02  0.24342942144E+02  0.95605958356E+02  0.90975214147E+02 0.  0.
         13    1    3    3    0    0  0.10490739352E+02  0.17460739061E+02 -0.30325076251E+02  0.36531553955E+02  0.10566000000E+00 0. -1.
         22    1    1    0    0    0  0.11233121112E+02 -0.12051881265E+02 -0.24342942144E+02  0.29394041644E+02  0.00000000000E+00 0.  1.
</event>
<event>
 5    1  0.1245610E-004  0.9118800E+02  0.7818608E-02  0.1130116E+00
         25   -1    0    0    0    0  0.00000000000E+00  0.00000000000E+00  0.99999998245E-14  0.12500000000E+03  0.12500000000E+03 0.  0.
        -13    1    3    3    0    0  0.59393845090E+01  0.50333361514E+02  0.36401577482E+02  0.62400397249E+02  0.10566000000E+00 0.  1.
         23    2    1    0    0    0  0.34210628236E+01  0.26729429532E+02  0.16299730491E+02  0.93506392902E+02  0.88043161151E+02 0.  0.
         13    1    3    3    0    0 -0.25183216854E+01 -0.23603931982E+02 -0.20101846991E+02  0.31105995653E+02  0.10566000000E+00 0. -1.
         22    1    1    0    0    0 -0.34210628236E+01 -0.26729429532E+02 -0.16299730491E+02  0.31493607098E+02  0.00000000000E+00 0.  1.
</event>
<event>
 5    1  0.1245610E-004  0.9118800E+02  0.7818608E-02  0.1130116E+00
         25   -1    0    0    0    0  0.00000000000E+00  0.00000000000E+00  0.99999998245E-14  0.12500000000E+03  0.12500000000E+03 0.  0.
        -13    1    3    3    0    0  0.37469189822E+02  0.18620542257E+02 -0.43672171010E+02  0.60480860317E+02  0.10566000000E+00 0.  1.
         23    2    1    0    0    0  0.19470176117E+02  0.17844143514E+02 -0.14223961540E+02  0.95002961852E+02  0.90142889142E+02 0.  0.
         13    1    3    3    0    0 -0.17999013705E+02 -0.77639874325E+00  0.29448209470E+02  0.34522101535E+02  0.10566000000E+00 0. -1.
         22    1    1    0    0    0 -0.19470176117E+02 -0.17844143514E+02  0.14223961540E+02  0.29997038148E+02  0.00000000000E+00 0.  1.
</event>
<event>
 5    1  0.1245610E-004  0.9118800E+02  0.7818608E-02  0.1130116E+00
         25   -1    0    0    0    0  0.00000000000E+00  0.00000000000E+00  0.99999998245E-14  0.12500000000E+03  0.12500000000E+03 0.  0.
        -13    1    3    3    0    0  0.18172192275E+02 -0.38345743286E+02 -0.20920578834E+01  0.42485438334E+02  0.10566000000E+00 0.  1.
         23    2    1    0    0    0 -0.16691009732E+02 -0.10578281283E+02  0.23827751726E+02  0.94044360884E+02  0.88803661079E+02 0.  0.
         13    1    3    3    0    0 -0.34863202007E+02  0.27767462004E+02  0.25919809609E+02  0.51558922550E+02  0.10566000000E+00 0. -1.
         22    1    1    0    0    0  0.16691009732E+02  0.10578281283E+02 -0.23827751726E+02  0.30955639116E+02  0.00000000000E+00 0. -1.
</event>
<event>
 5    1  0.1245610E-004  0.9118800E+02  0.7818608E-02  0.1130116E+00
         25   -1    0    0    0    0  0.00000000000E+00  0.00000000000E+00  0.99999998245E-14  0.12500000000E+03  0.12500000000E+03 0.  0.
        -13    1    3    3    0    0  0.37834080263E+02 -0.18566064237E+02 -0.30350904326E+02  0.51935584411E+02  0.10566000000E+00 0.  1.
         23    2    1    0    0    0  0.20687407217E+02  0.16631026530E+02 -0.68961878438E+01  0.97575243528E+02  0.93641929080E+02 0.  0.
         13    1    3    3    0    0 -0.17146673046E+02  0.35197090767E+02  0.23454716483E+02  0.45639659117E+02  0.10566000000E+00 0. -1.
         22    1    1    0    0    0 -0.20687407217E+02 -0.16631026530E+02  0.68961878438E+01  0.27424756472E+02  0.00000000000E+00 0.  1.
</event>
<event>
 5    1  0.1245610E-004  0.9118800E+02  0.7818608E-02  0.1130116E+00
         25   -1    0    0    0    0  0.00000000000E+00  0.00000000000E+00  0.99999998245E-14  0.12500000000E+03  0.12500000000E+03 0.  0.
        -13    1    3    3    0    0 -0.24014290723E+02  0.26294326344E+02 -0.15293538566E+02  0.38755402755E+02  0.10566000000E+00 0. -1.
         23    2    1    0    0    0  0.17359754411E+02 -0.15085267969E+02 -0.15490125501E+02  0.97271488122E+02  0.93235572774E+02 0.  0.
         13    1    3    3    0    0  0.41374045134E+02 -0.41379594313E+02 -0.19658693447E+00  0.58516085367E+02  0.10566000000E+00 0.  1.
         22    1    1    0    0    0 -0.17359754411E+02  0.15085267969E+02  0.15490125501E+02  0.27728511878E+02  0.00000000000E+00 0.  1.
</event>
<event>
 5    1  0.1245610E-004  0.9118800E+02  0.7818608E-02  0.1130116E+00
         25   -1    0    0    0    0  0.00000000000E+00  0.00000000000E+00  0.99999998245E-14  0.12500000000E+03  0.12500000000E+03 0.  0.
        -13    1    3    3    0    0 -0.41675342944E+02  0.15733745693E+01 -0.33606773132E+02  0.53560583281E+02  0.10566000000E+00 0.  1.
         23    2    1    0    0    0 -0.14442497645E+02 -0.22454483862E+02 -0.13241972417E+02  0.95198331972E+02  0.90413400517E+02 0.  0.
         13    1    3    3    0    0  0.27232845299E+02 -0.24027858431E+02  0.20364800715E+02  0.41637748691E+02  0.10566000000E+00 0. -1.
         22    1    1    0    0    0  0.14442497645E+02  0.22454483862E+02  0.13241972417E+02  0.29801668028E+02  0.00000000000E+00 0.  1.
</event>
<event>
 5    1  0.1245610E-004  0.9118800E+02  0.7818608E-02  0.1130116E+00
         25   -1    0    0    0    0  0.00000000000E+00  0.00000000000E+00  0.99999998245E-14  0.12500000000E+03  0.12500000000E+03 0.  0.
        -13    1    3    3    0    0  0.44536164868E+02 -0.34983101118E+02 -0.10664575986E+02  0.57628393089E+02  0.10566000000E+00 0. -1.
         23    2    1    0    0    0  0.88312020747E+01 -0.23774024714E+02 -0.15367668350E+02  0.95346001758E+02  0.90617329687E+02 0.  0.
         13    1    3    3    0    0 -0.35704962794E+02  0.11209076404E+02 -0.47030923640E+01  0.37717608669E+02  0.10566000000E+00 0.  1.
         22    1    1    0    0    0 -0.88312020747E+01  0.23774024714E+02  0.15367668350E+02  0.29653998242E+02  0.00000000000E+00 0. -1.
</event>
<event>
 5    1  0.1245610E-004  0.9118800E+02  0.7818608E-02  0.1130116E+00
         25   -1    0    0    0    0  0.00000000000E+00  0.00000000000E+00  0.99999998245E-14  0.12500000000E+03  0.12500000000E+03 0.  0.
        -13    1    3    3    0    0  0.90170062736E+01  0.22860313920E+02 -0.31677898008E+02  0.40092402534E+02  0.10566000000E+00 0.  1.
         23    2    1    0    0    0 -0.28204158132E+02 -0.52644709134E+00  0.37399737907E+01  0.96544085212E+02  0.92255196617E+02 0.  0.
         13    1    3    3    0    0 -0.37221164406E+02 -0.23386761011E+02  0.35417871799E+02  0.56451682678E+02  0.10566000000E+00 0. -1.
         22    1    1    0    0    0  0.28204158132E+02  0.52644709134E+00 -0.37399737907E+01  0.28455914788E+02  0.00000000000E+00 0. -1.
</event>
<event>
 5    1  0.1245610E-004  0.9118800E+02  0.7818608E-02  0.1130116E+00
         25   -1    0    0    0    0  0.00000000000E+00  0.00000000000E+00  0.99999998245E-14  0.12500000000E+03  0.12500000000E+03 0.  0.
        -13    1    3    3    0    0  0.15858909005E+02  0.38058503234E+02 -0.14836183600E+01  0.41257326025E+02  0.10566000000E+00 0. -1.
         23    2    1    0    0    0  0.22460201389E+02 -0.16931329213E+02 -0.33543027598E+01  0.96673653565E+02  0.92430586881E+02 0.  0.
         13    1    3    3    0    0  0.66012923845E+01 -0.54989832448E+02 -0.18706843998E+01  0.55416327539E+02  0.10566000000E+00 0.  1.
         22    1    1    0    0    0 -0.22460201389E+02  0.16931329213E+02  0.33543027598E+01  0.28326346435E+02  0.00000000000E+00 0.  1.
</event>
<event>
 5    1  0.1245610E-004  0.9118800E+02  0.7818608E-02  0.1130116E+00
         25   -1    0    0    0    0  0.00000000000E+00  0.00000000000E+00  0.99999998245E-14  0.12500000000E+03  0.12500000000E+03 0.  0.
        -13    1    3    3    0    0  0.11441851624E+02  0.34196461675E+02  0.83576580589E+01  0.37015882698E+02  0.10566000000E+00 0. -1.
         23    2    1    0    0    0 -0.46075256927E+01 -0.21649056716E+02  0.18686509612E+02  0.96032835983E+02  0.91559865639E+02 0.  0.
         13    1    3    3    0    0 -0.16049377316E+02 -0.55845518391E+02  0.10328851553E+02  0.59016953285E+02  0.10566000000E+00 0.  1.
         22    1    1    0    0    0  0.46075256927E+01  0.21649056716E+02 -0.18686509612E+02  0.28967164017E+02  0.00000000000E+00 0.  1.
</event>
<event>
 5    1  0.1245610E-004  0.9118800E+02  0.7818608E-02  0.1130116E+00
         25   -1    0    0    0    0  0.00000000000E+00  0.00000000000E+00  0.99999998245E-14  0.12500000000E+03  0.12500000000E+03 0.  0.
        -13    1    3    3    0    0 -0.20612688173E+02 -0.40252941880E+02 -0.15457969662E+02  0.47792700634E+02  0.10566000000E+00 0. -1.
         23    2    1    0    0    0 -0.23408250480E+02  0.98600014868E+01 -0.38334801204E+01  0.99312232684E+02  0.95932570959E+02 0.  0.
         13    1    3    3    0    0 -0.27955623070E+01  0.50112943367E+02  0.11624489541E+02  0.51519532050E+02  0.10566000000E+00 0.  1.
         22    1    1    0    0    0  0.23408250480E+02 -0.98600014868E+01  0.38334801204E+01  0.25687767316E+02  0.00000000000E+00 0.  1.
</event>
<event>
 5    1  0.1245610E-004  0.9118800E+02  0.7818608E-02  0.1130116E+00
         25   -1    0    0    0    0  0.00000000000E+00  0.00000000000E+00  0.99999998245E-14  0.12500000000E+03  0.12500000000E+03 0.  0.
        -13    1    3    3    0    0 -0.20215299150E+02 -0.51832024896E+02 -0.27903744125E+02  0.62240237988E+02  0.10566000000E+00 0.  1.
         23    2    1    0    0    0 -0.59969910589E+01 -0.26110851181E+02 -0.14414355599E+02  0.94577736795E+02  0.89551293675E+02 0.  0.
         13    1    3    3    0    0  0.14218308091E+02  0.25721173715E+02  0.13489388526E+02  0.32337498807E+02  0.10566000000E+00 0. -1.
         22    1    1    0    0    0  0.59969910589E+01  0.26110851181E+02  0.14414355599E+02  0.30422263205E+02  0.00000000000E+00 0.  1.
</event>
<event>
 5    1  0.1245610E-004  0.9118800E+02  0.7818608E-02  0.1130116E+00
         25   -1    0    0    0    0  0.00000000000E+00  0.00000000000E+00  0.99999998245E-14  0.12500000000E+03  0.12500000000E+03 0.  0.
        -13    1    3    3    0    0  0.30357381182E+02 -0.11493488065E+01  0.15115225757E+02  0.33931884838E+02  0.10566000000E+00 0.  1.
         23    2    1    0    0    0 -0.28336558204E+02  0.98462278786E+01  0.31212955383E+01  0.94839575267E+02  0.89916037594E+02 0.  0.
         13    1    3    3    0    0 -0.58693939386E+02  0.10995576685E+02 -0.11993930219E+02  0.60907690429E+02  0.10566000000E+00 0. -1.
         22    1    1    0    0    0  0.28336558204E+02 -0.98462278786E+01 -0.31212955383E+01  0.30160424733E+02  0.00000000000E+00 0. -1.
</event>
<event>
 5    1  0.1245610E-004  0.9118800E+02  0.7818608E-02  0.1130116E+00
         25   -1    0    0    0    0  0.00000000000E+00  0.00000000000E+00  0.99999998245E-14  0.12500000000E+03  0.12500000000E+03 0.  0.
        -13    1    3    3    0    0 -0.40536515410E+02 -0.16364716343E+02 -0.43921164180E+02  0.61968482712E+02  0.10566000000E+00 0.  1.
         23    2    1    0    0    0 -0.15240774765E+02 -0.11830753008E+02 -0.21915364793E+02  0.95801863995E+02  0.91243991576E+02 0.  0.
         13    1    3    3    0    0  0.25295740645E+02  0.45339633358E+01  0.22005799388E+02  0.33833381283E+02  0.10566000000E+00 0. -1.
         22    1    1    0    0    0  0.15240774765E+02  0.11830753008E+02  0.21915364793E+02  0.29198136005E+02  0.00000000000E+00 0.  1.
</event>
<event>
 5    1  0.1245610E-004  0.9118800E+02  0.7818608E-02  0.1130116E+00
         25   -1    0    0    0    0  0.00000000000E+00  0.00000000000E+00  0.99999998245E-14  0.12500000000E+03  0.12500000000E+03 0.  0.
        -13    1    3    3    0    0 -0.42949095816E+02  0.34908779465E+02 -0.96858379797E+01  0.56187848656E+02  0.10566000000E+00 0. -1.
         23    2    1    0    0    0 -0.26742813869E+02 -0.10650350825E+00 -0.13649748484E+02  0.94974925974E+02  0.90104003759E+02 0.  0.
         13    1    3    3    0    0  0.16206281948E+02 -0.35015282974E+02 -0.39639105045E+01  0.38787077317E+02  0.10566000000E+00 0.  1.
         22    1    1    0    0    0  0.26742813869E+02  0.10650350825E+00  0.13649748484E+02  0.30025074026E+02  0.00000000000E+00 0. -1.
</event>
<event>
 5    1  0.1245610E-004  0.9118800E+02  0.7818608E-02  0.1130116E+00
         25   -1    0    0    0    0  0.00000000000E+00  0.00000000000E+00  0.99999998245E-14  0.12500000000E+03  0.12500000000E+03 0.  0.
        -13    1    3    3    0    0  0.32897996159E+02  0.38432069428E+02 -0.34942336416E+02  0.61483982874E+02  0.10566000000E+00 0. -1.
         23    2    1    0    0    0  0.87009450435E+01  0.22317778878E+02 -0.15037881775E+02  0.96717008875E+02  0.92489200551E+02 0.  0.
         13    1    3    3    0    0 -0.24197051115E+02 -0.16114290550E+02  0.19904454641E+02  0.35233026001E+02  0.10566000000E+00 0.  1.
         22    1    1    0    0    0 -0.87009450435E+01 -0.22317778878E+02  0.15037881775E+02  0.28282991125E+02  0.00000000000E+00 0. -1.
</event>
<event>
 5    1  0.1245610E-004  0.9118800E+02  0.7818608E-02  0.1130116E+00
         25   -1    0    0    0    0  0.00000000000E+00  0.00000000000E+00  0.99999998245E-14  0.12500000000E+03  0.12500000000E+03 0.  0.
        -13    1    3    3    0    0 -0.41858400566E+02 -0.42189662991E+01 -0.14966008335E+02  0.44653308322E+02  0.10566000000E+00 0. -1.
         23    2    1    0    0    0  0.83963195119E+01 -0.16031354166E+02 -0.21732396949E+02  0.96719272023E+02  0.92492259167E+02 0.  0.
         13    1    3    3    0    0  0.50254720078E+02 -0.11812387867E+02 -0.67663886143E+01  0.52065963701E+02  0.10566000000E+00 0.  1.
         22    1    1    0    0    0 -0.83963195119E+01  0.16031354166E+02  0.21732396949E+02  0.28280727977E+02  0.00000000000E+00 0. -1.
</event>
<event>
 5    1  0.1245610E-004  0.9118800E+02  0.7818608E-02  0.1130116E+00
         25   -1    0    0    0    0  0.00000000000E+00  0.00000000000E+00  0.99999998245E-14  0.12500000000E+03  0.12500000000E+03 0.  0.
        -13    1    3    3    0    0  0.36388135335E+02 -0.17899339529E+02 -0.46054237237E+01  0.40813035178E+02  0.10566000000E+00 0. -1.
         23    2    1    0    0    0  0.36985012328E+02  0.20907711529E+02  0.82942527680E+01  0.81712378590E+02  0.69304362400E+02 0.  0.
         13    1    3    3    0    0  0.59687699325E+00  0.38807051058E+02  0.12899676492E+02  0.40899343413E+02  0.10566000000E+00 0.  1.
         22    1    1    0    0    0 -0.36985012328E+02 -0.20907711529E+02 -0.82942527680E+01  0.43287621410E+02  0.00000000000E+00 0. -1.
</event>
<event>
 5    1  0.1245610E-004  0.9118800E+02  0.7818608E-02  0.1130116E+00
         25   -1    0    0    0    0  0.00000000000E+00  0.00000000000E+00  0.99999998245E-14  0.12500000000E+03  0.12500000000E+03 0.  0.
        -13    1    3    3    0    0  0.10557762597E+02  0.10621898336E+02 -0.33431080611E+02  0.36632490908E+02  0.10566000000E+00 0. -1.
         23    2    1    0    0    0 -0.99864011867E+01 -0.11716050509E+02  0.21005384910E+02  0.98957338013E+02  0.95469023789E+02 0.  0.
         13    1    3    3    0    0 -0.20544163784E+02 -0.22337948845E+02  0.54436465521E+02  0.62324847104E+02  0.10566000000E+00 0.  1.
         22    1    1    0    0    0  0.99864011867E+01  0.11716050509E+02 -0.21005384910E+02  0.26042661987E+02  0.00000000000E+00 0.  1.
</event>
<event>
 5    1  0.1245610E-004  0.9118800E+02  0.7818608E-02  0.1130116E+00
         25   -1    0    0    0    0  0.00000000000E+00  0.00000000000E+00  0.99999998245E-14  0.12500000000E+03  0.12500000000E+03 0.  0.
        -13    1    3    3    0    0 -0.23554481440E+02 -0.45014734208E+01 -0.22898768404E+02  0.33157828899E+02  0.10566000000E+00 0.  1.
         23    2    1    0    0    0  0.16673677329E+02  0.79575440936E+00  0.24375042267E+02  0.95457024079E+02  0.90770347690E+02 0.  0.
         13    1    3    3    0    0  0.40228158770E+02  0.52972278302E+01  0.47273810671E+02  0.62299195180E+02  0.10566000000E+00 0. -1.
         22    1    1    0    0    0 -0.16673677329E+02 -0.79575440936E+00 -0.24375042267E+02  0.29542975921E+02  0.00000000000E+00 0. -1.
</event>
<event>
 5    1  0.1245610E-004  0.9118800E+02  0.7818608E-02  0.1130116E+00
         25   -1    0    0    0    0  0.00000000000E+00  0.00000000000E+00  0.99999998245E-14  0.12500000000E+03  0.12500000000E+03 0.  0.
        -13    1    3    3    0    0  0.13682228851E+02  0.31455281996E+01 -0.34388145926E+02  0.37143686923E+02  0.10566000000E+00 0. -1.
         23    2    1    0    0    0 -0.18161461838E+01  0.21489823958E+02  0.19363600660E+02  0.96016212269E+02  0.91537167682E+02 0.  0.
         13    1    3    3    0    0 -0.15498375035E+02  0.18344295759E+02  0.53751746586E+02  0.58872525346E+02  0.10566000000E+00 0.  1.
         22    1    1    0    0    0  0.18161461838E+01 -0.21489823958E+02 -0.19363600660E+02  0.28983787731E+02  0.00000000000E+00 0.  1.
</event>
<event>
 5    1  0.1245610E-004  0.9118800E+02  0.7818608E-02  0.1130116E+00
         25   -1    0    0    0    0  0.00000000000E+00  0.00000000000E+00  0.99999998245E-14  0.12500000000E+03  0.12500000000E+03 0.  0.
        -13    1    3    3    0    0  0.49006793223E+02  0.17169310252E+01 -0.94217441016E+01  0.49933896905E+02  0.10566000000E+00 0.  1.
         23    2    1    0    0    0  0.88163086301E+01 -0.24270875802E+02 -0.85371733828E+01  0.97802830305E+02  0.93945237113E+02 0.  0.
         13    1    3    3    0    0 -0.40190484593E+02 -0.25987806827E+02  0.88457071882E+00  0.47868933400E+02  0.10566000000E+00 0. -1.
         22    1    1    0    0    0 -0.88163086301E+01  0.24270875802E+02  0.85371733828E+01  0.27197169695E+02  0.00000000000E+00 0. -1.
</event>
<event>
 5    1  0.1245610E-004  0.9118800E+02  0.7818608E-02  0.1130116E+00
         25   -1    0    0    0    0  0.00000000000E+00  0.00000000000E+00  0.99999998245E-14  0.12500000000E+03  0.12500000000E+03 0.  0.
        -13    1    3    3    0    0 -0.51672322341E+02  0.43460397707E+00 -0.33545488240E+02  0.61607862502E+02  0.10566000000E+00 0.  1.
         23    2    1    0    0    0 -0.19868605865E+02 -0.37367267064E+01 -0.20417836297E+02  0.96266523626E+02  0.91878348409E+02 0.  0.
         13    1    3    3    0    0  0.31803716476E+02 -0.41713306835E+01  0.13127651943E+02  0.34658661124E+02  0.10566000000E+00 0. -1.
         22    1    1    0    0    0  0.19868605865E+02  0.37367267064E+01  0.20417836297E+02  0.28733476374E+02  0.00000000000E+00 0.  1.
</event>
<event>
 5    1  0.1245610E-004  0.9118800E+02  0.7818608E-02  0.1130116E+00
         25   -1    0    0    0    0  0.00000000000E+00  0.00000000000E+00  0.99999998245E-14  0.12500000000E+03  0.12500000000E+03 0.  0.
        -13    1    3    3    0    0 -0.25640950321E+02 -0.38083440585E+02  0.21392186096E+02  0.50650207997E+02  0.10566000000E+00 0.  1.
         23    2    1    0    0    0  0.14584815275E+02 -0.17186155916E+02  0.18085471550E+02  0.96100777295E+02  0.91652574016E+02 0.  0.
         13    1    3    3    0    0  0.40225765596E+02  0.20897284669E+02 -0.33067145456E+01  0.45450569298E+02  0.10566000000E+00 0. -1.
         22    1    1    0    0    0 -0.14584815275E+02  0.17186155916E+02 -0.18085471550E+02  0.28899222705E+02  0.00000000000E+00 0.  1.
</event>
<event>
 5    1  0.1245610E-004  0.9118800E+02  0.7818608E-02  0.1130116E+00
         25   -1    0    0    0    0  0.00000000000E+00  0.00000000000E+00  0.99999998245E-14  0.12500000000E+03  0.12500000000E+03 0.  0.
        -13    1    3    3    0    0 -0.59650670559E+02 -0.11825271910E+02 -0.60523496581E+01  0.61112041811E+02  0.10566000000E+00 0. -1.
         23    2    1    0    0    0 -0.29028939980E+02  0.36914693910E+01 -0.22478063434E+01  0.95651082882E+02  0.91037194161E+02 0.  0.
         13    1    3    3    0    0  0.30621730579E+02  0.15516741301E+02  0.38045433147E+01  0.34539041071E+02  0.10566000000E+00 0.  1.
         22    1    1    0    0    0  0.29028939980E+02 -0.36914693910E+01  0.22478063434E+01  0.29348917118E+02  0.00000000000E+00 0. -1.
</event>
<event>
 5    1  0.1245610E-004  0.9118800E+02  0.7818608E-02  0.1130116E+00
         25   -1    0    0    0    0  0.00000000000E+00  0.00000000000E+00  0.99999998245E-14  0.12500000000E+03  0.12500000000E+03 0.  0.
        -13    1    3    3    0    0 -0.50785607334E+02  0.22657232251E+02  0.23150951429E+02  0.60237079957E+02  0.10566000000E+00 0. -1.
         23    2    1    0    0    0 -0.26185944681E+02 -0.10244887360E+01  0.79456885251E+01  0.97615930869E+02  0.93696225737E+02 0.  0.
         13    1    3    3    0    0  0.24599662653E+02 -0.23681720987E+02 -0.15205262904E+02  0.37378850913E+02  0.10566000000E+00 0.  1.
         22    1    1    0    0    0  0.26185944681E+02  0.10244887360E+01 -0.79456885251E+01  0.27384069131E+02  0.00000000000E+00 0. -1.
</event>
<event>
 5    1  0.1245610E-004  0.9118800E+02  0.7818608E-02  0.1130116E+00
         25   -1    0    0    0    0  0.00000000000E+00  0.00000000000E+00  0.99999998245E-14  0.12500000000E+03  0.12500000000E+03 0.  0.
        -13    1    3    3    0    0  0.17166992081E+02 -0.12886317267E+01 -0.29196692278E+02  0.33894309151E+02  0.10566000000E+00 0.  1.
         23    2    1    0    0    0 -0.24956118041E+02 -0.54978057954E+01  0.15222494041E+02  0.95255117734E+02  0.90491874958E+02 0.  0.
         13    1    3    3    0    0 -0.42123110122E+02 -0.42091740687E+01  0.44419186318E+02  0.61360808582E+02  0.10566000000E+00 0. -1.
         22    1    1    0    0    0  0.24956118041E+02  0.54978057954E+01 -0.15222494041E+02  0.29744882266E+02  0.00000000000E+00 0. -1.
</event>
<event>
 5    1  0.1245610E-004  0.9118800E+02  0.7818608E-02  0.1130116E+00
         25   -1    0    0    0    0  0.00000000000E+00  0.00000000000E+00  0.99999998245E-14  0.12500000000E+03  0.12500000000E+03 0.  0.
        -13    1    3    3    0    0 -0.14725135921E+02  0.67434044658E+01 -0.45106928033E+02  0.47926498436E+02  0.10566000000E+00 0. -1.
         23    2    1    0    0    0  0.17313332015E+02 -0.15620545343E+02 -0.14716918889E+02  0.97425725688E+02  0.93442128732E+02 0.  0.
         13    1    3    3    0    0  0.32038467936E+02 -0.22363949809E+02  0.30390009144E+02  0.49499227252E+02  0.10566000000E+00 0.  1.
         22    1    1    0    0    0 -0.17313332015E+02  0.15620545343E+02  0.14716918889E+02  0.27574274312E+02  0.00000000000E+00 0. -1.
</event>
<event>
 5    1  0.1245610E-004  0.9118800E+02  0.7818608E-02  0.1130116E+00
         25   -1    0    0    0    0  0.00000000000E+00  0.00000000000E+00  0.99999998245E-14  0.12500000000E+03  0.12500000000E+03 0.  0.
        -13    1    3    3    0    0  0.17144844938E+02  0.50279024057E+02 -0.28407150886E+02  0.60240379759E+02  0.10566000000E+00 0.  1.
         23    2    1    0    0    0  0.16224565168E+02  0.25910599417E+02 -0.50371315582E+01  0.94016643639E+02  0.88764637721E+02 0.  0.
         13    1    3    3    0    0 -0.92027976946E+00 -0.24368424639E+02  0.23370019328E+02  0.33776263880E+02  0.10566000000E+00 0. -1.
         22    1    1    0    0    0 -0.16224565168E+02 -0.25910599417E+02  0.50371315582E+01  0.30983356361E+02  0.00000000000E+00 0.  1.
</event>
<event>
 5    1  0.1245610E-004  0.9118800E+02  0.7818608E-02  0.1130116E+00
         25   -1    0    0    0    0  0.00000000000E+00  0.00000000000E+00  0.99999998245E-14  0.12500000000E+03  0.12500000000E+03 0.  0.
        -13    1    3    3    0    0 -0.37933678582E+01  0.28288043685E+02 -0.27159055510E+02  0.39398331379E+02  0.10566000000E+00 0.  1.
         23    2    1    0    0    0 -0.20759239307E+02 -0.20213882040E+02 -0.40353941311E+01  0.95745402933E+02  0.91166609750E+02 0.  0.
         13    1    3    3    0    0 -0.16965871449E+02 -0.48501925726E+02  0.23123661379E+02  0.56347071554E+02  0.10566000000E+00 0. -1.
         22    1    1    0    0    0  0.20759239307E+02  0.20213882040E+02  0.40353941311E+01  0.29254597067E+02  0.00000000000E+00 0. -1.
</event>
<event>
 5    1  0.1245610E-004  0.9118800E+02  0.7818608E-02  0.1130116E+00
         25   -1    0    0    0    0  0.00000000000E+00  0.00000000000E+00  0.99999998245E-14  0.12500000000E+03  0.12500000000E+03 0.  0.
        -13    1    3    3    0    0 -0.34035980279E+02  0.19765014200E+00 -0.11045093766E+02  0.35783966793E+02  0.10566000000E+00 0.  1.
         23    2    1    0    0    0  0.23246716515E+02 -0.15947806988E+02 -0.92655292854E+01  0.95325222673E+02  0.90588661919E+02 0.  0.
         13    1    3    3    0    0  0.57282696794E+02 -0.16145457130E+02  0.17795644808E+01  0.59541255880E+02  0.10566000000E+00 0. -1.
         22    1    1    0    0    0 -0.23246716515E+02  0.15947806988E+02  0.92655292854E+01  0.29674777327E+02  0.00000000000E+00 0. -1.
</event>
<event>
 5    1  0.1245610E-004  0.9118800E+02  0.7818608E-02  0.1130116E+00
         25   -1    0    0    0    0  0.00000000000E+00  0.00000000000E+00  0.99999998245E-14  0.12500000000E+03  0.12500000000E+03 0.  0.
        -13    1    3    3    0    0  0.17941266706E+02 -0.31482822176E+02 -0.17341953246E+02  0.40172274638E+02  0.10566000000E+00 0. -1.
         23    2    1    0    0    0  0.18347079829E+02  0.21397687570E+02  0.26096693549E+01  0.96692991226E+02  0.92456734782E+02 0.  0.
         13    1    3    3    0    0  0.40581312344E+00  0.52880509745E+02  0.19951622601E+02  0.56520716588E+02  0.10566000000E+00 0.  1.
         22    1    1    0    0    0 -0.18347079829E+02 -0.21397687570E+02 -0.26096693549E+01  0.28307008774E+02  0.00000000000E+00 0.  1.
</event>
<event>
 5    1  0.1245610E-004  0.9118800E+02  0.7818608E-02  0.1130116E+00
         25   -1    0    0    0    0  0.00000000000E+00  0.00000000000E+00  0.99999998245E-14  0.12500000000E+03  0.12500000000E+03 0.  0.
        -13    1    3    3    0    0 -0.11646998382E+01  0.37962361641E+02  0.19475272264E+02  0.42682488457E+02  0.10566000000E+00 0.  1.
         23    2    1    0    0    0  0.24906389360E+02 -0.76129702905E+01  0.13888410559E+02  0.95484351685E+02  0.90807972784E+02 0.  0.
         13    1    3    3    0    0  0.26071089198E+02 -0.45575331931E+02 -0.55868617050E+01  0.52801863228E+02  0.10566000000E+00 0. -1.
         22    1    1    0    0    0 -0.24906389360E+02  0.76129702905E+01 -0.13888410559E+02  0.29515648315E+02  0.00000000000E+00 0. -1.
</event>
<event>
 5    1  0.1245610E-004  0.9118800E+02  0.7818608E-02  0.1130116E+00
         25   -1    0    0    0    0  0.00000000000E+00  0.00000000000E+00  0.99999998245E-14  0.12500000000E+03  0.12500000000E+03 0.  0.
        -13    1    3    3    0    0  0.14383495230E+02  0.59212341218E+02 -0.80680833394E+01  0.61466181111E+02  0.10566000000E+00 0. -1.
         23    2    1    0    0    0  0.14124306863E+02  0.35265331440E+02  0.79699381340E+00  0.87002962681E+02  0.78267111038E+02 0.  0.
         13    1    3    3    0    0 -0.25918836770E+00 -0.23947009779E+02  0.88650771528E+01  0.25536781569E+02  0.10566000000E+00 0.  1.
         22    1    1    0    0    0 -0.14124306863E+02 -0.35265331440E+02 -0.79699381340E+00  0.37997037319E+02  0.00000000000E+00 0. -1.
</event>
<event>
 5    1  0.1245610E-004  0.9118800E+02  0.7818608E-02  0.1130116E+00
         25   -1    0    0    0    0  0.00000000000E+00  0.00000000000E+00  0.99999998245E-14  0.12500000000E+03  0.12500000000E+03 0.  0.
        -13    1    3    3    0    0 -0.19342837962E+02 -0.36688887160E+02 -0.40683468879E+01  0.41674721738E+02  0.10566000000E+00 0. -1.
         23    2    1    0    0    0 -0.21453401734E+02  0.17715270515E+02 -0.73643292333E+01  0.96219579565E+02  0.91814459053E+02 0.  0.
         13    1    3    3    0    0 -0.21105637721E+01  0.54404157675E+02 -0.32959823455E+01  0.54544857827E+02  0.10566000000E+00 0.  1.
         22    1    1    0    0    0  0.21453401734E+02 -0.17715270515E+02  0.73643292333E+01  0.28780420435E+02  0.00000000000E+00 0.  1.
</event>
<event>
 5    1  0.1245610E-004  0.9118800E+02  0.7818608E-02  0.1130116E+00
         25   -1    0    0    0    0  0.00000000000E+00  0.00000000000E+00  0.99999998245E-14  0.12500000000E+03  0.12500000000E+03 0.  0.
        -13    1    3    3    0    0  0.11656792930E+01  0.21691535658E+02 -0.44653962127E+02  0.49657517307E+02  0.10566000000E+00 0.  1.
         23    2    1    0    0    0 -0.13675756379E+02 -0.14693620682E+02 -0.22805467853E+02  0.94618785981E+02  0.89608573782E+02 0.  0.
         13    1    3    3    0    0 -0.14841435672E+02 -0.36385156340E+02  0.21848494274E+02  0.44961268674E+02  0.10566000000E+00 0. -1.
         22    1    1    0    0    0  0.13675756379E+02  0.14693620682E+02  0.22805467853E+02  0.30381214019E+02  0.00000000000E+00 0. -1.
</event>
<event>
 5    1  0.1245610E-004  0.9118800E+02  0.7818608E-02  0.1130116E+00
         25   -1    0    0    0    0  0.00000000000E+00  0.00000000000E+00  0.99999998245E-14  0.12500000000E+03  0.12500000000E+03 0.  0.
        -13    1    3    3    0    0 -0.22236300543E+02  0.28205194301E+02  0.29120112279E+02  0.46238275817E+02  0.10566000000E+00 0. -1.
         23    2    1    0    0    0  0.21042342182E+02  0.59725184479E+01  0.19201193949E+02  0.95894382154E+02  0.91370649219E+02 0.  0.
         13    1    3    3    0    0  0.43278642725E+02 -0.22232675853E+02 -0.99189183308E+01  0.49656106337E+02  0.10566000000E+00 0.  1.
         22    1    1    0    0    0 -0.21042342182E+02 -0.59725184479E+01 -0.19201193949E+02  0.29105617846E+02  0.00000000000E+00 0. -1.
</event>
<event>
 5    1  0.1245610E-004  0.9118800E+02  0.7818608E-02  0.1130116E+00
         25   -1    0    0    0    0  0.00000000000E+00  0.00000000000E+00  0.99999998245E-14  0.12500000000E+03  0.12500000000E+03 0.  0.
        -13    1    3    3    0    0 -0.50971654292E+02 -0.30192601247E+02  0.15490823214E+02  0.61234626472E+02  0.10566000000E+00 0.  1.
         23    2    1    0    0    0 -0.26451504021E+02 -0.54706165908E+01  0.76479092651E+01  0.96926877142E+02  0.92772405841E+02 0.  0.
         13    1    3    3    0    0  0.24520150271E+02  0.24721984656E+02 -0.78429139489E+01  0.35692250670E+02  0.10566000000E+00 0. -1.
         22    1    1    0    0    0  0.26451504021E+02  0.54706165908E+01 -0.76479092651E+01  0.28073122858E+02  0.00000000000E+00 0.  1.
</event>
<event>
 5    1  0.1245610E-004  0.9118800E+02  0.7818608E-02  0.1130116E+00
         25   -1    0    0    0    0  0.00000000000E+00  0.00000000000E+00  0.99999998245E-14  0.12500000000E+03  0.12500000000E+03 0.  0.
        -13    1    3    3    0    0 -0.10767620587E+01  0.33282649707E+02 -0.25481173993E+01  0.33397578570E+02  0.10566000000E+00 0. -1.
         23    2    1    0    0    0 -0.56341645060E+01 -0.28212429548E+02 -0.75271937794E+01  0.95262084187E+02  0.90501497484E+02 0.  0.
         13    1    3    3    0    0 -0.45574024473E+01 -0.61495079255E+02 -0.49790763801E+01  0.61864505617E+02  0.10566000000E+00 0.  1.
         22    1    1    0    0    0  0.56341645060E+01  0.28212429548E+02  0.75271937794E+01  0.29737915813E+02  0.00000000000E+00 0.  1.
</event>
<event>
 5    1  0.1245610E-004  0.9118800E+02  0.7818608E-02  0.1130116E+00
         25   -1    0    0    0    0  0.00000000000E+00  0.00000000000E+00  0.99999998245E-14  0.12500000000E+03  0.12500000000E+03 0.  0.
        -13    1    3    3    0    0 -0.12600914319E+02  0.53892158285E+02 -0.44118748218E+01  0.55521379393E+02  0.10566000000E+00 0.  1.
         23    2    1    0    0    0 -0.33586644105E+01  0.21797231700E+02  0.18656565246E+02  0.96112851245E+02  0.91669039546E+02 0.  0.
         13    1    3    3    0    0  0.92422499084E+01 -0.32094926585E+02  0.23068440068E+02  0.40591471852E+02  0.10566000000E+00 0. -1.
         22    1    1    0    0    0  0.33586644105E+01 -0.21797231700E+02 -0.18656565246E+02  0.28887148755E+02  0.00000000000E+00 0.  1.
</event>
<event>
 5    1  0.1245610E-004  0.9118800E+02  0.7818608E-02  0.1130116E+00
         25   -1    0    0    0    0  0.00000000000E+00  0.00000000000E+00  0.99999998245E-14  0.12500000000E+03  0.12500000000E+03 0.  0.
        -13    1    3    3    0    0  0.41085162691E+02 -0.67300247813E+01 -0.10695650966E+02  0.42984787315E+02  0.10566000000E+00 0. -1.
         23    2    1    0    0    0  0.69092309499E+00  0.23139207956E+02 -0.20391585649E+02  0.94150087766E+02  0.88952357707E+02 0.  0.
         13    1    3    3    0    0 -0.40394239596E+02  0.29869232738E+02 -0.96959346825E+01  0.51165300451E+02  0.10566000000E+00 0.  1.
         22    1    1    0    0    0 -0.69092309499E+00 -0.23139207956E+02  0.20391585649E+02  0.30849912234E+02  0.00000000000E+00 0.  1.
</event>
<event>
 5    1  0.1245610E-004  0.9118800E+02  0.7818608E-02  0.1130116E+00
         25   -1    0    0    0    0  0.00000000000E+00  0.00000000000E+00  0.99999998245E-14  0.12500000000E+03  0.12500000000E+03 0.  0.
        -13    1    3    3    0    0  0.77580751984E+01  0.55956936862E+02 -0.20310826880E+01  0.56528780056E+02  0.10566000000E+00 0. -1.
         23    2    1    0    0    0 -0.14665219378E+02  0.27383814430E+02 -0.69125255107E+01  0.93176660120E+02  0.87573769076E+02 0.  0.
         13    1    3    3    0    0 -0.22423294576E+02 -0.28573122431E+02 -0.48814428227E+01  0.36647880064E+02  0.10566000000E+00 0.  1.
         22    1    1    0    0    0  0.14665219378E+02 -0.27383814430E+02  0.69125255107E+01  0.31823339880E+02  0.00000000000E+00 0. -1.
</event>
<event>
 5    1  0.1245610E-004  0.9118800E+02  0.7818608E-02  0.1130116E+00
         25   -1    0    0    0    0  0.00000000000E+00  0.00000000000E+00  0.99999998245E-14  0.12500000000E+03  0.12500000000E+03 0.  0.
        -13    1    3    3    0    0 -0.12269603972E+02 -0.31497828595E+02  0.81266556465E+01  0.34766508076E+02  0.10566000000E+00 0.  1.
         23    2    1    0    0    0  0.15822647145E+02  0.18882733348E+02 -0.14135770473E+02  0.96596940513E+02  0.92326784457E+02 0.  0.
         13    1    3    3    0    0  0.28092251117E+02  0.50380561943E+02 -0.22262426120E+02  0.61830432436E+02  0.10566000000E+00 0. -1.
         22    1    1    0    0    0 -0.15822647145E+02 -0.18882733348E+02  0.14135770473E+02  0.28403059487E+02  0.00000000000E+00 0. -1.
</event>
<event>
 5    1  0.1245610E-004  0.9118800E+02  0.7818608E-02  0.1130116E+00
         25   -1    0    0    0    0  0.00000000000E+00  0.00000000000E+00  0.99999998245E-14  0.12500000000E+03  0.12500000000E+03 0.  0.
        -13    1    3    3    0    0 -0.49373017321E+02 -0.16270180240E+01 -0.88388111885E+01  0.50184437571E+02  0.10566000000E+00 0.  1.
         23    2    1    0    0    0 -0.29621564144E+02  0.25276547167E+02 -0.13287280059E+02  0.83855222563E+02  0.73067131055E+02 0.  0.
         13    1    3    3    0    0  0.19751453178E+02  0.26903565191E+02 -0.44484688702E+01  0.33670784992E+02  0.10566000000E+00 0. -1.
         22    1    1    0    0    0  0.29621564144E+02 -0.25276547167E+02  0.13287280059E+02  0.41144777437E+02  0.00000000000E+00 0.  1.
</event>
<event>
 5    1  0.1245610E-004  0.9118800E+02  0.7818608E-02  0.1130116E+00
         25   -1    0    0    0    0  0.00000000000E+00  0.00000000000E+00  0.99999998245E-14  0.12500000000E+03  0.12500000000E+03 0.  0.
        -13    1    3    3    0    0  0.84824243460E+01  0.22397079303E+02 -0.38506677174E+02  0.45347062034E+02  0.10566000000E+00 0. -1.
         23    2    1    0    0    0  0.13161648907E+02 -0.21654625397E+02 -0.15932505889E+02  0.95066798585E+02  0.90231367308E+02 0.  0.
         13    1    3    3    0    0  0.46792245608E+01 -0.44051704700E+02  0.22574171285E+02  0.49719736551E+02  0.10566000000E+00 0.  1.
         22    1    1    0    0    0 -0.13161648907E+02  0.21654625397E+02  0.15932505889E+02  0.29933201415E+02  0.00000000000E+00 0.  1.
</event>
<event>
 5    1  0.1245610E-004  0.9118800E+02  0.7818608E-02  0.1130116E+00
         25   -1    0    0    0    0  0.00000000000E+00  0.00000000000E+00  0.99999998245E-14  0.12500000000E+03  0.12500000000E+03 0.  0.
        -13    1    3    3    0    0 -0.33484344793E+02  0.75700243634E+01  0.17613378261E+02  0.38584308635E+02  0.10566000000E+00 0.  1.
         23    2    1    0    0    0  0.15182843702E+02  0.25890195542E+02 -0.36504564111E+01  0.94765139325E+02  0.89812498190E+02 0.  0.
         13    1    3    3    0    0  0.48667188494E+02  0.18320171178E+02 -0.21263834672E+02  0.56180830689E+02  0.10566000000E+00 0. -1.
         22    1    1    0    0    0 -0.15182843702E+02 -0.25890195542E+02  0.36504564111E+01  0.30234860675E+02  0.00000000000E+00 0. -1.
</event>
<event>
 5    1  0.1245610E-004  0.9118800E+02  0.7818608E-02  0.1130116E+00
         25   -1    0    0    0    0  0.00000000000E+00  0.00000000000E+00  0.99999998245E-14  0.12500000000E+03  0.12500000000E+03 0.  0.
        -13    1    3    3    0    0  0.49531954359E+02  0.26670341996E+02 -0.28142594521E+01  0.56326307043E+02  0.10566000000E+00 0. -1.
         23    2    1    0    0    0  0.12742137058E+02  0.26605079751E+02 -0.10078798976E+02  0.93826701904E+02  0.88496754043E+02 0.  0.
         13    1    3    3    0    0 -0.36789817301E+02 -0.65262244469E-01 -0.72645395239E+01  0.37500394861E+02  0.10566000000E+00 0.  1.
         22    1    1    0    0    0 -0.12742137058E+02 -0.26605079751E+02  0.10078798976E+02  0.31173298096E+02  0.00000000000E+00 0. -1.
</event>
<event>
 5    1  0.1245610E-004  0.9118800E+02  0.7818608E-02  0.1130116E+00
         25   -1    0    0    0    0  0.00000000000E+00  0.00000000000E+00  0.99999998245E-14  0.12500000000E+03  0.12500000000E+03 0.  0.
        -13    1    3    3    0    0 -0.61970804510E+01  0.41778657475E+02  0.34315025240E+02  0.54418674623E+02  0.10566000000E+00 0. -1.
         23    2    1    0    0    0 -0.65260053760E+01  0.88295795058E+00  0.28526227922E+02  0.95723489956E+02  0.91136559563E+02 0.  0.
         13    1    3    3    0    0 -0.32892492497E+00 -0.40895699525E+02 -0.57887973175E+01  0.41304815332E+02  0.10566000000E+00 0.  1.
         22    1    1    0    0    0  0.65260053760E+01 -0.88295795058E+00 -0.28526227922E+02  0.29276510044E+02  0.00000000000E+00 0. -1.
</event>
