<event>
 5    1  0.1047411E-009  0.9118800E+02  0.7815553E-02  0.1125453E+00
         25   -1    0    0    0    0  0.00000000000E+00  0.00000000000E+00  0.99999998245E-14  0.12509000000E+03  0.12509000000E+03 0.  0.
        -11    1    3    3    0    0 -0.43861866830E+02  0.23236178091E+02  0.25167023079E+02  0.55652155259E+02  0.51100000000E-03 0.  1.
         23    2    1    0    0    0 -0.66997069425E+01  0.21921097874E+02  0.22559143873E+02  0.92928912062E+02  0.87186278276E+02 0.  0.
         11    1    3    3    0    0  0.37162159888E+02 -0.13150802167E+01 -0.26078792061E+01  0.37276756802E+02  0.51100000000E-03 0. -1.
         22    1    1    0    0    0  0.66997069425E+01 -0.21921097874E+02 -0.22559143873E+02  0.32161087938E+02  0.00000000000E+00 0.  1.
</event>
<event>
 5    1  0.1047411E-009  0.9118800E+02  0.7815553E-02  0.1125453E+00
         25   -1    0    0    0    0  0.00000000000E+00  0.00000000000E+00  0.99999998245E-14  0.12509000000E+03  0.12509000000E+03 0.  0.
        -11    1    3    3    0    0 -0.38424627919E+02  0.13186948129E+02 -0.44622818134E+02  0.60345203041E+02  0.51100000000E-03 0. -1.
         23    2    1    0    0    0 -0.93131350193E+01  0.43570483425E+01 -0.28536566495E+02  0.94757608379E+02  0.89771656798E+02 0.  0.
         11    1    3    3    0    0  0.29111492899E+02 -0.88298997861E+01  0.16086251639E+02  0.34412405338E+02  0.51100000000E-03 0.  1.
         22    1    1    0    0    0  0.93131350193E+01 -0.43570483425E+01  0.28536566495E+02  0.30332391621E+02  0.00000000000E+00 0. -1.
</event>
<event>
 5    1  0.1047411E-009  0.9118800E+02  0.7815553E-02  0.1125453E+00
         25   -1    0    0    0    0  0.00000000000E+00  0.00000000000E+00  0.99999998245E-14  0.12509000000E+03  0.12509000000E+03 0.  0.
        -11    1    3    3    0    0  0.16872699786E+01 -0.33532483804E+02 -0.41817137685E+02  0.53627859872E+02  0.51100000000E-03 0.  1.
         23    2    1    0    0    0 -0.14363875942E+02  0.16226259858E+00 -0.28354711986E+02  0.93304202023E+02  0.87723070866E+02 0.  0.
         11    1    3    3    0    0 -0.16051145920E+02  0.33694746403E+02  0.13462425699E+02  0.39676342151E+02  0.51100000000E-03 0. -1.
         22    1    1    0    0    0  0.14363875942E+02 -0.16226259858E+00  0.28354711986E+02  0.31785797977E+02  0.00000000000E+00 0.  1.
</event>
<event>
 5    1  0.1047411E-009  0.9118800E+02  0.7815553E-02  0.1125453E+00
         25   -1    0    0    0    0  0.00000000000E+00  0.00000000000E+00  0.99999998245E-14  0.12509000000E+03  0.12509000000E+03 0.  0.
        -11    1    3    3    0    0 -0.22315598631E+02 -0.42532809092E+02  0.31294904369E+01  0.48133351246E+02  0.51100000000E-03 0.  1.
         23    2    1    0    0    0  0.17307064823E+02 -0.16025400282E+02  0.14840694839E+02  0.97222560751E+02  0.93143073541E+02 0.  0.
         11    1    3    3    0    0  0.39622663454E+02  0.26507408810E+02  0.11711204402E+02  0.49089209505E+02  0.51100000000E-03 0. -1.
         22    1    1    0    0    0 -0.17307064823E+02  0.16025400282E+02 -0.14840694839E+02  0.27867439249E+02  0.00000000000E+00 0.  1.
</event>
<event>
 4    1  0.1047411E-009  0.9118800E+02  0.7815553E-02  0.1125453E+00
         25   -1    0    0    0    0  0.00000000000E+00  0.00000000000E+00  0.99999998245E-14  0.12509000000E+03  0.12509000000E+03 0.  0.
        -11    1    1    0    0    0 -0.31925305647E+02 -0.13104490566E+02 -0.37137440398E+00  0.34512182383E+02  0.51100000000E-03 0. -1.
         11    1    1    0    0    0 -0.37378298594E+01 -0.32265827062E+02  0.41480579507E+01  0.32745402014E+02  0.51100000000E-03 0.  1.
         22    1    1    0    0    0  0.35663135506E+02  0.45370317628E+02 -0.37766835468E+01  0.57832415603E+02  0.00000000000E+00 0. -1.
</event>
<event>
 5    1  0.1047411E-009  0.9118800E+02  0.7815553E-02  0.1125453E+00
         25   -1    0    0    0    0  0.00000000000E+00  0.00000000000E+00  0.99999998245E-14  0.12509000000E+03  0.12509000000E+03 0.  0.
        -11    1    3    3    0    0  0.95135132773E+01  0.18185057052E+02 -0.43348749586E+02  0.47961623469E+02  0.51100000000E-03 0.  1.
         23    2    1    0    0    0 -0.19853896369E+02 -0.10676692821E+02 -0.17146133342E+02  0.96767590865E+02  0.92530037191E+02 0.  0.
         11    1    3    3    0    0 -0.29367409647E+02 -0.28861749873E+02  0.26202616245E+02  0.48805967396E+02  0.51100000000E-03 0. -1.
         22    1    1    0    0    0  0.19853896369E+02  0.10676692821E+02  0.17146133342E+02  0.28322409135E+02  0.00000000000E+00 0. -1.
</event>
<event>
 5    1  0.1047411E-009  0.9118800E+02  0.7815553E-02  0.1125453E+00
         25   -1    0    0    0    0  0.00000000000E+00  0.00000000000E+00  0.99999998245E-14  0.12509000000E+03  0.12509000000E+03 0.  0.
        -11    1    3    3    0    0  0.23522165872E+02 -0.19324171644E+02 -0.19375379796E+02  0.36084917064E+02  0.51100000000E-03 0. -1.
         23    2    1    0    0    0 -0.26369466314E+02  0.10873398163E+02 -0.52935183539E+01  0.96079641886E+02  0.91595287581E+02 0.  0.
         11    1    3    3    0    0 -0.49891632186E+02  0.30197569808E+02  0.14081861442E+02  0.59994724822E+02  0.51100000000E-03 0.  1.
         22    1    1    0    0    0  0.26369466314E+02 -0.10873398163E+02  0.52935183539E+01  0.29010358114E+02  0.00000000000E+00 0.  1.
</event>
<event>
 5    1  0.1047411E-009  0.9118800E+02  0.7815553E-02  0.1125453E+00
         25   -1    0    0    0    0  0.00000000000E+00  0.00000000000E+00  0.99999998245E-14  0.12509000000E+03  0.12509000000E+03 0.  0.
        -11    1    3    3    0    0 -0.42596354895E+02  0.81421252004E+01 -0.46235504520E+01  0.43613310722E+02  0.51100000000E-03 0. -1.
         23    2    1    0    0    0 -0.33736872425E+01 -0.24028989449E+02 -0.16541850518E+02  0.95723234463E+02  0.91107248328E+02 0.  0.
         11    1    3    3    0    0  0.39222667652E+02 -0.32171114649E+02 -0.11918300066E+02  0.52109923741E+02  0.51100000000E-03 0.  1.
         22    1    1    0    0    0  0.33736872425E+01  0.24028989449E+02  0.16541850518E+02  0.29366765537E+02  0.00000000000E+00 0. -1.
</event>
<event>
 5    1  0.1047411E-009  0.9118800E+02  0.7815553E-02  0.1125453E+00
         25   -1    0    0    0    0  0.00000000000E+00  0.00000000000E+00  0.99999998245E-14  0.12509000000E+03  0.12509000000E+03 0.  0.
        -11    1    3    3    0    0 -0.25636196391E+02 -0.31840940752E+02 -0.26225546633E+02  0.48567884140E+02  0.51100000000E-03 0. -1.
         23    2    1    0    0    0  0.16902805288E+02 -0.13856389764E+02 -0.20532315691E+02  0.95101996540E+02  0.90250259803E+02 0.  0.
         11    1    3    3    0    0  0.42539001678E+02  0.17984550989E+02  0.56932309425E+01  0.46534112400E+02  0.51100000000E-03 0.  1.
         22    1    1    0    0    0 -0.16902805288E+02  0.13856389764E+02  0.20532315691E+02  0.29988003460E+02  0.00000000000E+00 0. -1.
</event>
<event>
 5    1  0.1047411E-009  0.9118800E+02  0.7815553E-02  0.1125453E+00
         25   -1    0    0    0    0  0.00000000000E+00  0.00000000000E+00  0.99999998245E-14  0.12509000000E+03  0.12509000000E+03 0.  0.
        -11    1    3    3    0    0 -0.21158835599E+02 -0.13101887813E+02  0.23272669397E+02  0.34073052832E+02  0.51100000000E-03 0. -1.
         23    2    1    0    0    0  0.35939076315E+01  0.18924195926E+02 -0.22695534870E+02  0.95322086627E+02  0.90554798506E+02 0.  0.
         11    1    3    3    0    0  0.24752743231E+02  0.32026083739E+02 -0.45968204267E+02  0.61249033796E+02  0.51100000000E-03 0.  1.
         22    1    1    0    0    0 -0.35939076315E+01 -0.18924195926E+02  0.22695534870E+02  0.29767913373E+02  0.00000000000E+00 0.  1.
</event>
<event>
 5    1  0.1047411E-009  0.9118800E+02  0.7815553E-02  0.1125453E+00
         25   -1    0    0    0    0  0.00000000000E+00  0.00000000000E+00  0.99999998245E-14  0.12509000000E+03  0.12509000000E+03 0.  0.
        -11    1    3    3    0    0 -0.15890667086E+02  0.40980091180E+02  0.23468955585E+00  0.43953796799E+02  0.51100000000E-03 0. -1.
         23    2    1    0    0    0  0.13869739636E+02  0.68317806957E+01  0.25087808478E+02  0.95620676301E+02  0.90966327271E+02 0.  0.
         11    1    3    3    0    0  0.29760406721E+02 -0.34148310484E+02  0.24853118922E+02  0.51666879503E+02  0.51100000000E-03 0.  1.
         22    1    1    0    0    0 -0.13869739636E+02 -0.68317806957E+01 -0.25087808478E+02  0.29469323699E+02  0.00000000000E+00 0.  1.
</event>
<event>
 5    1  0.1047411E-009  0.9118800E+02  0.7815553E-02  0.1125453E+00
         25   -1    0    0    0    0  0.00000000000E+00  0.00000000000E+00  0.99999998245E-14  0.12509000000E+03  0.12509000000E+03 0.  0.
        -11    1    3    3    0    0  0.24670260236E+01  0.11512287042E+02  0.38013088963E+02  0.39794646664E+02  0.51100000000E-03 0.  1.
         23    2    1    0    0    0  0.25678809892E+02 -0.13656360136E+02 -0.58346374845E+01  0.95426209881E+02  0.90698517563E+02 0.  0.
         11    1    3    3    0    0  0.23211783868E+02 -0.25168647179E+02 -0.43847726447E+02  0.55631563217E+02  0.51100000000E-03 0. -1.
         22    1    1    0    0    0 -0.25678809892E+02  0.13656360136E+02  0.58346374845E+01  0.29663790119E+02  0.00000000000E+00 0. -1.
</event>
<event>
 5    1  0.1047411E-009  0.9118800E+02  0.7815553E-02  0.1125453E+00
         25   -1    0    0    0    0  0.00000000000E+00  0.00000000000E+00  0.99999998245E-14  0.12509000000E+03  0.12509000000E+03 0.  0.
        -11    1    3    3    0    0  0.60557796808E+02  0.47985815813E+01 -0.96191265282E+01  0.61504477356E+02  0.51100000000E-03 0. -1.
         23    2    1    0    0    0  0.21964102800E+02 -0.19691345447E+01 -0.10430440404E+02  0.10069546394E+03  0.97695870270E+02 0.  0.
         11    1    3    3    0    0 -0.38593694008E+02 -0.67677161259E+01 -0.81131387621E+00  0.39190986581E+02  0.51100000000E-03 0.  1.
         22    1    1    0    0    0 -0.21964102800E+02  0.19691345447E+01  0.10430440404E+02  0.24394536062E+02  0.00000000000E+00 0. -1.
</event>
<event>
 5    1  0.1047411E-009  0.9118800E+02  0.7815553E-02  0.1125453E+00
         25   -1    0    0    0    0  0.00000000000E+00  0.00000000000E+00  0.99999998245E-14  0.12509000000E+03  0.12509000000E+03 0.  0.
        -11    1    3    3    0    0 -0.21148391852E+02  0.11817743666E+02 -0.20422297578E+02  0.31685703115E+02  0.51100000000E-03 0.  1.
         23    2    1    0    0    0  0.19978326669E+02 -0.83527220257E+01  0.22073206729E+02  0.94168681189E+02  0.88947245938E+02 0.  0.
         11    1    3    3    0    0  0.41126718520E+02 -0.20170465691E+02  0.42495504307E+02  0.62482978074E+02  0.51100000000E-03 0. -1.
         22    1    1    0    0    0 -0.19978326669E+02  0.83527220257E+01 -0.22073206729E+02  0.30921318811E+02  0.00000000000E+00 0. -1.
</event>
<event>
 5    1  0.1047411E-009  0.9118800E+02  0.7815553E-02  0.1125453E+00
         25   -1    0    0    0    0  0.00000000000E+00  0.00000000000E+00  0.99999998245E-14  0.12509000000E+03  0.12509000000E+03 0.  0.
        -11    1    3    3    0    0 -0.39636120870E+02  0.30833785174E+02  0.24005043577E+02  0.55659558956E+02  0.51100000000E-03 0.  1.
         23    2    1    0    0    0 -0.18664450348E+02 -0.31716056428E+01  0.22561239795E+02  0.95637829787E+02  0.90989912387E+02 0.  0.
         11    1    3    3    0    0  0.20971670522E+02 -0.34005390817E+02 -0.14438037816E+01  0.39978270832E+02  0.51100000000E-03 0. -1.
         22    1    1    0    0    0  0.18664450348E+02  0.31716056428E+01 -0.22561239795E+02  0.29452170213E+02  0.00000000000E+00 0. -1.
</event>
<event>
 5    1  0.1047411E-009  0.9118800E+02  0.7815553E-02  0.1125453E+00
         25   -1    0    0    0    0  0.00000000000E+00  0.00000000000E+00  0.99999998245E-14  0.12509000000E+03  0.12509000000E+03 0.  0.
        -11    1    3    3    0    0 -0.33930661740E+02  0.43120738466E+02  0.12653660898E+02  0.56309883914E+02  0.51100000000E-03 0. -1.
         23    2    1    0    0    0  0.92525164001E+00  0.22810256830E+02  0.16628545208E+02  0.96846904862E+02  0.92637198567E+02 0.  0.
         11    1    3    3    0    0  0.34855913380E+02 -0.20310481636E+02  0.39748843095E+01  0.40537020948E+02  0.51100000000E-03 0.  1.
         22    1    1    0    0    0 -0.92525164001E+00 -0.22810256830E+02 -0.16628545208E+02  0.28243095138E+02  0.00000000000E+00 0. -1.
</event>
<event>
 5    1  0.1047411E-009  0.9118800E+02  0.7815553E-02  0.1125453E+00
         25   -1    0    0    0    0  0.00000000000E+00  0.00000000000E+00  0.99999998245E-14  0.12509000000E+03  0.12509000000E+03 0.  0.
        -11    1    3    3    0    0 -0.38057035026E+01 -0.55055501118E+02 -0.21906020798E+02  0.59375629091E+02  0.51100000000E-03 0. -1.
         23    2    1    0    0    0 -0.12050136771E+02 -0.31827017458E+02 -0.21035031688E+01  0.90993232381E+02  0.84363373434E+02 0.  0.
         11    1    3    3    0    0 -0.82444332689E+01  0.23228483660E+02  0.19802517630E+02  0.31617603290E+02  0.51100000000E-03 0.  1.
         22    1    1    0    0    0  0.12050136771E+02  0.31827017458E+02  0.21035031688E+01  0.34096767619E+02  0.00000000000E+00 0. -1.
</event>
<event>
 5    1  0.1047411E-009  0.9118800E+02  0.7815553E-02  0.1125453E+00
         25   -1    0    0    0    0  0.00000000000E+00  0.00000000000E+00  0.99999998245E-14  0.12509000000E+03  0.12509000000E+03 0.  0.
        -11    1    3    3    0    0 -0.23989213527E+02 -0.69475054452E+01 -0.55576993304E+02  0.60930717890E+02  0.51100000000E-03 0.  1.
         23    2    1    0    0    0 -0.13400247836E+02  0.65216564661E+01 -0.24718837603E+02  0.96226189136E+02  0.91795206291E+02 0.  0.
         11    1    3    3    0    0  0.10588965691E+02  0.13469161911E+02  0.30858155701E+02  0.35295471246E+02  0.51100000000E-03 0. -1.
         22    1    1    0    0    0  0.13400247836E+02 -0.65216564661E+01  0.24718837603E+02  0.28863810864E+02  0.00000000000E+00 0.  1.
</event>
<event>
 5    1  0.1047411E-009  0.9118800E+02  0.7815553E-02  0.1125453E+00
         25   -1    0    0    0    0  0.00000000000E+00  0.00000000000E+00  0.99999998245E-14  0.12509000000E+03  0.12509000000E+03 0.  0.
        -11    1    3    3    0    0  0.29228287456E+02  0.35823489618E+02 -0.28635976912E+02  0.54384137117E+02  0.51100000000E-03 0.  1.
         23    2    1    0    0    0 -0.77070647282E+01  0.23204038742E+02 -0.17656929315E+02  0.94930533601E+02  0.90012292473E+02 0.  0.
         11    1    3    3    0    0 -0.36935352184E+02 -0.12619450876E+02  0.10979047597E+02  0.40546396483E+02  0.51100000000E-03 0. -1.
         22    1    1    0    0    0  0.77070647282E+01 -0.23204038742E+02  0.17656929315E+02  0.30159466399E+02  0.00000000000E+00 0.  1.
</event>
<event>
 5    1  0.1047411E-009  0.9118800E+02  0.7815553E-02  0.1125453E+00
         25   -1    0    0    0    0  0.00000000000E+00  0.00000000000E+00  0.99999998245E-14  0.12509000000E+03  0.12509000000E+03 0.  0.
        -11    1    3    3    0    0  0.53038266164E+02  0.19785495369E+02 -0.15316037798E+02  0.58643878784E+02  0.51100000000E-03 0.  1.
         23    2    1    0    0    0  0.24553863827E+02  0.11041679785E+02  0.85745669092E+01  0.96835192993E+02  0.92621382428E+02 0.  0.
         11    1    3    3    0    0 -0.28484402337E+02 -0.87438155836E+01  0.23890604708E+02  0.38191314209E+02  0.51100000000E-03 0. -1.
         22    1    1    0    0    0 -0.24553863827E+02 -0.11041679785E+02 -0.85745669092E+01  0.28254807007E+02  0.00000000000E+00 0.  1.
</event>
<event>
 5    1  0.1047411E-009  0.9118800E+02  0.7815553E-02  0.1125453E+00
         25   -1    0    0    0    0  0.00000000000E+00  0.00000000000E+00  0.99999998245E-14  0.12509000000E+03  0.12509000000E+03 0.  0.
        -11    1    3    3    0    0  0.18342294078E+02 -0.40540023676E+02  0.34304987846E+02  0.56185100009E+02  0.51100000000E-03 0. -1.
         23    2    1    0    0    0 -0.92138124713E+01 -0.14436267479E+02  0.24161978719E+02  0.95474102671E+02  0.90764546527E+02 0.  0.
         11    1    3    3    0    0 -0.27556106549E+02  0.26103756197E+02 -0.10143009127E+02  0.39289002662E+02  0.51100000000E-03 0.  1.
         22    1    1    0    0    0  0.92138124713E+01  0.14436267479E+02 -0.24161978719E+02  0.29615897329E+02  0.00000000000E+00 0. -1.
</event>
<event>
 5    1  0.1047411E-009  0.9118800E+02  0.7815553E-02  0.1125453E+00
         25   -1    0    0    0    0  0.00000000000E+00  0.00000000000E+00  0.99999998245E-14  0.12509000000E+03  0.12509000000E+03 0.  0.
        -11    1    3    3    0    0  0.45055755567E+02  0.24531415058E+02  0.24782237852E+02  0.56973421414E+02  0.51100000000E-03 0.  1.
         23    2    1    0    0    0  0.21187012159E+02  0.22473109903E+02 -0.34632077139E+01  0.94010682752E+02  0.88724768305E+02 0.  0.
         11    1    3    3    0    0 -0.23868743407E+02 -0.20583051546E+01 -0.28245445566E+02  0.37037261338E+02  0.51100000000E-03 0. -1.
         22    1    1    0    0    0 -0.21187012159E+02 -0.22473109903E+02  0.34632077139E+01  0.31079317248E+02  0.00000000000E+00 0. -1.
</event>
<event>
 5    1  0.1047411E-009  0.9118800E+02  0.7815553E-02  0.1125453E+00
         25   -1    0    0    0    0  0.00000000000E+00  0.00000000000E+00  0.99999998245E-14  0.12509000000E+03  0.12509000000E+03 0.  0.
        -11    1    3    3    0    0  0.11915417238E+02  0.12203316974E+01  0.31466180152E+02  0.33668781846E+02  0.51100000000E-03 0.  1.
         23    2    1    0    0    0 -0.61728056974E+01 -0.31656670032E+01 -0.28136995699E+02  0.96110429529E+02  0.91637324052E+02 0.  0.
         11    1    3    3    0    0 -0.18088222935E+02 -0.43859987007E+01 -0.59603175851E+02  0.62441647682E+02  0.51100000000E-03 0. -1.
         22    1    1    0    0    0  0.61728056974E+01  0.31656670032E+01  0.28136995699E+02  0.28979570471E+02  0.00000000000E+00 0. -1.
</event>
<event>
 5    1  0.1047411E-009  0.9118800E+02  0.7815553E-02  0.1125453E+00
         25   -1    0    0    0    0  0.00000000000E+00  0.00000000000E+00  0.99999998245E-14  0.12509000000E+03  0.12509000000E+03 0.  0.
        -11    1    3    3    0    0  0.46269432406E+02  0.18428110224E+01 -0.33668525274E+02  0.57252300583E+02  0.51100000000E-03 0.  1.
         23    2    1    0    0    0  0.14989664577E+02 -0.16024656689E+02 -0.18693830375E+02  0.96263988132E+02  0.91846700816E+02 0.  0.
         11    1    3    3    0    0 -0.31279767829E+02 -0.17867467711E+02  0.14974694899E+02  0.39011687549E+02  0.51100000000E-03 0. -1.
         22    1    1    0    0    0 -0.14989664577E+02  0.16024656689E+02  0.18693830375E+02  0.28826011868E+02  0.00000000000E+00 0.  1.
</event>
<event>
 5    1  0.1047411E-009  0.9118800E+02  0.7815553E-02  0.1125453E+00
         25   -1    0    0    0    0  0.00000000000E+00  0.00000000000E+00  0.99999998245E-14  0.12509000000E+03  0.12509000000E+03 0.  0.
        -11    1    3    3    0    0 -0.22687729322E+02  0.31453410385E+01  0.23369967882E+02  0.32722799867E+02  0.51100000000E-03 0.  1.
         23    2    1    0    0    0  0.21544068371E+02 -0.32558757789E+01 -0.20373422873E+02  0.95260082658E+02  0.90469107321E+02 0.  0.
         11    1    3    3    0    0  0.44231797693E+02 -0.64012168173E+01 -0.43743390756E+02  0.62537282791E+02  0.51100000000E-03 0. -1.
         22    1    1    0    0    0 -0.21544068371E+02  0.32558757789E+01  0.20373422873E+02  0.29829917342E+02  0.00000000000E+00 0. -1.
</event>
<event>
 5    1  0.1047411E-009  0.9118800E+02  0.7815553E-02  0.1125453E+00
         25   -1    0    0    0    0  0.00000000000E+00  0.00000000000E+00  0.99999998245E-14  0.12509000000E+03  0.12509000000E+03 0.  0.
        -11    1    3    3    0    0  0.14205699249E+02  0.29487676444E+02  0.84446614903E+01  0.33802917939E+02  0.51100000000E-03 0. -1.
         23    2    1    0    0    0 -0.15772617237E+02 -0.22836310046E+02 -0.78093677467E+01  0.96258442019E+02  0.91839147015E+02 0.  0.
         11    1    3    3    0    0 -0.29978316486E+02 -0.52323986490E+02 -0.16254029237E+02  0.62455524081E+02  0.51100000000E-03 0.  1.
         22    1    1    0    0    0  0.15772617237E+02  0.22836310046E+02  0.78093677467E+01  0.28831557981E+02  0.00000000000E+00 0.  1.
</event>
<event>
 5    1  0.1047411E-009  0.9118800E+02  0.7815553E-02  0.1125453E+00
         25   -1    0    0    0    0  0.00000000000E+00  0.00000000000E+00  0.99999998245E-14  0.12509000000E+03  0.12509000000E+03 0.  0.
        -11    1    3    3    0    0 -0.14458683470E+02  0.11246322950E+02  0.50729190381E+02  0.53934998513E+02  0.51100000000E-03 0.  1.
         23    2    1    0    0    0  0.33347641590E+00 -0.17049060379E+02  0.24413816958E+02  0.95310541899E+02  0.90538849520E+02 0.  0.
         11    1    3    3    0    0  0.14792159886E+02 -0.28295383329E+02 -0.26315373423E+02  0.41375543386E+02  0.51100000000E-03 0. -1.
         22    1    1    0    0    0 -0.33347641590E+00  0.17049060379E+02 -0.24413816958E+02  0.29779458101E+02  0.00000000000E+00 0.  1.
</event>
<event>
 5    1  0.1047411E-009  0.9118800E+02  0.7815553E-02  0.1125453E+00
         25   -1    0    0    0    0  0.00000000000E+00  0.00000000000E+00  0.99999998245E-14  0.12509000000E+03  0.12509000000E+03 0.  0.
        -11    1    3    3    0    0  0.50437536547E+02  0.11917149807E+02 -0.14574537551E+02  0.53836611127E+02  0.51100000000E-03 0.  1.
         23    2    1    0    0    0  0.19265767285E+02 -0.14677464745E+02 -0.17940035962E+02  0.94949617608E+02  0.90038809595E+02 0.  0.
         11    1    3    3    0    0 -0.31171769263E+02 -0.26594614552E+02 -0.33654984106E+01  0.41113006482E+02  0.51100000000E-03 0. -1.
         22    1    1    0    0    0 -0.19265767285E+02  0.14677464745E+02  0.17940035962E+02  0.30140382392E+02  0.00000000000E+00 0.  1.
</event>
<event>
 5    1  0.1047411E-009  0.9118800E+02  0.7815553E-02  0.1125453E+00
         25   -1    0    0    0    0  0.00000000000E+00  0.00000000000E+00  0.99999998245E-14  0.12509000000E+03  0.12509000000E+03 0.  0.
        -11    1    3    3    0    0  0.18232005681E+02  0.36962194338E+02 -0.20166146415E+02  0.45883366299E+02  0.51100000000E-03 0. -1.
         23    2    1    0    0    0 -0.23297683525E+02  0.92930771426E+01 -0.14527927300E+02  0.96103727179E+02  0.91628174519E+02 0.  0.
         11    1    3    3    0    0 -0.41529689206E+02 -0.27669117196E+02  0.56382191141E+01  0.50220360880E+02  0.51100000000E-03 0.  1.
         22    1    1    0    0    0  0.23297683525E+02 -0.92930771426E+01  0.14527927300E+02  0.28986272821E+02  0.00000000000E+00 0. -1.
</event>
<event>
 5    1  0.1047411E-009  0.9118800E+02  0.7815553E-02  0.1125453E+00
         25   -1    0    0    0    0  0.00000000000E+00  0.00000000000E+00  0.99999998245E-14  0.12509000000E+03  0.12509000000E+03 0.  0.
        -11    1    3    3    0    0 -0.58709538228E+01  0.15473435724E+02  0.30258527886E+02  0.34488749209E+02  0.51100000000E-03 0. -1.
         23    2    1    0    0    0 -0.43038882728E+01  0.10130620790E+02 -0.29032699739E+02  0.94040835986E+02  0.88767270133E+02 0.  0.
         11    1    3    3    0    0  0.15670655499E+01 -0.53428149343E+01 -0.59291227625E+02  0.59552086777E+02  0.51100000000E-03 0.  1.
         22    1    1    0    0    0  0.43038882728E+01 -0.10130620790E+02  0.29032699739E+02  0.31049164014E+02  0.00000000000E+00 0.  1.
</event>
<event>
 5    1  0.1047411E-009  0.9118800E+02  0.7815553E-02  0.1125453E+00
         25   -1    0    0    0    0  0.00000000000E+00  0.00000000000E+00  0.99999998245E-14  0.12509000000E+03  0.12509000000E+03 0.  0.
        -11    1    3    3    0    0 -0.38434829971E+02  0.42128579044E+02  0.41097938280E+01  0.57174677373E+02  0.51100000000E-03 0. -1.
         23    2    1    0    0    0 -0.21211254973E+02  0.14588442092E+02 -0.15425071546E+02  0.95078788555E+02  0.90218086993E+02 0.  0.
         11    1    3    3    0    0  0.17223574999E+02 -0.27540136951E+02 -0.19534865374E+02  0.37904111182E+02  0.51100000000E-03 0.  1.
         22    1    1    0    0    0  0.21211254973E+02 -0.14588442092E+02  0.15425071546E+02  0.30011211445E+02  0.00000000000E+00 0.  1.
</event>
<event>
 5    1  0.1047411E-009  0.9118800E+02  0.7815553E-02  0.1125453E+00
         25   -1    0    0    0    0  0.00000000000E+00  0.00000000000E+00  0.99999998245E-14  0.12509000000E+03  0.12509000000E+03 0.  0.
        -11    1    3    3    0    0  0.43185142198E+02 -0.18193040171E+02 -0.12278800573E+02  0.48442875236E+02  0.51100000000E-03 0.  1.
         23    2    1    0    0    0  0.17033296516E+02 -0.27874051529E+02  0.16480201079E+02  0.88501846638E+02  0.80584638064E+02 0.  0.
         11    1    3    3    0    0 -0.26151845682E+02 -0.96810113581E+01  0.28759001652E+02  0.40058971402E+02  0.51100000000E-03 0. -1.
         22    1    1    0    0    0 -0.17033296516E+02  0.27874051529E+02 -0.16480201079E+02  0.36588153362E+02  0.00000000000E+00 0.  1.
</event>
<event>
 5    1  0.1047411E-009  0.9118800E+02  0.7815553E-02  0.1125453E+00
         25   -1    0    0    0    0  0.00000000000E+00  0.00000000000E+00  0.99999998245E-14  0.12509000000E+03  0.12509000000E+03 0.  0.
        -11    1    3    3    0    0  0.32743615057E+02 -0.19592942728E+01  0.14665818779E+02  0.35931454211E+02  0.51100000000E-03 0. -1.
         23    2    1    0    0    0 -0.26815302739E+02 -0.51432736888E+01  0.10888400676E+02  0.95694915471E+02  0.91068358130E+02 0.  0.
         11    1    3    3    0    0 -0.59558917795E+02 -0.31839794160E+01 -0.37774181022E+01  0.59763461259E+02  0.51100000000E-03 0.  1.
         22    1    1    0    0    0  0.26815302739E+02  0.51432736888E+01 -0.10888400676E+02  0.29395084529E+02  0.00000000000E+00 0.  1.
</event>
<event>
 5    1  0.1047411E-009  0.9118800E+02  0.7815553E-02  0.1125453E+00
         25   -1    0    0    0    0  0.00000000000E+00  0.00000000000E+00  0.99999998245E-14  0.12509000000E+03  0.12509000000E+03 0.  0.
        -11    1    3    3    0    0 -0.62176801880E+01 -0.34905060665E+02  0.22611923694E+00  0.35455238500E+02  0.51100000000E-03 0. -1.
         23    2    1    0    0    0 -0.96219865194E+01  0.26463908486E+02  0.76040732712E+00  0.96920880450E+02  0.92737035595E+02 0.  0.
         11    1    3    3    0    0 -0.34043063314E+01  0.61368969151E+02  0.53428809018E+00  0.61465641949E+02  0.51100000000E-03 0.  1.
         22    1    1    0    0    0  0.96219865194E+01 -0.26463908486E+02 -0.76040732712E+00  0.28169119550E+02  0.00000000000E+00 0.  1.
</event>
<event>
 5    1  0.1047411E-009  0.9118800E+02  0.7815553E-02  0.1125453E+00
         25   -1    0    0    0    0  0.00000000000E+00  0.00000000000E+00  0.99999998245E-14  0.12509000000E+03  0.12509000000E+03 0.  0.
        -11    1    3    3    0    0  0.30881325136E+02 -0.31353234407E+02  0.14225082582E+02  0.46249697563E+02  0.51100000000E-03 0. -1.
         23    2    1    0    0    0  0.17009748422E+01  0.68419091040E+01  0.27972086813E+02  0.96243116697E+02  0.91818270705E+02 0.  0.
         11    1    3    3    0    0 -0.29180350294E+02  0.38195143511E+02  0.13747004231E+02  0.49993419134E+02  0.51100000000E-03 0.  1.
         22    1    1    0    0    0 -0.17009748422E+01 -0.68419091040E+01 -0.27972086813E+02  0.28846883303E+02  0.00000000000E+00 0.  1.
</event>
<event>
 5    1  0.1047411E-009  0.9118800E+02  0.7815553E-02  0.1125453E+00
         25   -1    0    0    0    0  0.00000000000E+00  0.00000000000E+00  0.99999998245E-14  0.12509000000E+03  0.12509000000E+03 0.  0.
        -11    1    3    3    0    0 -0.10486086222E+02 -0.33341127810E+01  0.38959873209E+02  0.40483898442E+02  0.51100000000E-03 0.  1.
         23    2    1    0    0    0  0.26966632094E+02 -0.73708711893E+01 -0.31189664499E+01  0.96960710277E+02  0.92790745212E+02 0.  0.
         11    1    3    3    0    0  0.37452718317E+02 -0.40367584083E+01 -0.42078839659E+02  0.56476811835E+02  0.51100000000E-03 0. -1.
         22    1    1    0    0    0 -0.26966632094E+02  0.73708711893E+01  0.31189664499E+01  0.28129289723E+02  0.00000000000E+00 0. -1.
</event>
<event>
 5    1  0.1047411E-009  0.9118800E+02  0.7815553E-02  0.1125453E+00
         25   -1    0    0    0    0  0.00000000000E+00  0.00000000000E+00  0.99999998245E-14  0.12509000000E+03  0.12509000000E+03 0.  0.
        -11    1    3    3    0    0  0.28735593820E+02 -0.18713532850E+02  0.95732554888E+01  0.35603060049E+02  0.51100000000E-03 0.  1.
         23    2    1    0    0    0 -0.28817733670E+02 -0.99383375277E+01  0.66185248540E+01  0.93896455829E+02  0.88563577272E+02 0.  0.
         11    1    3    3    0    0 -0.57553327491E+02  0.87751953218E+01 -0.29547306349E+01  0.58293395780E+02  0.51100000000E-03 0. -1.
         22    1    1    0    0    0  0.28817733670E+02  0.99383375277E+01 -0.66185248540E+01  0.31193544171E+02  0.00000000000E+00 0. -1.
</event>
<event>
 5    1  0.1047411E-009  0.9118800E+02  0.7815553E-02  0.1125453E+00
         25   -1    0    0    0    0  0.00000000000E+00  0.00000000000E+00  0.99999998245E-14  0.12509000000E+03  0.12509000000E+03 0.  0.
        -11    1    3    3    0    0 -0.45821350657E+02  0.21975301936E+02  0.14264278899E+02  0.52782380810E+02  0.51100000000E-03 0.  1.
         23    2    1    0    0    0 -0.18950748067E+02 -0.46479318357E+01  0.26177599535E+02  0.92440331701E+02  0.86482449577E+02 0.  0.
         11    1    3    3    0    0  0.26870602590E+02 -0.26623233772E+02  0.11913320636E+02  0.39657950891E+02  0.51100000000E-03 0. -1.
         22    1    1    0    0    0  0.18950748067E+02  0.46479318357E+01 -0.26177599535E+02  0.32649668299E+02  0.00000000000E+00 0. -1.
</event>
<event>
 5    1  0.1047411E-009  0.9118800E+02  0.7815553E-02  0.1125453E+00
         25   -1    0    0    0    0  0.00000000000E+00  0.00000000000E+00  0.99999998245E-14  0.12509000000E+03  0.12509000000E+03 0.  0.
        -11    1    3    3    0    0  0.45731714994E+01 -0.42736627565E+02 -0.36392682469E+02  0.56318385726E+02  0.51100000000E-03 0.  1.
         23    2    1    0    0    0 -0.17467599635E+02 -0.15847896839E+02 -0.14761255092E+02  0.97266133929E+02  0.93201573411E+02 0.  0.
         11    1    3    3    0    0 -0.22040771135E+02  0.26888730726E+02  0.21631427377E+02  0.40947748203E+02  0.51100000000E-03 0. -1.
         22    1    1    0    0    0  0.17467599635E+02  0.15847896839E+02  0.14761255092E+02  0.27823866071E+02  0.00000000000E+00 0.  1.
</event>
<event>
 5    1  0.1047411E-009  0.9118800E+02  0.7815553E-02  0.1125453E+00
         25   -1    0    0    0    0  0.00000000000E+00  0.00000000000E+00  0.99999998245E-14  0.12509000000E+03  0.12509000000E+03 0.  0.
        -11    1    3    3    0    0  0.12812220615E+02 -0.14555821102E+02 -0.47030320067E+02  0.50871169938E+02  0.51100000000E-03 0. -1.
         23    2    1    0    0    0  0.24682590197E+02  0.11814532004E+02 -0.15559449191E+02  0.93611278863E+02  0.88159864144E+02 0.  0.
         11    1    3    3    0    0  0.11870369582E+02  0.26370353106E+02  0.31470870876E+02  0.42740108924E+02  0.51100000000E-03 0.  1.
         22    1    1    0    0    0 -0.24682590197E+02 -0.11814532004E+02  0.15559449191E+02  0.31478721137E+02  0.00000000000E+00 0.  1.
</event>
<event>
 5    1  0.1047411E-009  0.9118800E+02  0.7815553E-02  0.1125453E+00
         25   -1    0    0    0    0  0.00000000000E+00  0.00000000000E+00  0.99999998245E-14  0.12509000000E+03  0.12509000000E+03 0.  0.
        -11    1    3    3    0    0  0.32622519086E+02  0.20327247039E+02 -0.14310869727E+02  0.41014957226E+02  0.51100000000E-03 0. -1.
         23    2    1    0    0    0 -0.14975918341E+02  0.22900174162E+02  0.11715382894E+02  0.95325149872E+02  0.90559029892E+02 0.  0.
         11    1    3    3    0    0 -0.47598437427E+02  0.25729271229E+01  0.26026252621E+02  0.54310192645E+02  0.51100000000E-03 0.  1.
         22    1    1    0    0    0  0.14975918341E+02 -0.22900174162E+02 -0.11715382894E+02  0.29764850128E+02  0.00000000000E+00 0.  1.
</event>
<event>
 5    1  0.1047411E-009  0.9118800E+02  0.7815553E-02  0.1125453E+00
         25   -1    0    0    0    0  0.00000000000E+00  0.00000000000E+00  0.99999998245E-14  0.12509000000E+03  0.12509000000E+03 0.  0.
        -11    1    3    3    0    0  0.42761001309E+02 -0.56500287283E+01  0.27520775284E+02  0.51164627723E+02  0.51100000000E-03 0. -1.
         23    2    1    0    0    0  0.77058590546E+01  0.21834925906E+02  0.15233424038E+02  0.97373552518E+02  0.93345633368E+02 0.  0.
         11    1    3    3    0    0 -0.35055142254E+02  0.27484954635E+02 -0.12287351246E+02  0.46208924794E+02  0.51100000000E-03 0.  1.
         22    1    1    0    0    0 -0.77058590546E+01 -0.21834925906E+02 -0.15233424038E+02  0.27716447482E+02  0.00000000000E+00 0. -1.
</event>
<event>
 5    1  0.1047411E-009  0.9118800E+02  0.7815553E-02  0.1125453E+00
         25   -1    0    0    0    0  0.00000000000E+00  0.00000000000E+00  0.99999998245E-14  0.12509000000E+03  0.12509000000E+03 0.  0.
        -11    1    3    3    0    0  0.23628192016E+02  0.13843172423E+02  0.20647077960E+02  0.34296161728E+02  0.51100000000E-03 0. -1.
         23    2    1    0    0    0 -0.29570679978E+02  0.10857043935E+02 -0.45956330710E+01  0.93255736059E+02  0.87653932868E+02 0.  0.
         11    1    3    3    0    0 -0.53198871994E+02 -0.29861284888E+01 -0.25242711031E+02  0.58959574331E+02  0.51100000000E-03 0.  1.
         22    1    1    0    0    0  0.29570679978E+02 -0.10857043935E+02  0.45956330710E+01  0.31834263941E+02  0.00000000000E+00 0.  1.
</event>
<event>
 5    1  0.1047411E-009  0.9118800E+02  0.7815553E-02  0.1125453E+00
         25   -1    0    0    0    0  0.00000000000E+00  0.00000000000E+00  0.99999998245E-14  0.12509000000E+03  0.12509000000E+03 0.  0.
        -11    1    3    3    0    0 -0.24699901530E+02  0.23807811096E+02 -0.17734931023E+02  0.38618969218E+02  0.51100000000E-03 0.  1.
         23    2    1    0    0    0  0.12837751379E+02  0.15199649448E+02  0.23001210963E+02  0.94677947955E+02  0.89660587325E+02 0.  0.
         11    1    3    3    0    0  0.37537652910E+02 -0.86081616475E+01  0.40736141986E+02  0.56058978738E+02  0.51100000000E-03 0. -1.
         22    1    1    0    0    0 -0.12837751379E+02 -0.15199649448E+02 -0.23001210963E+02  0.30412052045E+02  0.00000000000E+00 0. -1.
</event>
<event>
 5    1  0.1047411E-009  0.9118800E+02  0.7815553E-02  0.1125453E+00
         25   -1    0    0    0    0  0.00000000000E+00  0.00000000000E+00  0.99999998245E-14  0.12509000000E+03  0.12509000000E+03 0.  0.
        -11    1    3    3    0    0  0.24344114237E+02 -0.19227755886E+02 -0.20661321812E+02  0.37272412233E+02  0.51100000000E-03 0.  1.
         23    2    1    0    0    0  0.65577664508E+01  0.28592113996E+02  0.64586202009E+01  0.95052905292E+02  0.90182191955E+02 0.  0.
         11    1    3    3    0    0 -0.17786347786E+02  0.47819869882E+02  0.27119942013E+02  0.57780493059E+02  0.51100000000E-03 0. -1.
         22    1    1    0    0    0 -0.65577664508E+01 -0.28592113996E+02 -0.64586202009E+01  0.30037094708E+02  0.00000000000E+00 0. -1.
</event>
<event>
 5    1  0.1047411E-009  0.9118800E+02  0.7815553E-02  0.1125453E+00
         25   -1    0    0    0    0  0.00000000000E+00  0.00000000000E+00  0.99999998245E-14  0.12509000000E+03  0.12509000000E+03 0.  0.
        -11    1    3    3    0    0  0.52220671787E+02  0.37964709295E+01 -0.39900913695E+01  0.52510309301E+02  0.51100000000E-03 0. -1.
         23    2    1    0    0    0  0.19402813683E+02 -0.20516351326E+02  0.91365813735E+01  0.95410596877E+02  0.90676981791E+02 0.  0.
         11    1    3    3    0    0 -0.32817858105E+02 -0.24312822255E+02  0.13126672743E+02  0.42900287577E+02  0.51100000000E-03 0.  1.
         22    1    1    0    0    0 -0.19402813683E+02  0.20516351326E+02 -0.91365813735E+01  0.29679403123E+02  0.00000000000E+00 0. -1.
</event>
<event>
 5    1  0.1047411E-009  0.9118800E+02  0.7815553E-02  0.1125453E+00
         25   -1    0    0    0    0  0.00000000000E+00  0.00000000000E+00  0.99999998245E-14  0.12509000000E+03  0.12509000000E+03 0.  0.
        -11    1    3    3    0    0  0.17781577052E+02 -0.41149829239E+02  0.33740349280E+02  0.56106185921E+02  0.51100000000E-03 0.  1.
         23    2    1    0    0    0 -0.72844306457E+01 -0.16029865649E+02  0.27941245596E+02  0.92063756980E+02  0.85936037966E+02 0.  0.
         11    1    3    3    0    0 -0.25066007698E+02  0.25119963589E+02 -0.57991036842E+01  0.35957571059E+02  0.51100000000E-03 0. -1.
         22    1    1    0    0    0  0.72844306457E+01  0.16029865649E+02 -0.27941245596E+02  0.33026243020E+02  0.00000000000E+00 0. -1.
</event>
<event>
 5    1  0.1047411E-009  0.9118800E+02  0.7815553E-02  0.1125453E+00
         25   -1    0    0    0    0  0.00000000000E+00  0.00000000000E+00  0.99999998245E-14  0.12509000000E+03  0.12509000000E+03 0.  0.
        -11    1    3    3    0    0 -0.19719431922E+02  0.57518314475E+02 -0.11448056681E+02  0.61873019139E+02  0.51100000000E-03 0.  1.
         23    2    1    0    0    0 -0.41139414371E+01  0.27234271014E+02 -0.93387354913E+01  0.96006636846E+02  0.91495531618E+02 0.  0.
         11    1    3    3    0    0  0.15605490485E+02 -0.30284043461E+02  0.21093211894E+01  0.34133617707E+02  0.51100000000E-03 0. -1.
         22    1    1    0    0    0  0.41139414371E+01 -0.27234271014E+02  0.93387354913E+01  0.29083363154E+02  0.00000000000E+00 0.  1.
</event>
<event>
 5    1  0.1047411E-009  0.9118800E+02  0.7815553E-02  0.1125453E+00
         25   -1    0    0    0    0  0.00000000000E+00  0.00000000000E+00  0.99999998245E-14  0.12509000000E+03  0.12509000000E+03 0.  0.
        -11    1    3    3    0    0  0.12799986865E+02  0.42846842345E+02 -0.29133936644E+02  0.53371132903E+02  0.51100000000E-03 0.  1.
         23    2    1    0    0    0 -0.52666703757E+01  0.56573563233E+01 -0.29372565018E+02  0.94717461859E+02  0.89715698224E+02 0.  0.
         11    1    3    3    0    0 -0.18066657241E+02 -0.37189486022E+02 -0.23862837361E+00  0.41346328956E+02  0.51100000000E-03 0. -1.
         22    1    1    0    0    0  0.52666703757E+01 -0.56573563233E+01  0.29372565018E+02  0.30372538141E+02  0.00000000000E+00 0.  1.
</event>
<event>
 5    1  0.1047411E-009  0.9118800E+02  0.7815553E-02  0.1125453E+00
         25   -1    0    0    0    0  0.00000000000E+00  0.00000000000E+00  0.99999998245E-14  0.12509000000E+03  0.12509000000E+03 0.  0.
        -11    1    3    3    0    0  0.28867520399E+02 -0.14697918016E+01 -0.10338011342E+02  0.30698021120E+02  0.51100000000E-03 0. -1.
         23    2    1    0    0    0 -0.91279118824E+01  0.32580186692E+02  0.15484139536E+02  0.87880513073E+02  0.79614311908E+02 0.  0.
         11    1    3    3    0    0 -0.37995432282E+02  0.34049978493E+02  0.25822150878E+02  0.57182491953E+02  0.51100000000E-03 0.  1.
         22    1    1    0    0    0  0.91279118824E+01 -0.32580186692E+02 -0.15484139536E+02  0.37209486927E+02  0.00000000000E+00 0.  1.
</event>
<event>
 5    1  0.1047411E-009  0.9118800E+02  0.7815553E-02  0.1125453E+00
         25   -1    0    0    0    0  0.00000000000E+00  0.00000000000E+00  0.99999998245E-14  0.12509000000E+03  0.12509000000E+03 0.  0.
        -11    1    3    3    0    0 -0.41043174214E+02 -0.76076182623E+01  0.36851073301E+02  0.55681411700E+02  0.51100000000E-03 0. -1.
         23    2    1    0    0    0 -0.44012327180E+01 -0.16883356160E+02  0.23612873553E+02  0.95730395744E+02  0.91117080216E+02 0.  0.
         11    1    3    3    0    0  0.36641941496E+02 -0.92757378978E+01 -0.13238199748E+02  0.40048984044E+02  0.51100000000E-03 0.  1.
         22    1    1    0    0    0  0.44012327180E+01  0.16883356160E+02 -0.23612873553E+02  0.29359604256E+02  0.00000000000E+00 0. -1.
</event>
<event>
 5    1  0.1047411E-009  0.9118800E+02  0.7815553E-02  0.1125453E+00
         25   -1    0    0    0    0  0.00000000000E+00  0.00000000000E+00  0.99999998245E-14  0.12509000000E+03  0.12509000000E+03 0.  0.
        -11    1    3    3    0    0 -0.21627709538E+02 -0.62114525593E+01  0.30734087871E+02  0.38090997890E+02  0.51100000000E-03 0.  1.
         23    2    1    0    0    0 -0.14732901929E+02  0.63365141516E+01 -0.24863651127E+02  0.95502655439E+02  0.90803888891E+02 0.  0.
         11    1    3    3    0    0  0.68948076094E+01  0.12547966711E+02 -0.55597738998E+02  0.57411657549E+02  0.51100000000E-03 0. -1.
         22    1    1    0    0    0  0.14732901929E+02 -0.63365141516E+01  0.24863651127E+02  0.29587344561E+02  0.00000000000E+00 0. -1.
</event>
<event>
 5    1  0.1047411E-009  0.9118800E+02  0.7815553E-02  0.1125453E+00
         25   -1    0    0    0    0  0.00000000000E+00  0.00000000000E+00  0.99999998245E-14  0.12509000000E+03  0.12509000000E+03 0.  0.
        -11    1    3    3    0    0  0.42992890697E+02 -0.13818879529E+02 -0.14717101653E+02  0.47496770030E+02  0.51100000000E-03 0.  1.
         23    2    1    0    0    0  0.11595476074E+02  0.21054292448E+02 -0.18765725054E+02  0.94595890197E+02  0.89546031232E+02 0.  0.
         11    1    3    3    0    0 -0.31397414623E+02  0.34873171977E+02 -0.40486234014E+01  0.47099120167E+02  0.51100000000E-03 0. -1.
         22    1    1    0    0    0 -0.11595476074E+02 -0.21054292448E+02  0.18765725054E+02  0.30494109803E+02  0.00000000000E+00 0. -1.
</event>
<event>
 5    1  0.1047411E-009  0.9118800E+02  0.7815553E-02  0.1125453E+00
         25   -1    0    0    0    0  0.00000000000E+00  0.00000000000E+00  0.99999998245E-14  0.12509000000E+03  0.12509000000E+03 0.  0.
        -11    1    3    3    0    0  0.12182658361E+02  0.11266078356E+02 -0.36628098584E+02  0.40211432359E+02  0.51100000000E-03 0. -1.
         23    2    1    0    0    0  0.48004934469E+01 -0.26159280700E+02  0.64208313129E+01  0.97729813985E+02  0.93821835213E+02 0.  0.
         11    1    3    3    0    0 -0.73821649146E+01 -0.37425359055E+02  0.43048929897E+02  0.57518381625E+02  0.51100000000E-03 0.  1.
         22    1    1    0    0    0 -0.48004934469E+01  0.26159280700E+02 -0.64208313129E+01  0.27360186015E+02  0.00000000000E+00 0.  1.
</event>
<event>
 5    1  0.1047411E-009  0.9118800E+02  0.7815553E-02  0.1125453E+00
         25   -1    0    0    0    0  0.00000000000E+00  0.00000000000E+00  0.99999998245E-14  0.12509000000E+03  0.12509000000E+03 0.  0.
        -11    1    3    3    0    0  0.48061892055E+02 -0.17551144024E+01 -0.91184865849E+01  0.48950716974E+02  0.51100000000E-03 0.  1.
         23    2    1    0    0    0  0.13842032183E+02  0.20657879406E+02  0.14617837168E+02  0.96245052436E+02  0.91820907850E+02 0.  0.
         11    1    3    3    0    0 -0.34219859872E+02  0.22412993809E+02  0.23736323753E+02  0.47294335461E+02  0.51100000000E-03 0. -1.
         22    1    1    0    0    0 -0.13842032183E+02 -0.20657879406E+02 -0.14617837168E+02  0.28844947564E+02  0.00000000000E+00 0. -1.
</event>
<event>
 5    1  0.1047411E-009  0.9118800E+02  0.7815553E-02  0.1125453E+00
         25   -1    0    0    0    0  0.00000000000E+00  0.00000000000E+00  0.99999998245E-14  0.12509000000E+03  0.12509000000E+03 0.  0.
        -11    1    3    3    0    0 -0.38361963275E+02 -0.14132139614E+02 -0.14448930418E+02  0.43360456488E+02  0.51100000000E-03 0.  1.
         23    2    1    0    0    0  0.14948335541E+02 -0.21755967642E+02 -0.74238919022E+01  0.97669404921E+02  0.93741258916E+02 0.  0.
         11    1    3    3    0    0  0.53310298815E+02 -0.76238280285E+01  0.70250385155E+01  0.54308948434E+02  0.51100000000E-03 0. -1.
         22    1    1    0    0    0 -0.14948335541E+02  0.21755967642E+02  0.74238919022E+01  0.27420595079E+02  0.00000000000E+00 0. -1.
</event>
<event>
 5    1  0.1047411E-009  0.9118800E+02  0.7815553E-02  0.1125453E+00
         25   -1    0    0    0    0  0.00000000000E+00  0.00000000000E+00  0.99999998245E-14  0.12509000000E+03  0.12509000000E+03 0.  0.
        -11    1    3    3    0    0 -0.30522521546E+02 -0.62880552948E+01 -0.24443915172E+01  0.31259222816E+02  0.51100000000E-03 0. -1.
         23    2    1    0    0    0  0.11013494589E+02 -0.37608607304E+02 -0.11904402844E+02  0.84133691409E+02  0.73491896265E+02 0.  0.
         11    1    3    3    0    0  0.41536016134E+02 -0.31320552009E+02 -0.94600113264E+01  0.52874468593E+02  0.51100000000E-03 0.  1.
         22    1    1    0    0    0 -0.11013494589E+02  0.37608607304E+02  0.11904402844E+02  0.40956308591E+02  0.00000000000E+00 0.  1.
</event>
<event>
 5    1  0.1047411E-009  0.9118800E+02  0.7815553E-02  0.1125453E+00
         25   -1    0    0    0    0  0.00000000000E+00  0.00000000000E+00  0.99999998245E-14  0.12509000000E+03  0.12509000000E+03 0.  0.
        -11    1    3    3    0    0  0.38253352024E+02  0.19900216299E+02 -0.14409379354E+02  0.45463917159E+02  0.51100000000E-03 0. -1.
         23    2    1    0    0    0  0.23765697758E+01 -0.12196243299E+02 -0.27125694731E+02  0.95253784605E+02  0.90460398697E+02 0.  0.
         11    1    3    3    0    0 -0.35876782249E+02 -0.32096459598E+02 -0.12716315377E+02  0.49789867445E+02  0.51100000000E-03 0.  1.
         22    1    1    0    0    0 -0.23765697758E+01  0.12196243299E+02  0.27125694731E+02  0.29836215395E+02  0.00000000000E+00 0. -1.
</event>
<event>
 5    1  0.1047411E-009  0.9118800E+02  0.7815553E-02  0.1125453E+00
         25   -1    0    0    0    0  0.00000000000E+00  0.00000000000E+00  0.99999998245E-14  0.12509000000E+03  0.12509000000E+03 0.  0.
        -11    1    3    3    0    0 -0.66762989392E+01 -0.13393004107E+02  0.39260190552E+02  0.42015569602E+02  0.51100000000E-03 0.  1.
         23    2    1    0    0    0  0.81393893200E+01 -0.21356727556E+02 -0.14283154697E+02  0.98138785213E+02  0.94365529642E+02 0.  0.
         11    1    3    3    0    0  0.14815688259E+02 -0.79637234490E+01 -0.53543345249E+02  0.56123215611E+02  0.51100000000E-03 0. -1.
         22    1    1    0    0    0 -0.81393893200E+01  0.21356727556E+02  0.14283154697E+02  0.26951214787E+02  0.00000000000E+00 0. -1.
</event>
<event>
 5    1  0.1047411E-009  0.9118800E+02  0.7815553E-02  0.1125453E+00
         25   -1    0    0    0    0  0.00000000000E+00  0.00000000000E+00  0.99999998245E-14  0.12509000000E+03  0.12509000000E+03 0.  0.
        -11    1    3    3    0    0 -0.62201196019E+01  0.33065315257E+02  0.54363298328E+01  0.34081646721E+02  0.51100000000E-03 0. -1.
         23    2    1    0    0    0  0.12268673645E+01 -0.28591421049E+02  0.39204257616E+01  0.96204981404E+02  0.91766301809E+02 0.  0.
         11    1    3    3    0    0  0.74469869663E+01 -0.61656736306E+02 -0.15159040711E+01  0.62123334683E+02  0.51100000000E-03 0.  1.
         22    1    1    0    0    0 -0.12268673645E+01  0.28591421049E+02 -0.39204257616E+01  0.28885018596E+02  0.00000000000E+00 0.  1.
</event>
<event>
 5    1  0.1047411E-009  0.9118800E+02  0.7815553E-02  0.1125453E+00
         25   -1    0    0    0    0  0.00000000000E+00  0.00000000000E+00  0.99999998245E-14  0.12509000000E+03  0.12509000000E+03 0.  0.
        -11    1    3    3    0    0 -0.22903276162E+02  0.12998429230E+02 -0.40646953011E+02  0.48432365322E+02  0.51100000000E-03 0.  1.
         23    2    1    0    0    0  0.15261836066E+02  0.20648583159E+02 -0.12085216048E+02  0.96711485707E+02  0.92454158338E+02 0.  0.
         11    1    3    3    0    0  0.38165112227E+02  0.76501539288E+01  0.28561736963E+02  0.48279120384E+02  0.51100000000E-03 0. -1.
         22    1    1    0    0    0 -0.15261836066E+02 -0.20648583159E+02  0.12085216048E+02  0.28378514293E+02  0.00000000000E+00 0.  1.
</event>
<event>
 5    1  0.1047411E-009  0.9118800E+02  0.7815553E-02  0.1125453E+00
         25   -1    0    0    0    0  0.00000000000E+00  0.00000000000E+00  0.99999998245E-14  0.12509000000E+03  0.12509000000E+03 0.  0.
        -11    1    3    3    0    0 -0.53162213999E+02 -0.79637760724E+01 -0.19496260352E+02  0.57181700697E+02  0.51100000000E-03 0.  1.
         23    2    1    0    0    0 -0.21690994646E+02 -0.19973705352E+02 -0.10539384779E+01  0.95584764185E+02  0.90916930237E+02 0.  0.
         11    1    3    3    0    0  0.31471219353E+02 -0.12009929279E+02  0.18442321874E+02  0.38403063488E+02  0.51100000000E-03 0. -1.
         22    1    1    0    0    0  0.21690994646E+02  0.19973705352E+02  0.10539384779E+01  0.29505235815E+02  0.00000000000E+00 0.  1.
</event>
<event>
 5    1  0.1047411E-009  0.9118800E+02  0.7815553E-02  0.1125453E+00
         25   -1    0    0    0    0  0.00000000000E+00  0.00000000000E+00  0.99999998245E-14  0.12509000000E+03  0.12509000000E+03 0.  0.
        -11    1    3    3    0    0 -0.12818576953E+02 -0.30330192394E+00 -0.43380893040E+02  0.45236155765E+02  0.51100000000E-03 0. -1.
         23    2    1    0    0    0 -0.34470373441E+02  0.44168719164E+01 -0.44207144456E+01  0.90057756011E+02  0.82964699112E+02 0.  0.
         11    1    3    3    0    0 -0.21651796488E+02  0.47201738403E+01  0.38960178595E+02  0.44821600246E+02  0.51100000000E-03 0.  1.
         22    1    1    0    0    0  0.34470373441E+02 -0.44168719164E+01  0.44207144456E+01  0.35032243989E+02  0.00000000000E+00 0. -1.
</event>
<event>
 5    1  0.1047411E-009  0.9118800E+02  0.7815553E-02  0.1125453E+00
         25   -1    0    0    0    0  0.00000000000E+00  0.00000000000E+00  0.99999998245E-14  0.12509000000E+03  0.12509000000E+03 0.  0.
        -11    1    3    3    0    0  0.78963612665E+01  0.32703465275E+00 -0.47095162596E+02  0.47753678530E+02  0.51100000000E-03 0.  1.
         23    2    1    0    0    0 -0.64746998366E-02 -0.27350025243E+02 -0.74540136937E+01  0.96742403226E+02  0.92495980124E+02 0.  0.
         11    1    3    3    0    0 -0.79028359664E+01 -0.27677059896E+02  0.39641148903E+02  0.48988724696E+02  0.51100000000E-03 0. -1.
         22    1    1    0    0    0  0.64746998366E-02  0.27350025243E+02  0.74540136937E+01  0.28347596774E+02  0.00000000000E+00 0. -1.
</event>
<event>
 5    1  0.1047411E-009  0.9118800E+02  0.7815553E-02  0.1125453E+00
         25   -1    0    0    0    0  0.00000000000E+00  0.00000000000E+00  0.99999998245E-14  0.12509000000E+03  0.12509000000E+03 0.  0.
        -11    1    3    3    0    0  0.44251071110E+01  0.47414380384E+02 -0.20450522555E+02  0.51825948261E+02  0.51100000000E-03 0.  1.
         23    2    1    0    0    0 -0.10077280871E+01  0.22173899544E+02  0.16872264775E+02  0.97208632467E+02  0.93124366148E+02 0.  0.
         11    1    3    3    0    0 -0.54328351982E+01 -0.25240480840E+02  0.37322787330E+02  0.45382684205E+02  0.51100000000E-03 0. -1.
         22    1    1    0    0    0  0.10077280871E+01 -0.22173899544E+02 -0.16872264775E+02  0.27881367533E+02  0.00000000000E+00 0.  1.
</event>
<event>
 5    1  0.1047411E-009  0.9118800E+02  0.7815553E-02  0.1125453E+00
         25   -1    0    0    0    0  0.00000000000E+00  0.00000000000E+00  0.99999998245E-14  0.12509000000E+03  0.12509000000E+03 0.  0.
        -11    1    3    3    0    0  0.24552019540E+02  0.14134669062E+02 -0.33345678943E+02  0.43755283538E+02  0.51100000000E-03 0.  1.
         23    2    1    0    0    0  0.14669064728E+02 -0.19176237162E+02  0.96967406024E+01  0.99072000269E+02  0.95594586286E+02 0.  0.
         11    1    3    3    0    0 -0.98829548118E+01 -0.33310906224E+02  0.43042419546E+02  0.55316716731E+02  0.51100000000E-03 0. -1.
         22    1    1    0    0    0 -0.14669064728E+02  0.19176237162E+02 -0.96967406024E+01  0.26017999731E+02  0.00000000000E+00 0.  1.
</event>
<event>
 5    1  0.1047411E-009  0.9118800E+02  0.7815553E-02  0.1125453E+00
         25   -1    0    0    0    0  0.00000000000E+00  0.00000000000E+00  0.99999998245E-14  0.12509000000E+03  0.12509000000E+03 0.  0.
        -11    1    3    3    0    0  0.30419824592E+02 -0.27937349159E+02  0.51263921988E+01  0.41618999309E+02  0.51100000000E-03 0.  1.
         23    2    1    0    0    0 -0.18984920510E+02 -0.11784270765E+02  0.19374938521E+02  0.95514934710E+02  0.90820803045E+02 0.  0.
         11    1    3    3    0    0 -0.49404745102E+02  0.16153078394E+02  0.14248546322E+02  0.53895935401E+02  0.51100000000E-03 0. -1.
         22    1    1    0    0    0  0.18984920510E+02  0.11784270765E+02 -0.19374938521E+02  0.29575065290E+02  0.00000000000E+00 0.  1.
</event>
<event>
 5    1  0.1047411E-009  0.9118800E+02  0.7815553E-02  0.1125453E+00
         25   -1    0    0    0    0  0.00000000000E+00  0.00000000000E+00  0.99999998245E-14  0.12509000000E+03  0.12509000000E+03 0.  0.
        -11    1    3    3    0    0  0.35249972197E+02 -0.28540265572E+02  0.17382078815E+02  0.48572049195E+02  0.51100000000E-03 0. -1.
         23    2    1    0    0    0 -0.66977569978E+01  0.15727985108E+00  0.24316244580E+02  0.99867699625E+02  0.96630186754E+02 0.  0.
         11    1    3    3    0    0 -0.41947729195E+02  0.28697545423E+02  0.69341657649E+01  0.51295650430E+02  0.51100000000E-03 0.  1.
         22    1    1    0    0    0  0.66977569978E+01 -0.15727985108E+00 -0.24316244580E+02  0.25222300375E+02  0.00000000000E+00 0.  1.
</event>
<event>
 5    1  0.1047411E-009  0.9118800E+02  0.7815553E-02  0.1125453E+00
         25   -1    0    0    0    0  0.00000000000E+00  0.00000000000E+00  0.99999998245E-14  0.12509000000E+03  0.12509000000E+03 0.  0.
        -11    1    3    3    0    0 -0.17404274057E+02  0.19715937482E+02 -0.25078759325E+02  0.36339663122E+02  0.51100000000E-03 0. -1.
         23    2    1    0    0    0 -0.13575519283E+02 -0.31255532832E+01  0.27759644583E+02  0.94030996885E+02  0.88753403882E+02 0.  0.
         11    1    3    3    0    0  0.38287547736E+01 -0.22841490765E+02  0.52838403908E+02  0.57691333763E+02  0.51100000000E-03 0.  1.
         22    1    1    0    0    0  0.13575519283E+02  0.31255532832E+01 -0.27759644583E+02  0.31059003115E+02  0.00000000000E+00 0.  1.
</event>
<event>
 5    1  0.1047411E-009  0.9118800E+02  0.7815553E-02  0.1125453E+00
         25   -1    0    0    0    0  0.00000000000E+00  0.00000000000E+00  0.99999998245E-14  0.12509000000E+03  0.12509000000E+03 0.  0.
        -11    1    3    3    0    0 -0.15523423373E+02 -0.10694337998E+02 -0.59469492153E+02  0.62385623630E+02  0.51100000000E-03 0.  1.
         23    2    1    0    0    0 -0.10539653613E+02 -0.52299315122E+01 -0.27887069026E+02  0.94822441447E+02  0.89861951355E+02 0.  0.
         11    1    3    3    0    0  0.49837697602E+01  0.54644064859E+01  0.31582423128E+02  0.32436817818E+02  0.51100000000E-03 0. -1.
         22    1    1    0    0    0  0.10539653613E+02  0.52299315122E+01  0.27887069026E+02  0.30267558553E+02  0.00000000000E+00 0.  1.
</event>
<event>
 5    1  0.1047411E-009  0.9118800E+02  0.7815553E-02  0.1125453E+00
         25   -1    0    0    0    0  0.00000000000E+00  0.00000000000E+00  0.99999998245E-14  0.12509000000E+03  0.12509000000E+03 0.  0.
        -11    1    3    3    0    0  0.52687816473E+01 -0.34465130918E+02  0.16774811668E+02  0.38691079282E+02  0.51100000000E-03 0.  1.
         23    2    1    0    0    0 -0.30458903071E+02  0.31573802903E+01 -0.32303349135E+01  0.94297973593E+02  0.89128889444E+02 0.  0.
         11    1    3    3    0    0 -0.35727684718E+02  0.37622511208E+02 -0.20005146582E+02  0.55606894311E+02  0.51100000000E-03 0. -1.
         22    1    1    0    0    0  0.30458903071E+02 -0.31573802903E+01  0.32303349135E+01  0.30792026407E+02  0.00000000000E+00 0. -1.
</event>
<event>
 5    1  0.1047411E-009  0.9118800E+02  0.7815553E-02  0.1125453E+00
         25   -1    0    0    0    0  0.00000000000E+00  0.00000000000E+00  0.99999998245E-14  0.12509000000E+03  0.12509000000E+03 0.  0.
        -11    1    3    3    0    0  0.10122787483E+02  0.11885656685E+02 -0.43136736347E+02  0.45875022444E+02  0.51100000000E-03 0. -1.
         23    2    1    0    0    0 -0.23077405625E+02  0.72079333512E+01 -0.38367173824E+02  0.79740678276E+02  0.65589746082E+02 0.  0.
         11    1    3    3    0    0 -0.33200193108E+02 -0.46777233335E+01  0.47695625231E+01  0.33865655832E+02  0.51100000000E-03 0.  1.
         22    1    1    0    0    0  0.23077405625E+02 -0.72079333512E+01  0.38367173824E+02  0.45349321724E+02  0.00000000000E+00 0. -1.
</event>
<event>
 5    1  0.1047411E-009  0.9118800E+02  0.7815553E-02  0.1125453E+00
         25   -1    0    0    0    0  0.00000000000E+00  0.00000000000E+00  0.99999998245E-14  0.12509000000E+03  0.12509000000E+03 0.  0.
        -11    1    3    3    0    0 -0.38169627714E+02 -0.97816106638E+01  0.13747624298E+01  0.39427025744E+02  0.51100000000E-03 0.  1.
         23    2    1    0    0    0  0.17721219056E+02 -0.20882820021E+02  0.73781102496E+01  0.96725051776E+02  0.92472511340E+02 0.  0.
         11    1    3    3    0    0  0.55890846770E+02 -0.11101209357E+02  0.60033478197E+01  0.57298026032E+02  0.51100000000E-03 0. -1.
         22    1    1    0    0    0 -0.17721219056E+02  0.20882820021E+02 -0.73781102496E+01  0.28364948224E+02  0.00000000000E+00 0. -1.
</event>
<event>
 5    1  0.1047411E-009  0.9118800E+02  0.7815553E-02  0.1125453E+00
         25   -1    0    0    0    0  0.00000000000E+00  0.00000000000E+00  0.99999998245E-14  0.12509000000E+03  0.12509000000E+03 0.  0.
        -11    1    3    3    0    0 -0.60403336797E+01  0.19522325341E+02 -0.31688237699E+02  0.37706116565E+02  0.51100000000E-03 0.  1.
         23    2    1    0    0    0  0.25483820103E+02  0.15269927916E+01  0.13932743926E+02  0.96006015622E+02  0.91494682295E+02 0.  0.
         11    1    3    3    0    0  0.31524153783E+02 -0.17995332549E+02  0.45620981625E+02  0.58299899056E+02  0.51100000000E-03 0. -1.
         22    1    1    0    0    0 -0.25483820103E+02 -0.15269927916E+01 -0.13932743926E+02  0.29083984378E+02  0.00000000000E+00 0. -1.
</event>
<event>
 5    1  0.1047411E-009  0.9118800E+02  0.7815553E-02  0.1125453E+00
         25   -1    0    0    0    0  0.00000000000E+00  0.00000000000E+00  0.99999998245E-14  0.12509000000E+03  0.12509000000E+03 0.  0.
        -11    1    3    3    0    0 -0.31414881578E+02 -0.44054636744E+02  0.17557399629E+02  0.56885570097E+02  0.51100000000E-03 0.  1.
         23    2    1    0    0    0  0.14711221686E+01 -0.28811445727E+02  0.25092830609E+01  0.96132097679E+02  0.91666897501E+02 0.  0.
         11    1    3    3    0    0  0.32886003746E+02  0.15243191017E+02 -0.15048116569E+02  0.39246527583E+02  0.51100000000E-03 0. -1.
         22    1    1    0    0    0 -0.14711221686E+01  0.28811445727E+02 -0.25092830609E+01  0.28957902321E+02  0.00000000000E+00 0.  1.
</event>
<event>
 5    1  0.1047411E-009  0.9118800E+02  0.7815553E-02  0.1125453E+00
         25   -1    0    0    0    0  0.00000000000E+00  0.00000000000E+00  0.99999998245E-14  0.12509000000E+03  0.12509000000E+03 0.  0.
        -11    1    3    3    0    0 -0.44217238904E+02  0.19306186964E+02  0.33878457214E+02  0.58954583663E+02  0.51100000000E-03 0. -1.
         23    2    1    0    0    0 -0.15451961348E+02  0.21736931246E+02  0.93716155307E+01  0.96821917873E+02  0.92603451952E+02 0.  0.
         11    1    3    3    0    0  0.28765277556E+02  0.24307442819E+01 -0.24506841684E+02  0.37867334210E+02  0.51100000000E-03 0.  1.
         22    1    1    0    0    0  0.15451961348E+02 -0.21736931246E+02 -0.93716155307E+01  0.28268082127E+02  0.00000000000E+00 0. -1.
</event>
<event>
 5    1  0.1047411E-009  0.9118800E+02  0.7815553E-02  0.1125453E+00
         25   -1    0    0    0    0  0.00000000000E+00  0.00000000000E+00  0.99999998245E-14  0.12509000000E+03  0.12509000000E+03 0.  0.
        -11    1    3    3    0    0  0.28969304619E+02  0.18824499865E+02  0.39498800517E+02  0.52476067382E+02  0.51100000000E-03 0.  1.
         23    2    1    0    0    0  0.32836048339E+01 -0.12471470294E+02  0.27520229609E+02  0.94697851841E+02  0.89688351939E+02 0.  0.
         11    1    3    3    0    0 -0.25685699785E+02 -0.31295970159E+02 -0.11978570908E+02  0.42221784459E+02  0.51100000000E-03 0. -1.
         22    1    1    0    0    0 -0.32836048339E+01  0.12471470294E+02 -0.27520229609E+02  0.30392148159E+02  0.00000000000E+00 0. -1.
</event>
<event>
 5    1  0.1047411E-009  0.9118800E+02  0.7815553E-02  0.1125453E+00
         25   -1    0    0    0    0  0.00000000000E+00  0.00000000000E+00  0.99999998245E-14  0.12509000000E+03  0.12509000000E+03 0.  0.
        -11    1    3    3    0    0  0.19444695060E+02 -0.70267252311E+01  0.33157343392E+02  0.39075317715E+02  0.51100000000E-03 0.  1.
         23    2    1    0    0    0 -0.22852362268E+02  0.16316005005E+02  0.12279702581E+01  0.96983943864E+02  0.92822060826E+02 0.  0.
         11    1    3    3    0    0 -0.42297057329E+02  0.23342730236E+02 -0.31929373134E+02  0.57908626149E+02  0.51100000000E-03 0. -1.
         22    1    1    0    0    0  0.22852362268E+02 -0.16316005005E+02 -0.12279702581E+01  0.28106056136E+02  0.00000000000E+00 0. -1.
</event>
<event>
 5    1  0.1047411E-009  0.9118800E+02  0.7815553E-02  0.1125453E+00
         25   -1    0    0    0    0  0.00000000000E+00  0.00000000000E+00  0.99999998245E-14  0.12509000000E+03  0.12509000000E+03 0.  0.
        -11    1    3    3    0    0  0.69020385133E+01  0.27140074415E+02 -0.54707934748E+02  0.61458765847E+02  0.51100000000E-03 0.  1.
         23    2    1    0    0    0  0.86159225712E+01  0.17631859365E+02 -0.21788344060E+02  0.95766826173E+02  0.91167079979E+02 0.  0.
         11    1    3    3    0    0  0.17138840579E+01 -0.95082150494E+01  0.32919590687E+02  0.34308060325E+02  0.51100000000E-03 0. -1.
         22    1    1    0    0    0 -0.86159225712E+01 -0.17631859365E+02  0.21788344060E+02  0.29323173827E+02  0.00000000000E+00 0.  1.
</event>
<event>
 5    1  0.1047411E-009  0.9118800E+02  0.7815553E-02  0.1125453E+00
         25   -1    0    0    0    0  0.00000000000E+00  0.00000000000E+00  0.99999998245E-14  0.12509000000E+03  0.12509000000E+03 0.  0.
        -11    1    3    3    0    0 -0.26324418479E+02 -0.32729350360E+02  0.10456600649E+02  0.43284245178E+02  0.51100000000E-03 0.  1.
         23    2    1    0    0    0  0.12684890912E+02 -0.15567648711E+02 -0.20832699382E+02  0.96154563121E+02  0.91697549049E+02 0.  0.
         11    1    3    3    0    0  0.39009309391E+02  0.17161701649E+02 -0.31289300031E+02  0.52870317943E+02  0.51100000000E-03 0. -1.
         22    1    1    0    0    0 -0.12684890912E+02  0.15567648711E+02  0.20832699382E+02  0.28935436879E+02  0.00000000000E+00 0.  1.
</event>
<event>
 5    1  0.1047411E-009  0.9118800E+02  0.7815553E-02  0.1125453E+00
         25   -1    0    0    0    0  0.00000000000E+00  0.00000000000E+00  0.99999998245E-14  0.12509000000E+03  0.12509000000E+03 0.  0.
        -11    1    3    3    0    0  0.28490723301E+02  0.18850879515E+02 -0.48479204629E+02  0.59306915739E+02  0.51100000000E-03 0. -1.
         23    2    1    0    0    0  0.17387850828E+02 -0.48436203197E+01 -0.23255718820E+02  0.95651479792E+02  0.91008676039E+02 0.  0.
         11    1    3    3    0    0 -0.11102872473E+02 -0.23694499835E+02  0.25223485809E+02  0.36344564053E+02  0.51100000000E-03 0.  1.
         22    1    1    0    0    0 -0.17387850828E+02  0.48436203197E+01  0.23255718820E+02  0.29438520208E+02  0.00000000000E+00 0. -1.
</event>
<event>
 5    1  0.1047411E-009  0.9118800E+02  0.7815553E-02  0.1125453E+00
         25   -1    0    0    0    0  0.00000000000E+00  0.00000000000E+00  0.99999998245E-14  0.12509000000E+03  0.12509000000E+03 0.  0.
        -11    1    3    3    0    0 -0.12198763087E+02 -0.20756709952E+02 -0.29357828401E+02  0.37967524512E+02  0.51100000000E-03 0.  1.
         23    2    1    0    0    0  0.23258464752E+02  0.17538251723E+02 -0.51072533957E+01  0.95515847546E+02  0.90822060311E+02 0.  0.
         11    1    3    3    0    0  0.35457227838E+02  0.38294961675E+02  0.24250575006E+02  0.57548323034E+02  0.51100000000E-03 0. -1.
         22    1    1    0    0    0 -0.23258464752E+02 -0.17538251723E+02  0.51072533957E+01  0.29574152454E+02  0.00000000000E+00 0. -1.
</event>
<event>
 5    1  0.1047411E-009  0.9118800E+02  0.7815553E-02  0.1125453E+00
         25   -1    0    0    0    0  0.00000000000E+00  0.00000000000E+00  0.99999998245E-14  0.12509000000E+03  0.12509000000E+03 0.  0.
        -11    1    3    3    0    0  0.42192666089E+02 -0.48406660831E+01  0.43477212007E+02  0.60777636380E+02  0.51100000000E-03 0.  1.
         23    2    1    0    0    0  0.12489321795E+02 -0.80382278660E+01  0.25313352027E+02  0.95741029712E+02  0.91131677881E+02 0.  0.
         11    1    3    3    0    0 -0.29703344294E+02 -0.31975617830E+01 -0.18163859980E+02  0.34963393331E+02  0.51100000000E-03 0. -1.
         22    1    1    0    0    0 -0.12489321795E+02  0.80382278660E+01 -0.25313352027E+02  0.29348970288E+02  0.00000000000E+00 0.  1.
</event>
<event>
 5    1  0.1047411E-009  0.9118800E+02  0.7815553E-02  0.1125453E+00
         25   -1    0    0    0    0  0.00000000000E+00  0.00000000000E+00  0.99999998245E-14  0.12509000000E+03  0.12509000000E+03 0.  0.
        -11    1    3    3    0    0 -0.17269757887E+02 -0.49399907524E+02  0.10904525239E+02  0.53455627129E+02  0.51100000000E-03 0.  1.
         23    2    1    0    0    0 -0.11974995573E+02 -0.21963753492E+02 -0.18467542283E+02  0.93995674080E+02  0.88703605572E+02 0.  0.
         11    1    3    3    0    0  0.52947623140E+01  0.27436154032E+02 -0.29372067522E+02  0.40540046951E+02  0.51100000000E-03 0. -1.
         22    1    1    0    0    0  0.11974995573E+02  0.21963753492E+02  0.18467542283E+02  0.31094325920E+02  0.00000000000E+00 0.  1.
</event>
<event>
 5    1  0.1047411E-009  0.9118800E+02  0.7815553E-02  0.1125453E+00
         25   -1    0    0    0    0  0.00000000000E+00  0.00000000000E+00  0.99999998245E-14  0.12509000000E+03  0.12509000000E+03 0.  0.
        -11    1    3    3    0    0  0.12410058297E+02  0.36071014621E+02 -0.31548105062E+02  0.49501621953E+02  0.51100000000E-03 0. -1.
         23    2    1    0    0    0  0.22390523198E+02  0.16833411298E+02  0.91587820596E+01  0.95618275351E+02  0.90963025605E+02 0.  0.
         11    1    3    3    0    0  0.99804649007E+01 -0.19237603323E+02  0.40706887121E+02  0.46116653398E+02  0.51100000000E-03 0.  1.
         22    1    1    0    0    0 -0.22390523198E+02 -0.16833411298E+02 -0.91587820596E+01  0.29471724649E+02  0.00000000000E+00 0. -1.
</event>
<event>
 5    1  0.1047411E-009  0.9118800E+02  0.7815553E-02  0.1125453E+00
         25   -1    0    0    0    0  0.00000000000E+00  0.00000000000E+00  0.99999998245E-14  0.12509000000E+03  0.12509000000E+03 0.  0.
        -11    1    3    3    0    0  0.73301716453E+01 -0.33621702425E+02 -0.12803693483E+02  0.36716275102E+02  0.51100000000E-03 0. -1.
         23    2    1    0    0    0 -0.21993503048E+02  0.17758346023E+02 -0.33899179959E+01  0.96619584236E+02  0.92329732395E+02 0.  0.
         11    1    3    3    0    0 -0.29323674693E+02  0.51380048448E+02  0.94137754870E+01  0.59903309134E+02  0.51100000000E-03 0.  1.
         22    1    1    0    0    0  0.21993503048E+02 -0.17758346023E+02  0.33899179959E+01  0.28470415764E+02  0.00000000000E+00 0.  1.
</event>
<event>
 5    1  0.1047411E-009  0.9118800E+02  0.7815553E-02  0.1125453E+00
         25   -1    0    0    0    0  0.00000000000E+00  0.00000000000E+00  0.99999998245E-14  0.12509000000E+03  0.12509000000E+03 0.  0.
        -11    1    3    3    0    0 -0.18291291887E+02  0.32664036547E+00 -0.36095413482E+02  0.40466738534E+02  0.51100000000E-03 0.  1.
         23    2    1    0    0    0 -0.22811652453E+02  0.63106629713E+00  0.18784174895E+02  0.95533021825E+02  0.90845711513E+02 0.  0.
         11    1    3    3    0    0 -0.45203605660E+01  0.30442593166E+00  0.54879588378E+02  0.55066283292E+02  0.51100000000E-03 0. -1.
         22    1    1    0    0    0  0.22811652453E+02 -0.63106629713E+00 -0.18784174895E+02  0.29556978175E+02  0.00000000000E+00 0. -1.
</event>
<event>
 5    1  0.1047411E-009  0.9118800E+02  0.7815553E-02  0.1125453E+00
         25   -1    0    0    0    0  0.00000000000E+00  0.00000000000E+00  0.99999998245E-14  0.12509000000E+03  0.12509000000E+03 0.  0.
        -11    1    3    3    0    0  0.35833006440E+02  0.67898919092E+01  0.18466766156E+02  0.40879437805E+02  0.51100000000E-03 0. -1.
         23    2    1    0    0    0 -0.12726109014E+02 -0.19355213452E+02  0.17534642519E+02  0.96037602049E+02  0.91537856544E+02 0.  0.
         11    1    3    3    0    0 -0.48559115455E+02 -0.26145105361E+02 -0.93212363726E+00  0.55158164244E+02  0.51100000000E-03 0.  1.
         22    1    1    0    0    0  0.12726109014E+02  0.19355213452E+02 -0.17534642519E+02  0.29052397951E+02  0.00000000000E+00 0.  1.
</event>
<event>
 5    1  0.1047411E-009  0.9118800E+02  0.7815553E-02  0.1125453E+00
         25   -1    0    0    0    0  0.00000000000E+00  0.00000000000E+00  0.99999998245E-14  0.12509000000E+03  0.12509000000E+03 0.  0.
        -11    1    3    3    0    0  0.35097040516E+02 -0.16092819766E+02 -0.25237563775E+02  0.46127169071E+02  0.51100000000E-03 0. -1.
         23    2    1    0    0    0  0.27516291140E+01  0.21605327933E+02 -0.18995146949E+02  0.96190566347E+02  0.91746650013E+02 0.  0.
         11    1    3    3    0    0 -0.32345411402E+02  0.37698147698E+02  0.62424168258E+01  0.50063397275E+02  0.51100000000E-03 0.  1.
         22    1    1    0    0    0 -0.27516291140E+01 -0.21605327933E+02  0.18995146949E+02  0.28899433653E+02  0.00000000000E+00 0.  1.
</event>
<event>
 5    1  0.1047411E-009  0.9118800E+02  0.7815553E-02  0.1125453E+00
         25   -1    0    0    0    0  0.00000000000E+00  0.00000000000E+00  0.99999998245E-14  0.12509000000E+03  0.12509000000E+03 0.  0.
        -11    1    3    3    0    0  0.26545402619E+02  0.15877080069E+02  0.18425029054E+02  0.36003079974E+02  0.51100000000E-03 0.  1.
         23    2    1    0    0    0 -0.26364781322E+02 -0.84396589573E+01  0.13063219257E+02  0.94479916125E+02  0.89383876153E+02 0.  0.
         11    1    3    3    0    0 -0.52910183942E+02 -0.24316739026E+02 -0.53618097972E+01  0.58476836150E+02  0.51100000000E-03 0. -1.
         22    1    1    0    0    0  0.26364781322E+02  0.84396589573E+01 -0.13063219257E+02  0.30610083875E+02  0.00000000000E+00 0. -1.
</event>
<event>
 5    1  0.1047411E-009  0.9118800E+02  0.7815553E-02  0.1125453E+00
         25   -1    0    0    0    0  0.00000000000E+00  0.00000000000E+00  0.99999998245E-14  0.12509000000E+03  0.12509000000E+03 0.  0.
        -11    1    3    3    0    0 -0.11359484470E+02  0.23915473650E+02  0.46562937951E+02  0.53563933371E+02  0.51100000000E-03 0.  1.
         23    2    1    0    0    0 -0.59473328101E+01 -0.12168064181E+02  0.26806196604E+02  0.95056606422E+02  0.90187325576E+02 0.  0.
         11    1    3    3    0    0  0.54121516598E+01 -0.36083537830E+02 -0.19756741347E+02  0.41492673050E+02  0.51100000000E-03 0. -1.
         22    1    1    0    0    0  0.59473328101E+01  0.12168064181E+02 -0.26806196604E+02  0.30033393578E+02  0.00000000000E+00 0.  1.
</event>
<event>
 5    1  0.1047411E-009  0.9118800E+02  0.7815553E-02  0.1125453E+00
         25   -1    0    0    0    0  0.00000000000E+00  0.00000000000E+00  0.99999998245E-14  0.12509000000E+03  0.12509000000E+03 0.  0.
        -11    1    3    3    0    0  0.93946850224E+01 -0.39847939318E+02 -0.26867713295E+02  0.48969300511E+02  0.51100000000E-03 0.  1.
         23    2    1    0    0    0 -0.22702075823E+02 -0.39200811613E+01 -0.82129452708E+01  0.10063179579E+03  0.97614315403E+02 0.  0.
         11    1    3    3    0    0 -0.32096760846E+02  0.35927858156E+02  0.18654768025E+02  0.51662495282E+02  0.51100000000E-03 0. -1.
         22    1    1    0    0    0  0.22702075823E+02  0.39200811613E+01  0.82129452708E+01  0.24458204207E+02  0.00000000000E+00 0.  1.
</event>
<event>
 5    1  0.1047411E-009  0.9118800E+02  0.7815553E-02  0.1125453E+00
         25   -1    0    0    0    0  0.00000000000E+00  0.00000000000E+00  0.99999998245E-14  0.12509000000E+03  0.12509000000E+03 0.  0.
        -11    1    3    3    0    0  0.42648087787E+02  0.26720936335E+02  0.10042770823E+02  0.51319831221E+02  0.51100000000E-03 0. -1.
         23    2    1    0    0    0  0.64938417857E+01  0.81320778552E+01  0.27593222841E+02  0.95599550391E+02  0.90937271880E+02 0.  0.
         11    1    3    3    0    0 -0.36154246001E+02 -0.18588858480E+02  0.17550452018E+02  0.44279719170E+02  0.51100000000E-03 0.  1.
         22    1    1    0    0    0 -0.64938417857E+01 -0.81320778552E+01 -0.27593222841E+02  0.29490449609E+02  0.00000000000E+00 0. -1.
</event>
<event>
 5    1  0.1047411E-009  0.9118800E+02  0.7815553E-02  0.1125453E+00
         25   -1    0    0    0    0  0.00000000000E+00  0.00000000000E+00  0.99999998245E-14  0.12509000000E+03  0.12509000000E+03 0.  0.
        -11    1    3    3    0    0 -0.37544578972E+02 -0.11590951740E+02  0.29604932335E+02  0.49197536435E+02  0.51100000000E-03 0. -1.
         23    2    1    0    0    0 -0.80111970599E+01 -0.28775221158E+02 -0.11911713162E+01  0.95196664286E+02  0.90381377346E+02 0.  0.
         11    1    3    3    0    0  0.29533381913E+02 -0.17184269418E+02 -0.30796103651E+02  0.45999127850E+02  0.51100000000E-03 0.  1.
         22    1    1    0    0    0  0.80111970599E+01  0.28775221158E+02  0.11911713162E+01  0.29893335714E+02  0.00000000000E+00 0.  1.
</event>
<event>
 5    1  0.1047411E-009  0.9118800E+02  0.7815553E-02  0.1125453E+00
         25   -1    0    0    0    0  0.00000000000E+00  0.00000000000E+00  0.99999998245E-14  0.12509000000E+03  0.12509000000E+03 0.  0.
        -11    1    3    3    0    0 -0.18300918872E+02  0.11434837178E+02  0.54114609276E+02  0.58258648029E+02  0.51100000000E-03 0.  1.
         23    2    1    0    0    0  0.34069880812E+00  0.18863646303E+02  0.22224117987E+02  0.95937561889E+02  0.91401045581E+02 0.  0.
         11    1    3    3    0    0  0.18641617680E+02  0.74288091245E+01 -0.31890491289E+02  0.37678913860E+02  0.51100000000E-03 0. -1.
         22    1    1    0    0    0 -0.34069880812E+00 -0.18863646303E+02 -0.22224117987E+02  0.29152438111E+02  0.00000000000E+00 0.  1.
</event>
<event>
 5    1  0.1047411E-009  0.9118800E+02  0.7815553E-02  0.1125453E+00
         25   -1    0    0    0    0  0.00000000000E+00  0.00000000000E+00  0.99999998245E-14  0.12509000000E+03  0.12509000000E+03 0.  0.
        -11    1    3    3    0    0 -0.13137851184E+02 -0.19077841175E+02 -0.37128994061E+02  0.43762190964E+02  0.51100000000E-03 0.  1.
         23    2    1    0    0    0  0.24773470825E+02 -0.17309904239E+02 -0.31473815272E+01  0.94704746143E+02  0.89697967034E+02 0.  0.
         11    1    3    3    0    0  0.37911322010E+02  0.17679369366E+01  0.33981612534E+02  0.50942555179E+02  0.51100000000E-03 0. -1.
         22    1    1    0    0    0 -0.24773470825E+02  0.17309904239E+02  0.31473815272E+01  0.30385253857E+02  0.00000000000E+00 0. -1.
</event>
<event>
 5    1  0.1047411E-009  0.9118800E+02  0.7815553E-02  0.1125453E+00
         25   -1    0    0    0    0  0.00000000000E+00  0.00000000000E+00  0.99999998245E-14  0.12509000000E+03  0.12509000000E+03 0.  0.
        -11    1    3    3    0    0  0.11456447751E+02  0.57155721684E+02  0.19692954915E+02  0.61529173486E+02  0.51100000000E-03 0.  1.
         23    2    1    0    0    0 -0.21920525413E+01  0.26383330750E+02  0.11797847444E+02  0.96105962322E+02  0.91631225866E+02 0.  0.
         11    1    3    3    0    0 -0.13648500292E+02 -0.30772390933E+02 -0.78951074715E+01  0.34576788836E+02  0.51100000000E-03 0. -1.
         22    1    1    0    0    0  0.21920525413E+01 -0.26383330750E+02 -0.11797847444E+02  0.28984037678E+02  0.00000000000E+00 0.  1.
</event>
<event>
 5    1  0.1047411E-009  0.9118800E+02  0.7815553E-02  0.1125453E+00
         25   -1    0    0    0    0  0.00000000000E+00  0.00000000000E+00  0.99999998245E-14  0.12509000000E+03  0.12509000000E+03 0.  0.
        -11    1    3    3    0    0  0.46929838568E+02  0.35086254769E+02  0.66980841276E+01  0.58977278277E+02  0.51100000000E-03 0.  1.
         23    2    1    0    0    0  0.18784328579E+02  0.25865535169E+02  0.15061212587E+02  0.89752809473E+02  0.82503634914E+02 0.  0.
         11    1    3    3    0    0 -0.28145509989E+02 -0.92207195993E+01  0.83631284590E+01  0.30775531196E+02  0.51100000000E-03 0. -1.
         22    1    1    0    0    0 -0.18784328579E+02 -0.25865535169E+02 -0.15061212587E+02  0.35337190527E+02  0.00000000000E+00 0.  1.
</event>
<event>
 5    1  0.1047411E-009  0.9118800E+02  0.7815553E-02  0.1125453E+00
         25   -1    0    0    0    0  0.00000000000E+00  0.00000000000E+00  0.99999998245E-14  0.12509000000E+03  0.12509000000E+03 0.  0.
        -11    1    3    3    0    0 -0.25602253979E+02  0.22334091898E+02 -0.96906145365E+01  0.35329804416E+02  0.51100000000E-03 0. -1.
         23    2    1    0    0    0  0.26360186692E+02 -0.63183844073E-02  0.12281734372E+02  0.96009070140E+02  0.91498858286E+02 0.  0.
         11    1    3    3    0    0  0.51962440671E+02 -0.22340410282E+02  0.21972348908E+02  0.60679265724E+02  0.51100000000E-03 0.  1.
         22    1    1    0    0    0 -0.26360186692E+02  0.63183844073E-02 -0.12281734372E+02  0.29080929860E+02  0.00000000000E+00 0.  1.
</event>
<event>
 5    1  0.1047411E-009  0.9118800E+02  0.7815553E-02  0.1125453E+00
         25   -1    0    0    0    0  0.00000000000E+00  0.00000000000E+00  0.99999998245E-14  0.12509000000E+03  0.12509000000E+03 0.  0.
        -11    1    3    3    0    0 -0.13368527847E+02  0.33478558558E+02  0.27534869737E+02  0.45361883466E+02  0.51100000000E-03 0.  1.
         23    2    1    0    0    0  0.21184883731E+02 -0.16372350817E+01  0.21272395255E+02  0.95023496424E+02  0.90141390245E+02 0.  0.
         11    1    3    3    0    0  0.34553411578E+02 -0.35115793640E+02 -0.62624744815E+01  0.49661612957E+02  0.51100000000E-03 0. -1.
         22    1    1    0    0    0 -0.21184883731E+02  0.16372350817E+01 -0.21272395255E+02  0.30066503576E+02  0.00000000000E+00 0. -1.
</event>
<event>
 5    1  0.1047411E-009  0.9118800E+02  0.7815553E-02  0.1125453E+00
         25   -1    0    0    0    0  0.00000000000E+00  0.00000000000E+00  0.99999998245E-14  0.12509000000E+03  0.12509000000E+03 0.  0.
        -11    1    3    3    0    0  0.52874809570E+02  0.28546640043E+02 -0.12704312176E+01  0.60102164192E+02  0.51100000000E-03 0. -1.
         23    2    1    0    0    0  0.28905446698E+02  0.27479790400E+01 -0.53926907358E+01  0.95557689711E+02  0.90879671610E+02 0.  0.
         11    1    3    3    0    0 -0.23969362872E+02 -0.25798661003E+02 -0.41222595182E+01  0.35455525519E+02  0.51100000000E-03 0.  1.
         22    1    1    0    0    0 -0.28905446698E+02 -0.27479790400E+01  0.53926907358E+01  0.29532310289E+02  0.00000000000E+00 0. -1.
</event>
<event>
 5    1  0.1047411E-009  0.9118800E+02  0.7815553E-02  0.1125453E+00
         25   -1    0    0    0    0  0.00000000000E+00  0.00000000000E+00  0.99999998245E-14  0.12509000000E+03  0.12509000000E+03 0.  0.
        -11    1    3    3    0    0  0.72374575215E+00  0.19523258648E+02  0.28926002233E+02  0.34905515919E+02  0.51100000000E-03 0.  1.
         23    2    1    0    0    0  0.22796797988E+02  0.43752690437E+01 -0.22424052109E+02  0.92815008278E+02  0.87022702043E+02 0.  0.
         11    1    3    3    0    0  0.22073052236E+02 -0.15147989604E+02 -0.51350054342E+02  0.57909492358E+02  0.51100000000E-03 0. -1.
         22    1    1    0    0    0 -0.22796797988E+02 -0.43752690437E+01  0.22424052109E+02  0.32274991722E+02  0.00000000000E+00 0. -1.
</event>
<event>
 5    1  0.1047411E-009  0.9118800E+02  0.7815553E-02  0.1125453E+00
         25   -1    0    0    0    0  0.00000000000E+00  0.00000000000E+00  0.99999998245E-14  0.12509000000E+03  0.12509000000E+03 0.  0.
        -11    1    3    3    0    0  0.12985262103E+02 -0.40768729374E+02 -0.35087492005E+02  0.55333881321E+02  0.51100000000E-03 0. -1.
         23    2    1    0    0    0  0.54525832002E+01 -0.28760254108E+02  0.27004085880E+01  0.95693144956E+02  0.91065926148E+02 0.  0.
         11    1    3    3    0    0 -0.75326789027E+01  0.12008475265E+02  0.37787900593E+02  0.40359263635E+02  0.51100000000E-03 0.  1.
         22    1    1    0    0    0 -0.54525832002E+01  0.28760254108E+02 -0.27004085880E+01  0.29396855044E+02  0.00000000000E+00 0. -1.
</event>
<event>
 5    1  0.1047411E-009  0.9118800E+02  0.7815553E-02  0.1125453E+00
         25   -1    0    0    0    0  0.00000000000E+00  0.00000000000E+00  0.99999998245E-14  0.12509000000E+03  0.12509000000E+03 0.  0.
        -11    1    3    3    0    0  0.25524676569E+02  0.18513135343E+02 -0.42426293632E+00  0.31534509564E+02  0.51100000000E-03 0.  1.
         23    2    1    0    0    0 -0.27466072954E+02 -0.13665361003E+02  0.58930756889E+01  0.93851312512E+02  0.88499792454E+02 0.  0.
         11    1    3    3    0    0 -0.52990749523E+02 -0.32178496346E+02  0.63173386253E+01  0.62316802948E+02  0.51100000000E-03 0. -1.
         22    1    1    0    0    0  0.27466072954E+02  0.13665361003E+02 -0.58930756889E+01  0.31238687488E+02  0.00000000000E+00 0. -1.
</event>
<event>
 5    1  0.1047411E-009  0.9118800E+02  0.7815553E-02  0.1125453E+00
         25   -1    0    0    0    0  0.00000000000E+00  0.00000000000E+00  0.99999998245E-14  0.12509000000E+03  0.12509000000E+03 0.  0.
        -11    1    3    3    0    0  0.16813600094E+02  0.28331993625E+02 -0.20540198530E+02  0.38823945791E+02  0.51100000000E-03 0. -1.
         23    2    1    0    0    0 -0.22190386859E+02 -0.13848029388E+02 -0.90529129163E+01  0.97410830591E+02  0.93395575363E+02 0.  0.
         11    1    3    3    0    0 -0.39003986953E+02 -0.42180023013E+02  0.11487285614E+02  0.58586884800E+02  0.51100000000E-03 0.  1.
         22    1    1    0    0    0  0.22190386859E+02  0.13848029388E+02  0.90529129163E+01  0.27679169409E+02  0.00000000000E+00 0.  1.
</event>
<event>
 5    1  0.1047411E-009  0.9118800E+02  0.7815553E-02  0.1125453E+00
         25   -1    0    0    0    0  0.00000000000E+00  0.00000000000E+00  0.99999998245E-14  0.12509000000E+03  0.12509000000E+03 0.  0.
        -11    1    3    3    0    0 -0.46877278310E+01 -0.32695701607E+02  0.91063533567E+01  0.34262360799E+02  0.51100000000E-03 0.  1.
         23    2    1    0    0    0 -0.82351341738E+01  0.27758583745E+02 -0.28706473663E+01  0.95993659634E+02  0.91477787835E+02 0.  0.
         11    1    3    3    0    0 -0.35474063428E+01  0.60454285353E+02 -0.11977000723E+02  0.61731298835E+02  0.51100000000E-03 0. -1.
         22    1    1    0    0    0  0.82351341738E+01 -0.27758583745E+02  0.28706473663E+01  0.29096340366E+02  0.00000000000E+00 0. -1.
</event>
<event>
 5    1  0.1047411E-009  0.9118800E+02  0.7815553E-02  0.1125453E+00
         25   -1    0    0    0    0  0.00000000000E+00  0.00000000000E+00  0.99999998245E-14  0.12509000000E+03  0.12509000000E+03 0.  0.
        -11    1    3    3    0    0 -0.19101400288E+02  0.28427493430E+02  0.19338123125E+02  0.39331271044E+02  0.51100000000E-03 0. -1.
         23    2    1    0    0    0  0.50261656175E+01 -0.22232164320E+02  0.18955960939E+02  0.95444428218E+02  0.90723640533E+02 0.  0.
         11    1    3    3    0    0  0.24127565906E+02 -0.50659657750E+02 -0.38216218582E+00  0.56113157174E+02  0.51100000000E-03 0.  1.
         22    1    1    0    0    0 -0.50261656175E+01  0.22232164320E+02 -0.18955960939E+02  0.29645571782E+02  0.00000000000E+00 0.  1.
</event>
<event>
 5    1  0.1047411E-009  0.9118800E+02  0.7815553E-02  0.1125453E+00
         25   -1    0    0    0    0  0.00000000000E+00  0.00000000000E+00  0.99999998245E-14  0.12509000000E+03  0.12509000000E+03 0.  0.
        -11    1    3    3    0    0 -0.54935311389E+01  0.42863342227E+02  0.42811341008E+02  0.60829728837E+02  0.51100000000E-03 0. -1.
         23    2    1    0    0    0 -0.12223876362E+02  0.21005936336E+02  0.16381435167E+02  0.95780889935E+02  0.91186374771E+02 0.  0.
         11    1    3    3    0    0 -0.67303452232E+01 -0.21857405891E+02 -0.26429905841E+02  0.34951161098E+02  0.51100000000E-03 0.  1.
         22    1    1    0    0    0  0.12223876362E+02 -0.21005936336E+02 -0.16381435167E+02  0.29309110065E+02  0.00000000000E+00 0. -1.
</event>
<event>
 5    1  0.1047411E-009  0.9118800E+02  0.7815553E-02  0.1125453E+00
         25   -1    0    0    0    0  0.00000000000E+00  0.00000000000E+00  0.99999998245E-14  0.12509000000E+03  0.12509000000E+03 0.  0.
        -11    1    3    3    0    0 -0.47003152097E+02  0.63885899692E+01  0.13339272516E+02  0.49275212637E+02  0.51100000000E-03 0. -1.
         23    2    1    0    0    0 -0.13943035593E+02  0.17892213491E+02 -0.17901851645E+02  0.96193359409E+02  0.91750458075E+02 0.  0.
         11    1    3    3    0    0  0.33060116505E+02  0.11503623521E+02 -0.31241124161E+02  0.46918146772E+02  0.51100000000E-03 0.  1.
         22    1    1    0    0    0  0.13943035593E+02 -0.17892213491E+02  0.17901851645E+02  0.28896640591E+02  0.00000000000E+00 0.  1.
</event>
<event>
 5    1  0.1047411E-009  0.9118800E+02  0.7815553E-02  0.1125453E+00
         25   -1    0    0    0    0  0.00000000000E+00  0.00000000000E+00  0.99999998245E-14  0.12509000000E+03  0.12509000000E+03 0.  0.
        -11    1    3    3    0    0 -0.21715367392E+02 -0.31249069520E+02 -0.11606615432E+02  0.39784105480E+02  0.51100000000E-03 0.  1.
         23    2    1    0    0    0  0.25620268419E+02 -0.15844153277E+02  0.89860268090E+01  0.93654605541E+02  0.88221318933E+02 0.  0.
         11    1    3    3    0    0  0.47335635811E+02  0.15404916243E+02  0.20592642241E+02  0.53870500061E+02  0.51100000000E-03 0. -1.
         22    1    1    0    0    0 -0.25620268419E+02  0.15844153277E+02 -0.89860268090E+01  0.31435394459E+02  0.00000000000E+00 0. -1.
</event>
<event>
 5    1  0.1047411E-009  0.9118800E+02  0.7815553E-02  0.1125453E+00
         25   -1    0    0    0    0  0.00000000000E+00  0.00000000000E+00  0.99999998245E-14  0.12509000000E+03  0.12509000000E+03 0.  0.
        -11    1    3    3    0    0 -0.56874423662E+02 -0.18544460089E+02 -0.34151273644E+01  0.59918779711E+02  0.51100000000E-03 0. -1.
         23    2    1    0    0    0 -0.22131412067E+02 -0.50781723574E+01 -0.13696178432E+02  0.98572599331E+02  0.94938847690E+02 0.  0.
         11    1    3    3    0    0  0.34743011595E+02  0.13466287731E+02 -0.10281051068E+02  0.38653819621E+02  0.51100000000E-03 0.  1.
         22    1    1    0    0    0  0.22131412067E+02  0.50781723574E+01  0.13696178432E+02  0.26517400669E+02  0.00000000000E+00 0. -1.
</event>
<event>
 5    1  0.1047411E-009  0.9118800E+02  0.7815553E-02  0.1125453E+00
         25   -1    0    0    0    0  0.00000000000E+00  0.00000000000E+00  0.99999998245E-14  0.12509000000E+03  0.12509000000E+03 0.  0.
        -11    1    3    3    0    0 -0.30897031643E+02  0.22282953992E+02 -0.40340111995E+02  0.55484062928E+02  0.51100000000E-03 0.  1.
         23    2    1    0    0    0 -0.17476821679E+02 -0.11050357952E+02 -0.12634580596E+02  0.10085815455E+03  0.97903958073E+02 0.  0.
         11    1    3    3    0    0  0.13420209964E+02 -0.33333311944E+02  0.27705531399E+02  0.45374091627E+02  0.51100000000E-03 0. -1.
         22    1    1    0    0    0  0.17476821679E+02  0.11050357952E+02  0.12634580596E+02  0.24231845446E+02  0.00000000000E+00 0. -1.
</event>
<event>
 5    1  0.1047411E-009  0.9118800E+02  0.7815553E-02  0.1125453E+00
         25   -1    0    0    0    0  0.00000000000E+00  0.00000000000E+00  0.99999998245E-14  0.12509000000E+03  0.12509000000E+03 0.  0.
        -11    1    3    3    0    0 -0.25798777161E+02  0.13019815556E+02  0.31317377177E+02  0.42613033377E+02  0.51100000000E-03 0. -1.
         23    2    1    0    0    0 -0.16336028307E+02 -0.21390825338E+02 -0.92365674203E+01  0.96633939008E+02  0.92349178453E+02 0.  0.
         11    1    3    3    0    0  0.94627488537E+01 -0.34410640894E+02 -0.40553944597E+02  0.54020905631E+02  0.51100000000E-03 0.  1.
         22    1    1    0    0    0  0.16336028307E+02  0.21390825338E+02  0.92365674203E+01  0.28456060992E+02  0.00000000000E+00 0. -1.
</event>
<event>
 5    1  0.1047411E-009  0.9118800E+02  0.7815553E-02  0.1125453E+00
         25   -1    0    0    0    0  0.00000000000E+00  0.00000000000E+00  0.99999998245E-14  0.12509000000E+03  0.12509000000E+03 0.  0.
        -11    1    3    3    0    0 -0.39945928739E+01 -0.41149209878E+02 -0.27325038347E+02  0.49556755006E+02  0.51100000000E-03 0.  1.
         23    2    1    0    0    0  0.25303922957E+02 -0.91514833058E+01 -0.12653501496E+02  0.95355352468E+02  0.90600739404E+02 0.  0.
         11    1    3    3    0    0  0.29298515831E+02  0.31997726572E+02  0.14671536851E+02  0.45798597462E+02  0.51100000000E-03 0. -1.
         22    1    1    0    0    0 -0.25303922957E+02  0.91514833058E+01  0.12653501496E+02  0.29734647532E+02  0.00000000000E+00 0.  1.
</event>
<event>
 5    1  0.1047411E-009  0.9118800E+02  0.7815553E-02  0.1125453E+00
         25   -1    0    0    0    0  0.00000000000E+00  0.00000000000E+00  0.99999998245E-14  0.12509000000E+03  0.12509000000E+03 0.  0.
        -11    1    3    3    0    0  0.81336763775E+01  0.33822721201E+02 -0.69801324149E+01  0.35480352446E+02  0.51100000000E-03 0.  1.
         23    2    1    0    0    0  0.14858217298E+02 -0.20862183876E+02  0.15684442567E+02  0.95056700548E+02  0.90187456129E+02 0.  0.
         11    1    3    3    0    0  0.67245409200E+01 -0.54684905077E+02  0.22664574982E+02  0.59576348103E+02  0.51100000000E-03 0. -1.
         22    1    1    0    0    0 -0.14858217298E+02  0.20862183876E+02 -0.15684442567E+02  0.30033299452E+02  0.00000000000E+00 0. -1.
</event>
<event>
 5    1  0.1047411E-009  0.9118800E+02  0.7815553E-02  0.1125453E+00
         25   -1    0    0    0    0  0.00000000000E+00  0.00000000000E+00  0.99999998245E-14  0.12509000000E+03  0.12509000000E+03 0.  0.
        -11    1    3    3    0    0  0.22944854466E+02  0.38299070889E+02 -0.13961097389E+02  0.46778172453E+02  0.51100000000E-03 0. -1.
         23    2    1    0    0    0  0.31595744979E+01  0.15321024033E+02  0.24663815141E+02  0.95883485902E+02  0.91327008070E+02 0.  0.
         11    1    3    3    0    0 -0.19785279968E+02 -0.22978046856E+02  0.38624912530E+02  0.49105313449E+02  0.51100000000E-03 0.  1.
         22    1    1    0    0    0 -0.31595744979E+01 -0.15321024033E+02 -0.24663815141E+02  0.29206514098E+02  0.00000000000E+00 0.  1.
</event>
<event>
 5    1  0.1047411E-009  0.9118800E+02  0.7815553E-02  0.1125453E+00
         25   -1    0    0    0    0  0.00000000000E+00  0.00000000000E+00  0.99999998245E-14  0.12509000000E+03  0.12509000000E+03 0.  0.
        -11    1    3    3    0    0  0.29714700007E+02  0.38533953841E+02  0.14238320900E+02  0.50700678274E+02  0.51100000000E-03 0.  1.
         23    2    1    0    0    0 -0.97220737918E+01  0.28012043859E+02 -0.35544104166E+01  0.95226524760E+02  0.90422695517E+02 0.  0.
         11    1    3    3    0    0 -0.39436773798E+02 -0.10521909982E+02 -0.17792731317E+02  0.44525846486E+02  0.51100000000E-03 0. -1.
         22    1    1    0    0    0  0.97220737918E+01 -0.28012043859E+02  0.35544104166E+01  0.29863475240E+02  0.00000000000E+00 0. -1.
</event>
<event>
 5    1  0.1047411E-009  0.9118800E+02  0.7815553E-02  0.1125453E+00
         25   -1    0    0    0    0  0.00000000000E+00  0.00000000000E+00  0.99999998245E-14  0.12509000000E+03  0.12509000000E+03 0.  0.
        -11    1    3    3    0    0 -0.42174156734E+02 -0.33480251110E+02 -0.25170248027E+02  0.59440121943E+02  0.51100000000E-03 0. -1.
         23    2    1    0    0    0 -0.23142019555E+02 -0.18972863481E+02  0.13155207017E+01  0.95135814776E+02  0.90297120887E+02 0.  0.
         11    1    3    3    0    0  0.19032137179E+02  0.14507387629E+02  0.26485768729E+02  0.35695692833E+02  0.51100000000E-03 0.  1.
         22    1    1    0    0    0  0.23142019555E+02  0.18972863481E+02 -0.13155207017E+01  0.29954185224E+02  0.00000000000E+00 0. -1.
</event>
<event>
 5    1  0.1047411E-009  0.9118800E+02  0.7815553E-02  0.1125453E+00
         25   -1    0    0    0    0  0.00000000000E+00  0.00000000000E+00  0.99999998245E-14  0.12509000000E+03  0.12509000000E+03 0.  0.
        -11    1    3    3    0    0  0.30222398395E+02 -0.17891951119E+02 -0.11529492894E+02  0.36965449899E+02  0.51100000000E-03 0. -1.
         23    2    1    0    0    0 -0.23810950295E+02 -0.16287929738E+02  0.91223458408E+01  0.94833179236E+02  0.89876897373E+02 0.  0.
         11    1    3    3    0    0 -0.54033348690E+02  0.16040213812E+01  0.20651838735E+02  0.57867729337E+02  0.51100000000E-03 0.  1.
         22    1    1    0    0    0  0.23810950295E+02  0.16287929738E+02 -0.91223458408E+01  0.30256820764E+02  0.00000000000E+00 0.  1.
</event>
<event>
 5    1  0.1047411E-009  0.9118800E+02  0.7815553E-02  0.1125453E+00
         25   -1    0    0    0    0  0.00000000000E+00  0.00000000000E+00  0.99999998245E-14  0.12509000000E+03  0.12509000000E+03 0.  0.
        -11    1    3    3    0    0 -0.58434108285E+01  0.33965120432E+02 -0.29304748657E+01  0.34588474082E+02  0.51100000000E-03 0. -1.
         23    2    1    0    0    0  0.20094661755E+02 -0.21372291934E+02 -0.13407932874E+01  0.95723896748E+02  0.91108157639E+02 0.  0.
         11    1    3    3    0    0  0.25938072584E+02 -0.55337412367E+02  0.15896815783E+01  0.61135422666E+02  0.51100000000E-03 0.  1.
         22    1    1    0    0    0 -0.20094661755E+02  0.21372291934E+02  0.13407932874E+01  0.29366103252E+02  0.00000000000E+00 0.  1.
</event>
<event>
 5    1  0.1047411E-009  0.9118800E+02  0.7815553E-02  0.1125453E+00
         25   -1    0    0    0    0  0.00000000000E+00  0.00000000000E+00  0.99999998245E-14  0.12509000000E+03  0.12509000000E+03 0.  0.
        -11    1    3    3    0    0  0.26152519394E+01  0.23854118522E+02 -0.20405036036E+02  0.31499587443E+02  0.51100000000E-03 0.  1.
         23    2    1    0    0    0  0.17991226015E+02 -0.13163516780E+02  0.24683714936E+02  0.91829690762E+02  0.85594648985E+02 0.  0.
         11    1    3    3    0    0  0.15375974076E+02 -0.37017635302E+02  0.45088750972E+02  0.60330103320E+02  0.51100000000E-03 0. -1.
         22    1    1    0    0    0 -0.17991226015E+02  0.13163516780E+02 -0.24683714936E+02  0.33260309238E+02  0.00000000000E+00 0. -1.
</event>
<event>
 5    1  0.1047411E-009  0.9118800E+02  0.7815553E-02  0.1125453E+00
         25   -1    0    0    0    0  0.00000000000E+00  0.00000000000E+00  0.99999998245E-14  0.12509000000E+03  0.12509000000E+03 0.  0.
        -11    1    3    3    0    0 -0.45948674887E+02 -0.32711532861E+02 -0.24120507034E+02  0.61344306710E+02  0.51100000000E-03 0.  1.
         23    2    1    0    0    0 -0.20945010774E+02 -0.85253109628E+01 -0.16864586100E+02  0.96880273528E+02  0.92682246041E+02 0.  0.
         11    1    3    3    0    0  0.25003664113E+02  0.24186221898E+02  0.72559209343E+01  0.35535966817E+02  0.51100000000E-03 0. -1.
         22    1    1    0    0    0  0.20945010774E+02  0.85253109628E+01  0.16864586100E+02  0.28209726472E+02  0.00000000000E+00 0.  1.
</event>
<event>
 5    1  0.1047411E-009  0.9118800E+02  0.7815553E-02  0.1125453E+00
         25   -1    0    0    0    0  0.00000000000E+00  0.00000000000E+00  0.99999998245E-14  0.12509000000E+03  0.12509000000E+03 0.  0.
        -11    1    3    3    0    0 -0.54328856768E+00  0.59994053657E+02 -0.44461529100E+01  0.60161033175E+02  0.51100000000E-03 0. -1.
         23    2    1    0    0    0 -0.86793780393E+01  0.26397497136E+02  0.67453924264E+01  0.96495249132E+02  0.92161126989E+02 0.  0.
         11    1    3    3    0    0 -0.81360894716E+01 -0.33596556521E+02  0.11191545336E+02  0.36334215957E+02  0.51100000000E-03 0.  1.
         22    1    1    0    0    0  0.86793780393E+01 -0.26397497136E+02 -0.67453924264E+01  0.28594750868E+02  0.00000000000E+00 0. -1.
</event>
<event>
 5    1  0.1047411E-009  0.9118800E+02  0.7815553E-02  0.1125453E+00
         25   -1    0    0    0    0  0.00000000000E+00  0.00000000000E+00  0.99999998245E-14  0.12509000000E+03  0.12509000000E+03 0.  0.
        -11    1    3    3    0    0 -0.31553249857E+02  0.16225739950E+02 -0.30085500547E+02  0.46519023602E+02  0.51100000000E-03 0.  1.
         23    2    1    0    0    0  0.84075793266E+01 -0.12167290386E+02 -0.25315107266E+02  0.95771319925E+02  0.91173245630E+02 0.  0.
         11    1    3    3    0    0  0.39960829184E+02 -0.28393030337E+02  0.47703932813E+01  0.49252296323E+02  0.51100000000E-03 0. -1.
         22    1    1    0    0    0 -0.84075793266E+01  0.12167290386E+02  0.25315107266E+02  0.29318680075E+02  0.00000000000E+00 0. -1.
</event>
<event>
 5    1  0.1047411E-009  0.9118800E+02  0.7815553E-02  0.1125453E+00
         25   -1    0    0    0    0  0.00000000000E+00  0.00000000000E+00  0.99999998245E-14  0.12509000000E+03  0.12509000000E+03 0.  0.
        -11    1    3    3    0    0 -0.10858518547E+01 -0.22131395290E+02  0.42548492176E+02  0.47972407887E+02  0.51100000000E-03 0.  1.
         23    2    1    0    0    0  0.11168805784E+02 -0.26947932945E+02 -0.33548929218E+01  0.95726951467E+02  0.91112351621E+02 0.  0.
         11    1    3    3    0    0  0.12254657639E+02 -0.48165376552E+01 -0.45903385098E+02  0.47754543580E+02  0.51100000000E-03 0. -1.
         22    1    1    0    0    0 -0.11168805784E+02  0.26947932945E+02  0.33548929218E+01  0.29363048533E+02  0.00000000000E+00 0. -1.
</event>
<event>
 5    1  0.1047411E-009  0.9118800E+02  0.7815553E-02  0.1125453E+00
         25   -1    0    0    0    0  0.00000000000E+00  0.00000000000E+00  0.99999998245E-14  0.12509000000E+03  0.12509000000E+03 0.  0.
        -11    1    3    3    0    0 -0.54405324493E+02  0.26189067297E+01  0.16118555709E+01  0.54492165348E+02  0.51100000000E-03 0. -1.
         23    2    1    0    0    0 -0.19046717778E+02  0.15975803178E+02 -0.15298792649E+02  0.95899987979E+02  0.91349608059E+02 0.  0.
         11    1    3    3    0    0  0.35358606715E+02  0.13356896448E+02 -0.16910648220E+02  0.41407822631E+02  0.51100000000E-03 0.  1.
         22    1    1    0    0    0  0.19046717778E+02 -0.15975803178E+02  0.15298792649E+02  0.29190012021E+02  0.00000000000E+00 0.  1.
</event>
<event>
 5    1  0.1047411E-009  0.9118800E+02  0.7815553E-02  0.1125453E+00
         25   -1    0    0    0    0  0.00000000000E+00  0.00000000000E+00  0.99999998245E-14  0.12509000000E+03  0.12509000000E+03 0.  0.
        -11    1    3    3    0    0  0.37118577317E+02 -0.38146182814E+02 -0.24132089130E+02  0.58440377920E+02  0.51100000000E-03 0.  1.
         23    2    1    0    0    0  0.44396127752E+01 -0.27272499021E+02 -0.93467833434E+01  0.95920465836E+02  0.91377645203E+02 0.  0.
         11    1    3    3    0    0 -0.32678964542E+02  0.10873683793E+02  0.14785305787E+02  0.37480087917E+02  0.51100000000E-03 0. -1.
         22    1    1    0    0    0 -0.44396127752E+01  0.27272499021E+02  0.93467833434E+01  0.29169534164E+02  0.00000000000E+00 0.  1.
</event>
<event>
 5    1  0.1047411E-009  0.9118800E+02  0.7815553E-02  0.1125453E+00
         25   -1    0    0    0    0  0.00000000000E+00  0.00000000000E+00  0.99999998245E-14  0.12509000000E+03  0.12509000000E+03 0.  0.
        -11    1    3    3    0    0 -0.44027956049E+02 -0.20583706818E+02 -0.21518019153E+02  0.53152375758E+02  0.51100000000E-03 0. -1.
         23    2    1    0    0    0 -0.26830106723E+02  0.12774031518E+02 -0.16734722086E+02  0.90986020301E+02  0.84352679027E+02 0.  0.
         11    1    3    3    0    0  0.17197849326E+02  0.33357738336E+02  0.47832970667E+01  0.37833644543E+02  0.51100000000E-03 0.  1.
         22    1    1    0    0    0  0.26830106723E+02 -0.12774031518E+02  0.16734722086E+02  0.34103979699E+02  0.00000000000E+00 0.  1.
</event>
<event>
 5    1  0.1047411E-009  0.9118800E+02  0.7815553E-02  0.1125453E+00
         25   -1    0    0    0    0  0.00000000000E+00  0.00000000000E+00  0.99999998245E-14  0.12509000000E+03  0.12509000000E+03 0.  0.
        -11    1    3    3    0    0 -0.36262326412E+02  0.43697401922E+02  0.13997286450E+02  0.58483700976E+02  0.51100000000E-03 0.  1.
         23    2    1    0    0    0 -0.11724352656E+02  0.25756031097E+02 -0.76188595364E+01  0.95783335166E+02  0.91189729091E+02 0.  0.
         11    1    3    3    0    0  0.24537973756E+02 -0.17941370825E+02 -0.21616145987E+02  0.37299634190E+02  0.51100000000E-03 0. -1.
         22    1    1    0    0    0  0.11724352656E+02 -0.25756031097E+02  0.76188595364E+01  0.29306664834E+02  0.00000000000E+00 0.  1.
</event>
<event>
 5    1  0.1047411E-009  0.9118800E+02  0.7815553E-02  0.1125453E+00
         25   -1    0    0    0    0  0.00000000000E+00  0.00000000000E+00  0.99999998245E-14  0.12509000000E+03  0.12509000000E+03 0.  0.
        -11    1    3    3    0    0 -0.92523214811E+01 -0.32228368836E+02 -0.32263793342E+01  0.33685052093E+02  0.51100000000E-03 0. -1.
         23    2    1    0    0    0  0.10490089146E+02  0.25641660023E+02 -0.10917928665E+02  0.95311855911E+02  0.90540664963E+02 0.  0.
         11    1    3    3    0    0  0.19742410627E+02  0.57870028859E+02 -0.76915493304E+01  0.61626803819E+02  0.51100000000E-03 0.  1.
         22    1    1    0    0    0 -0.10490089146E+02 -0.25641660023E+02  0.10917928665E+02  0.29778144089E+02  0.00000000000E+00 0.  1.
</event>
<event>
 5    1  0.1047411E-009  0.9118800E+02  0.7815553E-02  0.1125453E+00
         25   -1    0    0    0    0  0.00000000000E+00  0.00000000000E+00  0.99999998245E-14  0.12509000000E+03  0.12509000000E+03 0.  0.
        -11    1    3    3    0    0 -0.32589427230E+02  0.36657278103E+02  0.36019214176E+02  0.60854010510E+02  0.51100000000E-03 0. -1.
         23    2    1    0    0    0 -0.12048709192E+02  0.22002263576E+02  0.75559561510E+01  0.98891460556E+02  0.95358048962E+02 0.  0.
         11    1    3    3    0    0  0.20540718038E+02 -0.14655014526E+02 -0.28463258025E+02  0.38037450045E+02  0.51100000000E-03 0.  1.
         22    1    1    0    0    0  0.12048709192E+02 -0.22002263576E+02 -0.75559561510E+01  0.26198539444E+02  0.00000000000E+00 0. -1.
</event>
<event>
 5    1  0.1047411E-009  0.9118800E+02  0.7815553E-02  0.1125453E+00
         25   -1    0    0    0    0  0.00000000000E+00  0.00000000000E+00  0.99999998245E-14  0.12509000000E+03  0.12509000000E+03 0.  0.
        -11    1    3    3    0    0  0.11968335744E+02 -0.23320343806E+01  0.59879260784E+02  0.61108144442E+02  0.51100000000E-03 0.  1.
         23    2    1    0    0    0  0.10409977587E+01 -0.90695261764E+01  0.32225881548E+02  0.91596009151E+02  0.85252457264E+02 0.  0.
         11    1    3    3    0    0 -0.10927337986E+02 -0.67374917958E+01 -0.27653379235E+02  0.30487864710E+02  0.51100000000E-03 0. -1.
         22    1    1    0    0    0 -0.10409977587E+01  0.90695261764E+01 -0.32225881548E+02  0.33493990849E+02  0.00000000000E+00 0.  1.
</event>
<event>
 5    1  0.1047411E-009  0.9118800E+02  0.7815553E-02  0.1125453E+00
         25   -1    0    0    0    0  0.00000000000E+00  0.00000000000E+00  0.99999998245E-14  0.12509000000E+03  0.12509000000E+03 0.  0.
        -11    1    3    3    0    0  0.40673595142E+02 -0.25342149873E+02  0.32285275212E+02  0.57783257936E+02  0.51100000000E-03 0.  1.
         23    2    1    0    0    0  0.19444688525E+02  0.42497327393E+01  0.21556986705E+02  0.95749587324E+02  0.91143423552E+02 0.  0.
         11    1    3    3    0    0 -0.21228906617E+02  0.29591882612E+02 -0.10728288507E+02  0.37966329388E+02  0.51100000000E-03 0. -1.
         22    1    1    0    0    0 -0.19444688525E+02 -0.42497327393E+01 -0.21556986705E+02  0.29340412676E+02  0.00000000000E+00 0.  1.
</event>
<event>
 5    1  0.1047411E-009  0.9118800E+02  0.7815553E-02  0.1125453E+00
         25   -1    0    0    0    0  0.00000000000E+00  0.00000000000E+00  0.99999998245E-14  0.12509000000E+03  0.12509000000E+03 0.  0.
        -11    1    3    3    0    0  0.27595967682E+02  0.17284652600E+02  0.27147456181E+02  0.42394351336E+02  0.51100000000E-03 0.  1.
         23    2    1    0    0    0 -0.14530507123E+02 -0.15886189039E+02  0.18496837083E+02  0.96706208472E+02  0.92447017991E+02 0.  0.
         11    1    3    3    0    0 -0.42126474805E+02 -0.33170841639E+02 -0.86506190977E+01  0.54311857136E+02  0.51100000000E-03 0. -1.
         22    1    1    0    0    0  0.14530507123E+02  0.15886189039E+02 -0.18496837083E+02  0.28383791528E+02  0.00000000000E+00 0. -1.
</event>
<event>
 5    1  0.1047411E-009  0.9118800E+02  0.7815553E-02  0.1125453E+00
         25   -1    0    0    0    0  0.00000000000E+00  0.00000000000E+00  0.99999998245E-14  0.12509000000E+03  0.12509000000E+03 0.  0.
        -11    1    3    3    0    0 -0.16097200852E+02 -0.58004808446E+01 -0.54178837264E+02  0.56816475259E+02  0.51100000000E-03 0. -1.
         23    2    1    0    0    0 -0.21783970104E+02 -0.11674753284E+02 -0.16497667493E+02  0.95374444302E+02  0.90627095151E+02 0.  0.
         11    1    3    3    0    0 -0.56867692516E+01 -0.58742724390E+01  0.37681169771E+02  0.38557969044E+02  0.51100000000E-03 0.  1.
         22    1    1    0    0    0  0.21783970104E+02  0.11674753284E+02  0.16497667493E+02  0.29715555698E+02  0.00000000000E+00 0. -1.
</event>
<event>
 5    1  0.1047411E-009  0.9118800E+02  0.7815553E-02  0.1125453E+00
         25   -1    0    0    0    0  0.00000000000E+00  0.00000000000E+00  0.99999998245E-14  0.12509000000E+03  0.12509000000E+03 0.  0.
        -11    1    3    3    0    0 -0.10761088033E+01  0.14844327528E+02 -0.57322632991E+02  0.59223275182E+02  0.51100000000E-03 0. -1.
         23    2    1    0    0    0 -0.22078428797E+01  0.19607435535E+02 -0.19543947948E+02  0.97317855685E+02  0.93270965661E+02 0.  0.
         11    1    3    3    0    0 -0.11317340764E+01  0.47631080071E+01  0.37778685043E+02  0.38094580504E+02  0.51100000000E-03 0.  1.
         22    1    1    0    0    0  0.22078428797E+01 -0.19607435535E+02  0.19543947948E+02  0.27772144315E+02  0.00000000000E+00 0. -1.
</event>
<event>
 5    1  0.1047411E-009  0.9118800E+02  0.7815553E-02  0.1125453E+00
         25   -1    0    0    0    0  0.00000000000E+00  0.00000000000E+00  0.99999998245E-14  0.12509000000E+03  0.12509000000E+03 0.  0.
        -11    1    3    3    0    0 -0.29502145544E+02  0.18725714013E+02  0.39287472812E+02  0.52578840584E+02  0.51100000000E-03 0.  1.
         23    2    1    0    0    0 -0.11211127837E+01 -0.12141480152E+02  0.25678479578E+02  0.96663661024E+02  0.92389429130E+02 0.  0.
         11    1    3    3    0    0  0.28381032760E+02 -0.30867194165E+02 -0.13608993233E+02  0.44084820440E+02  0.51100000000E-03 0. -1.
         22    1    1    0    0    0  0.11211127837E+01  0.12141480152E+02 -0.25678479578E+02  0.28426338976E+02  0.00000000000E+00 0.  1.
</event>
<event>
 5    1  0.1047411E-009  0.9118800E+02  0.7815553E-02  0.1125453E+00
         25   -1    0    0    0    0  0.00000000000E+00  0.00000000000E+00  0.99999998245E-14  0.12509000000E+03  0.12509000000E+03 0.  0.
        -11    1    3    3    0    0  0.13113852600E+02  0.88439229598E+01  0.33946119378E+02  0.37450328763E+02  0.51100000000E-03 0.  1.
         23    2    1    0    0    0  0.20531746683E+02  0.27078895279E+02 -0.13271823050E+02  0.88607668955E+02  0.80748736951E+02 0.  0.
         11    1    3    3    0    0  0.74178940834E+01  0.18234972319E+02 -0.47217942429E+02  0.51157340192E+02  0.51100000000E-03 0. -1.
         22    1    1    0    0    0 -0.20531746683E+02 -0.27078895279E+02  0.13271823050E+02  0.36482331045E+02  0.00000000000E+00 0.  1.
</event>
<event>
 5    1  0.1047411E-009  0.9118800E+02  0.7815553E-02  0.1125453E+00
         25   -1    0    0    0    0  0.00000000000E+00  0.00000000000E+00  0.99999998245E-14  0.12509000000E+03  0.12509000000E+03 0.  0.
        -11    1    3    3    0    0 -0.19153855119E+02 -0.34266309080E+02 -0.30470336975E+02  0.49693978906E+02  0.51100000000E-03 0.  1.
         23    2    1    0    0    0  0.25965103909E+01  0.48128742622E+01 -0.30179333576E+02  0.94419202815E+02  0.89298869311E+02 0.  0.
         11    1    3    3    0    0  0.21750365509E+02  0.39079183342E+02  0.29100339863E+00  0.44725223909E+02  0.51100000000E-03 0. -1.
         22    1    1    0    0    0 -0.25965103909E+01 -0.48128742622E+01  0.30179333576E+02  0.30670797185E+02  0.00000000000E+00 0.  1.
</event>
<event>
 5    1  0.1047411E-009  0.9118800E+02  0.7815553E-02  0.1125453E+00
         25   -1    0    0    0    0  0.00000000000E+00  0.00000000000E+00  0.99999998245E-14  0.12509000000E+03  0.12509000000E+03 0.  0.
        -11    1    3    3    0    0  0.30621532247E+02 -0.12834740615E+02 -0.44867114776E+02  0.55816366707E+02  0.51100000000E-03 0.  1.
         23    2    1    0    0    0  0.24020355322E+02  0.10664714842E+02 -0.13553459112E+02  0.95519577846E+02  0.90827197940E+02 0.  0.
         11    1    3    3    0    0 -0.66011769250E+01  0.23499455456E+02  0.31313655663E+02  0.39703211140E+02  0.51100000000E-03 0. -1.
         22    1    1    0    0    0 -0.24020355322E+02 -0.10664714842E+02  0.13553459112E+02  0.29570422154E+02  0.00000000000E+00 0.  1.
</event>
<event>
 5    1  0.1047411E-009  0.9118800E+02  0.7815553E-02  0.1125453E+00
         25   -1    0    0    0    0  0.00000000000E+00  0.00000000000E+00  0.99999998245E-14  0.12509000000E+03  0.12509000000E+03 0.  0.
        -11    1    3    3    0    0  0.64114130837E+01 -0.10354041288E+02  0.53159362387E+02  0.54536503357E+02  0.51100000000E-03 0. -1.
         23    2    1    0    0    0 -0.10855787920E+02  0.13037309945E+02  0.23862095335E+02  0.95811694452E+02  0.91228622801E+02 0.  0.
         11    1    3    3    0    0 -0.17267201004E+02  0.23391351232E+02 -0.29297267052E+02  0.41275191096E+02  0.51100000000E-03 0.  1.
         22    1    1    0    0    0  0.10855787920E+02 -0.13037309945E+02 -0.23862095335E+02  0.29278305548E+02  0.00000000000E+00 0.  1.
</event>
<event>
 5    1  0.1047411E-009  0.9118800E+02  0.7815553E-02  0.1125453E+00
         25   -1    0    0    0    0  0.00000000000E+00  0.00000000000E+00  0.99999998245E-14  0.12509000000E+03  0.12509000000E+03 0.  0.
        -11    1    3    3    0    0 -0.41929749856E+02  0.10231566961E+02 -0.33516846483E+02  0.54645840500E+02  0.51100000000E-03 0. -1.
         23    2    1    0    0    0 -0.40737492223E+02 -0.87086205220E+01 -0.16021764771E+02  0.80457273325E+02  0.66942456935E+02 0.  0.
         11    1    3    3    0    0  0.11922576330E+01 -0.18940187483E+02  0.17495081712E+02  0.25811432826E+02  0.51100000000E-03 0.  1.
         22    1    1    0    0    0  0.40737492223E+02  0.87086205220E+01  0.16021764771E+02  0.44632726675E+02  0.00000000000E+00 0. -1.
</event>
<event>
 5    1  0.1047411E-009  0.9118800E+02  0.7815553E-02  0.1125453E+00
         25   -1    0    0    0    0  0.00000000000E+00  0.00000000000E+00  0.99999998245E-14  0.12509000000E+03  0.12509000000E+03 0.  0.
        -11    1    3    3    0    0 -0.32069266798E+02  0.29949605309E+02 -0.16389770063E+02  0.46840594511E+02  0.51100000000E-03 0.  1.
         23    2    1    0    0    0 -0.11180685342E+02  0.69836830084E+01  0.23955169935E+02  0.97747181570E+02  0.93844988067E+02 0.  0.
         11    1    3    3    0    0  0.20888581456E+02 -0.22965922300E+02  0.40344939998E+02  0.50906587060E+02  0.51100000000E-03 0. -1.
         22    1    1    0    0    0  0.11180685342E+02 -0.69836830084E+01 -0.23955169935E+02  0.27342818430E+02  0.00000000000E+00 0.  1.
</event>
<event>
 5    1  0.1047411E-009  0.9118800E+02  0.7815553E-02  0.1125453E+00
         25   -1    0    0    0    0  0.00000000000E+00  0.00000000000E+00  0.99999998245E-14  0.12509000000E+03  0.12509000000E+03 0.  0.
        -11    1    3    3    0    0  0.19195810839E+01 -0.15413327089E+02 -0.34204786089E+02  0.37566245955E+02  0.51100000000E-03 0. -1.
         23    2    1    0    0    0  0.25580117700E+01  0.29632913068E+02  0.18807956960E+01  0.95287477396E+02  0.90506977603E+02 0.  0.
         11    1    3    3    0    0  0.63843068606E+00  0.45046240158E+02  0.36085581785E+02  0.57721231441E+02  0.51100000000E-03 0.  1.
         22    1    1    0    0    0 -0.25580117700E+01 -0.29632913068E+02 -0.18807956960E+01  0.29802522604E+02  0.00000000000E+00 0.  1.
</event>
<event>
 5    1  0.1047411E-009  0.9118800E+02  0.7815553E-02  0.1125453E+00
         25   -1    0    0    0    0  0.00000000000E+00  0.00000000000E+00  0.99999998245E-14  0.12509000000E+03  0.12509000000E+03 0.  0.
        -11    1    3    3    0    0  0.45567405762E+02 -0.10154765696E+02 -0.26907715077E+02  0.53884439917E+02  0.51100000000E-03 0. -1.
         23    2    1    0    0    0  0.24014245232E+02 -0.14057987335E+02  0.89126916283E+01  0.95871049744E+02  0.91309972758E+02 0.  0.
         11    1    3    3    0    0 -0.21553160530E+02 -0.39032216388E+01  0.35820406706E+02  0.41986609827E+02  0.51100000000E-03 0.  1.
         22    1    1    0    0    0 -0.24014245232E+02  0.14057987335E+02 -0.89126916283E+01  0.29218950256E+02  0.00000000000E+00 0.  1.
</event>
<event>
 5    1  0.1047411E-009  0.9118800E+02  0.7815553E-02  0.1125453E+00
         25   -1    0    0    0    0  0.00000000000E+00  0.00000000000E+00  0.99999998245E-14  0.12509000000E+03  0.12509000000E+03 0.  0.
        -11    1    3    3    0    0  0.63534498868E+01 -0.25913840544E+02  0.42736739058E+02  0.50381765776E+02  0.51100000000E-03 0. -1.
         23    2    1    0    0    0 -0.20664680099E+02 -0.10141237012E+02  0.16660307821E+01  0.10201080265E+03  0.99365761242E+02 0.  0.
         11    1    3    3    0    0 -0.27018129985E+02  0.15772603532E+02 -0.41070708276E+02  0.51629036875E+02  0.51100000000E-03 0.  1.
         22    1    1    0    0    0  0.20664680099E+02  0.10141237012E+02 -0.16660307821E+01  0.23079197349E+02  0.00000000000E+00 0. -1.
</event>
<event>
 5    1  0.1047411E-009  0.9118800E+02  0.7815553E-02  0.1125453E+00
         25   -1    0    0    0    0  0.00000000000E+00  0.00000000000E+00  0.99999998245E-14  0.12509000000E+03  0.12509000000E+03 0.  0.
        -11    1    3    3    0    0 -0.19962635406E+02 -0.36828980987E+02 -0.62402698546E+01  0.42353531388E+02  0.51100000000E-03 0. -1.
         23    2    1    0    0    0 -0.42922623969E+01  0.92490440784E+01 -0.27721270785E+02  0.95552952300E+02  0.90873150636E+02 0.  0.
         11    1    3    3    0    0  0.15670373009E+02  0.46078025066E+02 -0.21481000931E+02  0.53199420913E+02  0.51100000000E-03 0.  1.
         22    1    1    0    0    0  0.42922623969E+01 -0.92490440784E+01  0.27721270785E+02  0.29537047700E+02  0.00000000000E+00 0.  1.
</event>
<event>
 5    1  0.1047411E-009  0.9118800E+02  0.7815553E-02  0.1125453E+00
         25   -1    0    0    0    0  0.00000000000E+00  0.00000000000E+00  0.99999998245E-14  0.12509000000E+03  0.12509000000E+03 0.  0.
        -11    1    3    3    0    0  0.26125372138E+02  0.24950587450E+02 -0.14891193386E+02  0.39074474074E+02  0.51100000000E-03 0.  1.
         23    2    1    0    0    0  0.96488907211E+01 -0.27773322896E+02 -0.69183689983E+01  0.94885325090E+02  0.89949444306E+02 0.  0.
         11    1    3    3    0    0 -0.16476481417E+02 -0.52723910346E+02  0.79728243876E+01  0.55810851015E+02  0.51100000000E-03 0. -1.
         22    1    1    0    0    0 -0.96488907211E+01  0.27773322896E+02  0.69183689983E+01  0.30204674910E+02  0.00000000000E+00 0. -1.
</event>
<event>
 5    1  0.1047411E-009  0.9118800E+02  0.7815553E-02  0.1125453E+00
         25   -1    0    0    0    0  0.00000000000E+00  0.00000000000E+00  0.99999998245E-14  0.12509000000E+03  0.12509000000E+03 0.  0.
        -11    1    3    3    0    0 -0.48718605120E+01 -0.15368748630E+02  0.55024231293E+02  0.57337592284E+02  0.51100000000E-03 0. -1.
         23    2    1    0    0    0  0.13738826236E+02 -0.11298847471E+02  0.14411126196E+02  0.10219677264E+03  0.99599600804E+02 0.  0.
         11    1    3    3    0    0  0.18610686748E+02  0.40699011583E+01 -0.40613105098E+02  0.44859180360E+02  0.51100000000E-03 0.  1.
         22    1    1    0    0    0 -0.13738826236E+02  0.11298847471E+02 -0.14411126196E+02  0.22893227355E+02  0.00000000000E+00 0. -1.
</event>
<event>
 5    1  0.1047411E-009  0.9118800E+02  0.7815553E-02  0.1125453E+00
         25   -1    0    0    0    0  0.00000000000E+00  0.00000000000E+00  0.99999998245E-14  0.12509000000E+03  0.12509000000E+03 0.  0.
        -11    1    3    3    0    0 -0.13913734426E+02 -0.17412206130E+01  0.37511966538E+02  0.40047115860E+02  0.51100000000E-03 0.  1.
         23    2    1    0    0    0 -0.21720619838E+02 -0.12984526637E+02 -0.15912365258E+02  0.95197080668E+02  0.90381953627E+02 0.  0.
         11    1    3    3    0    0 -0.78068854113E+01 -0.11243306024E+02 -0.53424331796E+02  0.55149964807E+02  0.51100000000E-03 0. -1.
         22    1    1    0    0    0  0.21720619838E+02  0.12984526637E+02  0.15912365258E+02  0.29892919332E+02  0.00000000000E+00 0. -1.
</event>
<event>
 5    1  0.1047411E-009  0.9118800E+02  0.7815553E-02  0.1125453E+00
         25   -1    0    0    0    0  0.00000000000E+00  0.00000000000E+00  0.99999998245E-14  0.12509000000E+03  0.12509000000E+03 0.  0.
        -11    1    3    3    0    0 -0.51103285672E+02 -0.26466926952E+02  0.33936475105E+01  0.57650332804E+02  0.51100000000E-03 0. -1.
         23    2    1    0    0    0 -0.18571183957E+02 -0.15636342104E+02  0.17947621969E+02  0.94898921810E+02  0.89968350871E+02 0.  0.
         11    1    3    3    0    0  0.32532101715E+02  0.10830584847E+02  0.14553974458E+02  0.37248589006E+02  0.51100000000E-03 0.  1.
         22    1    1    0    0    0  0.18571183957E+02  0.15636342104E+02 -0.17947621969E+02  0.30191078190E+02  0.00000000000E+00 0. -1.
</event>
<event>
 5    1  0.1047411E-009  0.9118800E+02  0.7815553E-02  0.1125453E+00
         25   -1    0    0    0    0  0.00000000000E+00  0.00000000000E+00  0.99999998245E-14  0.12509000000E+03  0.12509000000E+03 0.  0.
        -11    1    3    3    0    0  0.20348548669E+02  0.20746586394E+02  0.39313122262E+02  0.48887686202E+02  0.51100000000E-03 0. -1.
         23    2    1    0    0    0  0.18468733545E+02 -0.18343726072E+02  0.13527410866E+02  0.95754403027E+02  0.91150032635E+02 0.  0.
         11    1    3    3    0    0 -0.18798151242E+01 -0.39090312466E+02 -0.25785711395E+02  0.46866716826E+02  0.51100000000E-03 0.  1.
         22    1    1    0    0    0 -0.18468733545E+02  0.18343726072E+02 -0.13527410866E+02  0.29335596973E+02  0.00000000000E+00 0. -1.
</event>
<event>
 5    1  0.1047411E-009  0.9118800E+02  0.7815553E-02  0.1125453E+00
         25   -1    0    0    0    0  0.00000000000E+00  0.00000000000E+00  0.99999998245E-14  0.12509000000E+03  0.12509000000E+03 0.  0.
        -11    1    3    3    0    0  0.20252464457E+02 -0.14532712544E+02  0.33982447163E+02  0.42144617283E+02  0.51100000000E-03 0.  1.
         23    2    1    0    0    0  0.19334464990E+02  0.18772328176E+02 -0.91354254406E+01  0.96635161403E+02  0.92350834212E+02 0.  0.
         11    1    3    3    0    0 -0.91799946694E+00  0.33305040720E+02 -0.43117872603E+02  0.54490544120E+02  0.51100000000E-03 0. -1.
         22    1    1    0    0    0 -0.19334464990E+02 -0.18772328176E+02  0.91354254406E+01  0.28454838597E+02  0.00000000000E+00 0.  1.
</event>
<event>
 5    1  0.1047411E-009  0.9118800E+02  0.7815553E-02  0.1125453E+00
         25   -1    0    0    0    0  0.00000000000E+00  0.00000000000E+00  0.99999998245E-14  0.12509000000E+03  0.12509000000E+03 0.  0.
        -11    1    3    3    0    0  0.46022047155E+02  0.20977478949E+02 -0.94496416185E+01  0.51452688699E+02  0.51100000000E-03 0. -1.
         23    2    1    0    0    0  0.25021683664E+02 -0.10102553580E+02  0.12968599788E+02  0.95151215411E+02  0.90318453106E+02 0.  0.
         11    1    3    3    0    0 -0.21000363491E+02 -0.31080032529E+02  0.22418241406E+02  0.43698526711E+02  0.51100000000E-03 0.  1.
         22    1    1    0    0    0 -0.25021683664E+02  0.10102553580E+02 -0.12968599788E+02  0.29938784589E+02  0.00000000000E+00 0. -1.
</event>
<event>
 5    1  0.1047411E-009  0.9118800E+02  0.7815553E-02  0.1125453E+00
         25   -1    0    0    0    0  0.00000000000E+00  0.00000000000E+00  0.99999998245E-14  0.12509000000E+03  0.12509000000E+03 0.  0.
        -11    1    3    3    0    0  0.32965212880E+02 -0.20646513470E+02  0.14873458490E+02  0.41643769599E+02  0.51100000000E-03 0.  1.
         23    2    1    0    0    0  0.60418119577E+00  0.22847687771E+02  0.18075433508E+02  0.95950625128E+02  0.91418921973E+02 0.  0.
         11    1    3    3    0    0 -0.32361031684E+02  0.43494201241E+02  0.32019750172E+01  0.54306855530E+02  0.51100000000E-03 0. -1.
         22    1    1    0    0    0 -0.60418119577E+00 -0.22847687771E+02 -0.18075433508E+02  0.29139374872E+02  0.00000000000E+00 0. -1.
</event>
<event>
 5    1  0.1047411E-009  0.9118800E+02  0.7815553E-02  0.1125453E+00
         25   -1    0    0    0    0  0.00000000000E+00  0.00000000000E+00  0.99999998245E-14  0.12509000000E+03  0.12509000000E+03 0.  0.
        -11    1    3    3    0    0 -0.38860958880E+02 -0.35585197694E+02 -0.19507886671E+02  0.56187525863E+02  0.51100000000E-03 0.  1.
         23    2    1    0    0    0 -0.34047272063E+02 -0.41922305696E+01 -0.93049222540E+01  0.89546039750E+02  0.82189537806E+02 0.  0.
         11    1    3    3    0    0  0.48136868171E+01  0.31392967124E+02  0.10202964417E+02  0.33358513887E+02  0.51100000000E-03 0. -1.
         22    1    1    0    0    0  0.34047272063E+02  0.41922305696E+01  0.93049222540E+01  0.35543960250E+02  0.00000000000E+00 0.  1.
</event>
<event>
 5    1  0.1047411E-009  0.9118800E+02  0.7815553E-02  0.1125453E+00
         25   -1    0    0    0    0  0.00000000000E+00  0.00000000000E+00  0.99999998245E-14  0.12509000000E+03  0.12509000000E+03 0.  0.
        -11    1    3    3    0    0 -0.39605270584E+02 -0.22932072185E+01  0.22525729542E+02  0.45620661427E+02  0.51100000000E-03 0.  1.
         23    2    1    0    0    0  0.10283751510E+02  0.21298818137E+01  0.27209708482E+02  0.95923920776E+02  0.91382374666E+02 0.  0.
         11    1    3    3    0    0  0.49889022094E+02  0.44230890322E+01  0.46839789396E+01  0.50303259349E+02  0.51100000000E-03 0. -1.
         22    1    1    0    0    0 -0.10283751510E+02 -0.21298818137E+01 -0.27209708482E+02  0.29166079224E+02  0.00000000000E+00 0.  1.
</event>
<event>
 5    1  0.1047411E-009  0.9118800E+02  0.7815553E-02  0.1125453E+00
         25   -1    0    0    0    0  0.00000000000E+00  0.00000000000E+00  0.99999998245E-14  0.12509000000E+03  0.12509000000E+03 0.  0.
        -11    1    3    3    0    0  0.21545664333E+02 -0.34066861886E+02 -0.27351736224E+02  0.48712259289E+02  0.51100000000E-03 0.  1.
         23    2    1    0    0    0  0.75677569983E+01  0.11088789430E+02 -0.25798594604E+02  0.96007364621E+02  0.91496526606E+02 0.  0.
         11    1    3    3    0    0 -0.13977907334E+02  0.45155651316E+02  0.15531416199E+01  0.47295105332E+02  0.51100000000E-03 0. -1.
         22    1    1    0    0    0 -0.75677569983E+01 -0.11088789430E+02  0.25798594604E+02  0.29082635379E+02  0.00000000000E+00 0. -1.
</event>
<event>
 5    1  0.1047411E-009  0.9118800E+02  0.7815553E-02  0.1125453E+00
         25   -1    0    0    0    0  0.00000000000E+00  0.00000000000E+00  0.99999998245E-14  0.12509000000E+03  0.12509000000E+03 0.  0.
        -11    1    3    3    0    0  0.36209214996E+02  0.37996461054E+02  0.19121830545E+01  0.52521374197E+02  0.51100000000E-03 0. -1.
         23    2    1    0    0    0  0.14061511308E+02  0.58540425332E+01  0.23468470938E+02  0.97112061505E+02  0.92994556009E+02 0.  0.
         11    1    3    3    0    0 -0.22147703689E+02 -0.32142418521E+02  0.21556287884E+02  0.44590687308E+02  0.51100000000E-03 0.  1.
         22    1    1    0    0    0 -0.14061511308E+02 -0.58540425332E+01 -0.23468470938E+02  0.27977938495E+02  0.00000000000E+00 0. -1.
</event>
<event>
 5    1  0.1047411E-009  0.9118800E+02  0.7815553E-02  0.1125453E+00
         25   -1    0    0    0    0  0.00000000000E+00  0.00000000000E+00  0.99999998245E-14  0.12509000000E+03  0.12509000000E+03 0.  0.
        -11    1    3    3    0    0 -0.38138933403E+02  0.65592708105E+01 -0.21420692636E+02  0.44231757233E+02  0.51100000000E-03 0.  1.
         23    2    1    0    0    0  0.12385166469E+02 -0.10519972595E+01 -0.26740170886E+02  0.95602107812E+02  0.90940789706E+02 0.  0.
         11    1    3    3    0    0  0.50524099872E+02 -0.76112680699E+01 -0.53194782499E+01  0.51370350579E+02  0.51100000000E-03 0. -1.
         22    1    1    0    0    0 -0.12385166469E+02  0.10519972595E+01  0.26740170886E+02  0.29487892188E+02  0.00000000000E+00 0. -1.
</event>
<event>
 5    1  0.1047411E-009  0.9118800E+02  0.7815553E-02  0.1125453E+00
         25   -1    0    0    0    0  0.00000000000E+00  0.00000000000E+00  0.99999998245E-14  0.12509000000E+03  0.12509000000E+03 0.  0.
        -11    1    3    3    0    0 -0.11134157164E+02  0.17726187567E+02  0.26963105048E+02  0.34134970566E+02  0.51100000000E-03 0. -1.
         23    2    1    0    0    0  0.71686335431E+01 -0.13547728803E+02 -0.23967358514E+02  0.96640667200E+02  0.92358291561E+02 0.  0.
         11    1    3    3    0    0  0.18302790707E+02 -0.31273916370E+02 -0.50930463563E+02  0.62505696635E+02  0.51100000000E-03 0.  1.
         22    1    1    0    0    0 -0.71686335431E+01  0.13547728803E+02  0.23967358514E+02  0.28449332800E+02  0.00000000000E+00 0.  1.
</event>
<event>
 5    1  0.1047411E-009  0.9118800E+02  0.7815553E-02  0.1125453E+00
         25   -1    0    0    0    0  0.00000000000E+00  0.00000000000E+00  0.99999998245E-14  0.12509000000E+03  0.12509000000E+03 0.  0.
        -11    1    3    3    0    0  0.32128011236E+02 -0.29911919961E+00  0.19379762010E+02  0.37521643809E+02  0.51100000000E-03 0.  1.
         23    2    1    0    0    0 -0.22521893281E+02 -0.16859728800E+02  0.38917285432E+01  0.96688737999E+02  0.92423375683E+02 0.  0.
         11    1    3    3    0    0 -0.54649904517E+02 -0.16560609601E+02 -0.15488033467E+02  0.59167094191E+02  0.51100000000E-03 0. -1.
         22    1    1    0    0    0  0.22521893281E+02  0.16859728800E+02 -0.38917285432E+01  0.28401262001E+02  0.00000000000E+00 0. -1.
</event>
<event>
 5    1  0.1047411E-009  0.9118800E+02  0.7815553E-02  0.1125453E+00
         25   -1    0    0    0    0  0.00000000000E+00  0.00000000000E+00  0.99999998245E-14  0.12509000000E+03  0.12509000000E+03 0.  0.
        -11    1    3    3    0    0  0.15589458137E+02 -0.51390210061E+02 -0.13551863858E+01  0.53719842009E+02  0.51100000000E-03 0. -1.
         23    2    1    0    0    0 -0.11539951989E+02 -0.24519277477E+02 -0.14813076101E+02  0.94206465820E+02  0.89000368083E+02 0.  0.
         11    1    3    3    0    0 -0.27129410127E+02  0.26870932584E+02 -0.13457889715E+02  0.40486623811E+02  0.51100000000E-03 0.  1.
         22    1    1    0    0    0  0.11539951989E+02  0.24519277477E+02  0.14813076101E+02  0.30883534180E+02  0.00000000000E+00 0. -1.
</event>
<event>
 5    1  0.1047411E-009  0.9118800E+02  0.7815553E-02  0.1125453E+00
         25   -1    0    0    0    0  0.00000000000E+00  0.00000000000E+00  0.99999998245E-14  0.12509000000E+03  0.12509000000E+03 0.  0.
        -11    1    3    3    0    0  0.16067351858E+02  0.34121455394E+02  0.14794728697E+02  0.40513177010E+02  0.51100000000E-03 0.  1.
         23    2    1    0    0    0 -0.27088524337E+02  0.81911724637E+01 -0.78549627599E+01  0.95720221365E+02  0.91103111259E+02 0.  0.
         11    1    3    3    0    0 -0.43155876195E+02 -0.25930282931E+02 -0.22649691457E+02  0.55207044355E+02  0.51100000000E-03 0. -1.
         22    1    1    0    0    0  0.27088524337E+02 -0.81911724637E+01  0.78549627599E+01  0.29369778635E+02  0.00000000000E+00 0. -1.
</event>
<event>
 5    1  0.1047411E-009  0.9118800E+02  0.7815553E-02  0.1125453E+00
         25   -1    0    0    0    0  0.00000000000E+00  0.00000000000E+00  0.99999998245E-14  0.12509000000E+03  0.12509000000E+03 0.  0.
        -11    1    3    3    0    0  0.47048467427E+02  0.29253039573E+02 -0.25011842398E+02  0.60785614021E+02  0.51100000000E-03 0.  1.
         23    2    1    0    0    0  0.26693411296E+02  0.27331830576E+02 -0.20539042718E+02  0.81714667782E+02  0.69252202028E+02 0.  0.
         11    1    3    3    0    0 -0.20355056131E+02 -0.19212089966E+01  0.44727996796E+01  0.20929053761E+02  0.51100000000E-03 0. -1.
         22    1    1    0    0    0 -0.26693411296E+02 -0.27331830576E+02  0.20539042718E+02  0.43375332218E+02  0.00000000000E+00 0.  1.
</event>
<event>
 5    1  0.1047411E-009  0.9118800E+02  0.7815553E-02  0.1125453E+00
         25   -1    0    0    0    0  0.00000000000E+00  0.00000000000E+00  0.99999998245E-14  0.12509000000E+03  0.12509000000E+03 0.  0.
        -11    1    3    3    0    0 -0.22067372244E+02 -0.39478835342E+02 -0.33879601559E+01  0.45354444457E+02  0.51100000000E-03 0. -1.
         23    2    1    0    0    0 -0.15272742178E+02 -0.20739663973E+01  0.26984289205E+02  0.94014127460E+02  0.88729624748E+02 0.  0.
         11    1    3    3    0    0  0.67946300669E+01  0.37404868944E+02  0.30372249360E+02  0.48659683003E+02  0.51100000000E-03 0.  1.
         22    1    1    0    0    0  0.15272742178E+02  0.20739663973E+01 -0.26984289205E+02  0.31075872540E+02  0.00000000000E+00 0.  1.
</event>
<event>
 5    1  0.1047411E-009  0.9118800E+02  0.7815553E-02  0.1125453E+00
         25   -1    0    0    0    0  0.00000000000E+00  0.00000000000E+00  0.99999998245E-14  0.12509000000E+03  0.12509000000E+03 0.  0.
        -11    1    3    3    0    0  0.38754032599E+02  0.41853734273E+02  0.24928405226E+02  0.62249783153E+02  0.51100000000E-03 0.  1.
         23    2    1    0    0    0  0.19288111895E+02  0.21822287665E+02  0.80969450258E+01  0.94860808510E+02  0.89915343369E+02 0.  0.
         11    1    3    3    0    0 -0.19465920705E+02 -0.20031446608E+02 -0.16831460200E+02  0.32611025357E+02  0.51100000000E-03 0. -1.
         22    1    1    0    0    0 -0.19288111895E+02 -0.21822287665E+02 -0.80969450258E+01  0.30229191490E+02  0.00000000000E+00 0.  1.
</event>
<event>
 5    1  0.1047411E-009  0.9118800E+02  0.7815553E-02  0.1125453E+00
         25   -1    0    0    0    0  0.00000000000E+00  0.00000000000E+00  0.99999998245E-14  0.12509000000E+03  0.12509000000E+03 0.  0.
        -11    1    3    3    0    0  0.36681401514E+02  0.11391916018E+02  0.90959342983E+01  0.39471977257E+02  0.51100000000E-03 0. -1.
         23    2    1    0    0    0 -0.69497188865E+01  0.90037152870E+01 -0.26770684777E+02  0.96003318425E+02  0.91490994659E+02 0.  0.
         11    1    3    3    0    0 -0.43631120400E+02 -0.23882007313E+01 -0.35866619076E+02  0.56531341168E+02  0.51100000000E-03 0.  1.
         22    1    1    0    0    0  0.69497188865E+01 -0.90037152870E+01  0.26770684777E+02  0.29086681575E+02  0.00000000000E+00 0.  1.
</event>
<event>
 5    1  0.1047411E-009  0.9118800E+02  0.7815553E-02  0.1125453E+00
         25   -1    0    0    0    0  0.00000000000E+00  0.00000000000E+00  0.99999998245E-14  0.12509000000E+03  0.12509000000E+03 0.  0.
        -11    1    3    3    0    0 -0.89058694758E+01 -0.15275958340E+02 -0.56968758480E+02  0.59649885644E+02  0.51100000000E-03 0.  1.
         23    2    1    0    0    0  0.45605102548E+01 -0.16734192281E+02 -0.22526805145E+02  0.96659586792E+02  0.92383912689E+02 0.  0.
         11    1    3    3    0    0  0.13466379731E+02 -0.14582339416E+01  0.34441953335E+02  0.37009701148E+02  0.51100000000E-03 0. -1.
         22    1    1    0    0    0 -0.45605102548E+01  0.16734192281E+02  0.22526805145E+02  0.28430413208E+02  0.00000000000E+00 0.  1.
</event>
<event>
 5    1  0.1047411E-009  0.9118800E+02  0.7815553E-02  0.1125453E+00
         25   -1    0    0    0    0  0.00000000000E+00  0.00000000000E+00  0.99999998245E-14  0.12509000000E+03  0.12509000000E+03 0.  0.
        -11    1    3    3    0    0 -0.31320449478E+02 -0.24408415010E+02 -0.38619986815E+01  0.39895567584E+02  0.51100000000E-03 0.  1.
         23    2    1    0    0    0  0.22762516872E+02 -0.15301542865E+02  0.89919968331E+01  0.96226088355E+02  0.91795068956E+02 0.  0.
         11    1    3    3    0    0  0.54082966349E+02  0.91068721444E+01  0.12853995515E+02  0.56330520771E+02  0.51100000000E-03 0. -1.
         22    1    1    0    0    0 -0.22762516872E+02  0.15301542865E+02 -0.89919968331E+01  0.28863911645E+02  0.00000000000E+00 0. -1.
</event>
<event>
 5    1  0.1047411E-009  0.9118800E+02  0.7815553E-02  0.1125453E+00
         25   -1    0    0    0    0  0.00000000000E+00  0.00000000000E+00  0.99999998245E-14  0.12509000000E+03  0.12509000000E+03 0.  0.
        -11    1    3    3    0    0 -0.49437489789E+01 -0.52210101782E+02  0.57824685801E+01  0.52761466291E+02  0.51100000000E-03 0.  1.
         23    2    1    0    0    0 -0.42850310510E+01 -0.12590365646E+02  0.24978501333E+02  0.96791513697E+02  0.92562372466E+02 0.  0.
         11    1    3    3    0    0  0.65871792790E+00  0.39619736136E+02  0.19196032753E+02  0.44030047406E+02  0.51100000000E-03 0. -1.
         22    1    1    0    0    0  0.42850310510E+01  0.12590365646E+02 -0.24978501333E+02  0.28298486303E+02  0.00000000000E+00 0.  1.
</event>
<event>
 5    1  0.1047411E-009  0.9118800E+02  0.7815553E-02  0.1125453E+00
         25   -1    0    0    0    0  0.00000000000E+00  0.00000000000E+00  0.99999998245E-14  0.12509000000E+03  0.12509000000E+03 0.  0.
        -11    1    3    3    0    0  0.29106434066E+02 -0.26967086065E+02 -0.14308821486E+02  0.42179978751E+02  0.51100000000E-03 0. -1.
         23    2    1    0    0    0  0.29700905098E+01  0.17596842768E+02 -0.24441228711E+02  0.94827085832E+02  0.89868416218E+02 0.  0.
         11    1    3    3    0    0 -0.26136343556E+02  0.44563928833E+02 -0.10132407225E+02  0.52647107081E+02  0.51100000000E-03 0.  1.
         22    1    1    0    0    0 -0.29700905098E+01 -0.17596842768E+02  0.24441228711E+02  0.30262914168E+02  0.00000000000E+00 0.  1.
</event>
<event>
 5    1  0.1047411E-009  0.9118800E+02  0.7815553E-02  0.1125453E+00
         25   -1    0    0    0    0  0.00000000000E+00  0.00000000000E+00  0.99999998245E-14  0.12509000000E+03  0.12509000000E+03 0.  0.
        -11    1    3    3    0    0  0.19617685798E+02 -0.12904472113E+02 -0.27924261850E+02  0.36484837902E+02  0.51100000000E-03 0.  1.
         23    2    1    0    0    0  0.27077019530E+00  0.14948354658E+02  0.22993960778E+02  0.97662844556E+02  0.93732504240E+02 0.  0.
         11    1    3    3    0    0 -0.19346915603E+02  0.27852826771E+02  0.50918222627E+02  0.61178006655E+02  0.51100000000E-03 0. -1.
         22    1    1    0    0    0 -0.27077019530E+00 -0.14948354658E+02 -0.22993960778E+02  0.27427155444E+02  0.00000000000E+00 0. -1.
</event>
<event>
 5    1  0.1047411E-009  0.9118800E+02  0.7815553E-02  0.1125453E+00
         25   -1    0    0    0    0  0.00000000000E+00  0.00000000000E+00  0.99999998245E-14  0.12509000000E+03  0.12509000000E+03 0.  0.
        -11    1    3    3    0    0  0.31688176844E+02 -0.24693294604E+02  0.25192693093E+02  0.47419100957E+02  0.51100000000E-03 0.  1.
         23    2    1    0    0    0  0.28583100587E+02  0.14378004594E+02  0.18436847541E+01  0.93041289750E+02  0.87347362694E+02 0.  0.
         11    1    3    3    0    0 -0.31050762570E+01  0.39071299198E+02 -0.23349008339E+02  0.45622188792E+02  0.51100000000E-03 0. -1.
         22    1    1    0    0    0 -0.28583100587E+02 -0.14378004594E+02 -0.18436847541E+01  0.32048710250E+02  0.00000000000E+00 0. -1.
</event>
<event>
 5    1  0.1047411E-009  0.9118800E+02  0.7815553E-02  0.1125453E+00
         25   -1    0    0    0    0  0.00000000000E+00  0.00000000000E+00  0.99999998245E-14  0.12509000000E+03  0.12509000000E+03 0.  0.
        -11    1    3    3    0    0 -0.20669384312E+02  0.14244652435E+02  0.35537367143E+02  0.43509056925E+02  0.51100000000E-03 0. -1.
         23    2    1    0    0    0 -0.12202773912E+02  0.21310341518E+02 -0.15715584223E+02  0.95934932958E+02  0.91397447598E+02 0.  0.
         11    1    3    3    0    0  0.84666104002E+01  0.70656890834E+01 -0.51252951365E+02  0.52425876033E+02  0.51100000000E-03 0.  1.
         22    1    1    0    0    0  0.12202773912E+02 -0.21310341518E+02  0.15715584223E+02  0.29155067042E+02  0.00000000000E+00 0.  1.
</event>
<event>
 5    1  0.1047411E-009  0.9118800E+02  0.7815553E-02  0.1125453E+00
         25   -1    0    0    0    0  0.00000000000E+00  0.00000000000E+00  0.99999998245E-14  0.12509000000E+03  0.12509000000E+03 0.  0.
        -11    1    3    3    0    0 -0.10433588291E+02 -0.88516534079E+01 -0.31136574266E+02  0.34010260069E+02  0.51100000000E-03 0.  1.
         23    2    1    0    0    0  0.24439064306E+01  0.17622922710E+02  0.23225984102E+02  0.95832754385E+02  0.91257494991E+02 0.  0.
         11    1    3    3    0    0  0.12877494722E+02  0.26474576118E+02  0.54362558368E+02  0.61822494316E+02  0.51100000000E-03 0. -1.
         22    1    1    0    0    0 -0.24439064306E+01 -0.17622922710E+02 -0.23225984102E+02  0.29257245615E+02  0.00000000000E+00 0. -1.
</event>
<event>
 5    1  0.1047411E-009  0.9118800E+02  0.7815553E-02  0.1125453E+00
         25   -1    0    0    0    0  0.00000000000E+00  0.00000000000E+00  0.99999998245E-14  0.12509000000E+03  0.12509000000E+03 0.  0.
        -11    1    3    3    0    0  0.22110606867E+02  0.32918545248E+02 -0.18934392261E+02  0.43943381388E+02  0.51100000000E-03 0. -1.
         23    2    1    0    0    0 -0.21039513580E+02  0.36162190647E+01 -0.19603475245E+02  0.96106652821E+02  0.91632168493E+02 0.  0.
         11    1    3    3    0    0 -0.43150120447E+02 -0.29302326183E+02 -0.66908298398E+00  0.52163271433E+02  0.51100000000E-03 0.  1.
         22    1    1    0    0    0  0.21039513580E+02 -0.36162190647E+01  0.19603475245E+02  0.28983347179E+02  0.00000000000E+00 0.  1.
</event>
<event>
 5    1  0.1047411E-009  0.9118800E+02  0.7815553E-02  0.1125453E+00
         25   -1    0    0    0    0  0.00000000000E+00  0.00000000000E+00  0.99999998245E-14  0.12509000000E+03  0.12509000000E+03 0.  0.
        -11    1    3    3    0    0 -0.17864401831E+02  0.51612367509E+02  0.18642555618E+02  0.57710642111E+02  0.51100000000E-03 0. -1.
         23    2    1    0    0    0 -0.93068172405E+01  0.26684513032E+02 -0.85344526986E+01  0.95568533814E+02  0.90894596592E+02 0.  0.
         11    1    3    3    0    0  0.85575845901E+01 -0.24927854477E+02 -0.27177008317E+02  0.37857891703E+02  0.51100000000E-03 0.  1.
         22    1    1    0    0    0  0.93068172405E+01 -0.26684513032E+02  0.85344526986E+01  0.29521466186E+02  0.00000000000E+00 0. -1.
</event>
<event>
 5    1  0.1047411E-009  0.9118800E+02  0.7815553E-02  0.1125453E+00
         25   -1    0    0    0    0  0.00000000000E+00  0.00000000000E+00  0.99999998245E-14  0.12509000000E+03  0.12509000000E+03 0.  0.
        -11    1    3    3    0    0  0.57693064320E+02 -0.40858765094E+01  0.18865401677E+02  0.60836563333E+02  0.51100000000E-03 0.  1.
         23    2    1    0    0    0  0.28080821786E+02 -0.13891096870E+01  0.19990182971E+02  0.90592614691E+02  0.83767250423E+02 0.  0.
         11    1    3    3    0    0 -0.29612242534E+02  0.26967668224E+01  0.11247812943E+01  0.29756051358E+02  0.51100000000E-03 0. -1.
         22    1    1    0    0    0 -0.28080821786E+02  0.13891096870E+01 -0.19990182971E+02  0.34497385309E+02  0.00000000000E+00 0.  1.
</event>
<event>
 5    1  0.1047411E-009  0.9118800E+02  0.7815553E-02  0.1125453E+00
         25   -1    0    0    0    0  0.00000000000E+00  0.00000000000E+00  0.99999998245E-14  0.12509000000E+03  0.12509000000E+03 0.  0.
        -11    1    3    3    0    0 -0.19973171466E+02 -0.33369725432E+02 -0.42482835335E+02  0.57595637441E+02  0.51100000000E-03 0. -1.
         23    2    1    0    0    0 -0.58216976673E+01 -0.11317712885E+01 -0.29309195763E+02  0.95186789031E+02  0.90367708723E+02 0.  0.
         11    1    3    3    0    0  0.14151473799E+02  0.32237954143E+02  0.13173639572E+02  0.37591151590E+02  0.51100000000E-03 0.  1.
         22    1    1    0    0    0  0.58216976673E+01  0.11317712885E+01  0.29309195763E+02  0.29903210969E+02  0.00000000000E+00 0. -1.
</event>
<event>
 5    1  0.1047411E-009  0.9118800E+02  0.7815553E-02  0.1125453E+00
         25   -1    0    0    0    0  0.00000000000E+00  0.00000000000E+00  0.99999998245E-14  0.12509000000E+03  0.12509000000E+03 0.  0.
        -11    1    3    3    0    0 -0.55459371039E+02  0.11573439212E+02  0.24157359319E+02  0.61589482388E+02  0.51100000000E-03 0. -1.
         23    2    1    0    0    0 -0.21671864412E+02  0.49272187088E+01  0.17820906236E+02  0.96602601201E+02  0.92306720602E+02 0.  0.
         11    1    3    3    0    0  0.33787506627E+02 -0.66462205032E+01 -0.63364530839E+01  0.35013118813E+02  0.51100000000E-03 0.  1.
         22    1    1    0    0    0  0.21671864412E+02 -0.49272187088E+01 -0.17820906236E+02  0.28487398799E+02  0.00000000000E+00 0. -1.
</event>
<event>
 5    1  0.1047411E-009  0.9118800E+02  0.7815553E-02  0.1125453E+00
         25   -1    0    0    0    0  0.00000000000E+00  0.00000000000E+00  0.99999998245E-14  0.12509000000E+03  0.12509000000E+03 0.  0.
        -11    1    3    3    0    0 -0.43513444461E+02 -0.42974242470E+02 -0.95530870354E+01  0.61898843583E+02  0.51100000000E-03 0.  1.
         23    2    1    0    0    0 -0.26213551115E+02 -0.17173130893E+02 -0.33816426505E+01  0.93570130175E+02  0.88101458940E+02 0.  0.
         11    1    3    3    0    0  0.17299893345E+02  0.25801111577E+02  0.61714443849E+01  0.31671286593E+02  0.51100000000E-03 0. -1.
         22    1    1    0    0    0  0.26213551115E+02  0.17173130893E+02  0.33816426505E+01  0.31519869825E+02  0.00000000000E+00 0.  1.
</event>
<event>
 5    1  0.1047411E-009  0.9118800E+02  0.7815553E-02  0.1125453E+00
         25   -1    0    0    0    0  0.00000000000E+00  0.00000000000E+00  0.99999998245E-14  0.12509000000E+03  0.12509000000E+03 0.  0.
        -11    1    3    3    0    0  0.43248497259E+02  0.19661274450E+02  0.34416527002E+02  0.58664261346E+02  0.51100000000E-03 0. -1.
         23    2    1    0    0    0  0.24515737854E+02 -0.58114035464E+01  0.15334647621E+02  0.95595166023E+02  0.90931240702E+02 0.  0.
         11    1    3    3    0    0 -0.18732759405E+02 -0.25472677997E+02 -0.19081879381E+02  0.36930904676E+02  0.51100000000E-03 0.  1.
         22    1    1    0    0    0 -0.24515737854E+02  0.58114035464E+01 -0.15334647621E+02  0.29494833977E+02  0.00000000000E+00 0. -1.
</event>
<event>
 5    1  0.1047411E-009  0.9118800E+02  0.7815553E-02  0.1125453E+00
         25   -1    0    0    0    0  0.00000000000E+00  0.00000000000E+00  0.99999998245E-14  0.12509000000E+03  0.12509000000E+03 0.  0.
        -11    1    3    3    0    0 -0.16715830225E+02 -0.29474034743E+02 -0.47048524511E+01  0.34209258118E+02  0.51100000000E-03 0. -1.
         23    2    1    0    0    0  0.43105647557E+01  0.24399679555E+02 -0.19099764437E+02  0.93805397838E+02  0.88434870561E+02 0.  0.
         11    1    3    3    0    0  0.21026394981E+02  0.53873714298E+02 -0.14394911986E+02  0.59596139720E+02  0.51100000000E-03 0.  1.
         22    1    1    0    0    0 -0.43105647557E+01 -0.24399679555E+02  0.19099764437E+02  0.31284602162E+02  0.00000000000E+00 0.  1.
</event>
<event>
 5    1  0.1047411E-009  0.9118800E+02  0.7815553E-02  0.1125453E+00
         25   -1    0    0    0    0  0.00000000000E+00  0.00000000000E+00  0.99999998245E-14  0.12509000000E+03  0.12509000000E+03 0.  0.
        -11    1    3    3    0    0 -0.31189118008E+02  0.13949069426E+00 -0.38179447012E+02  0.49299601562E+02  0.51100000000E-03 0.  1.
         23    2    1    0    0    0  0.29540071013E+01 -0.23439248968E+02 -0.17690140197E+02  0.95576179334E+02  0.90905117820E+02 0.  0.
         11    1    3    3    0    0  0.34143125109E+02 -0.23578739662E+02  0.20489306815E+02  0.46276577772E+02  0.51100000000E-03 0. -1.
         22    1    1    0    0    0 -0.29540071013E+01  0.23439248968E+02  0.17690140197E+02  0.29513820666E+02  0.00000000000E+00 0.  1.
</event>
<event>
 5    1  0.1047411E-009  0.9118800E+02  0.7815553E-02  0.1125453E+00
         25   -1    0    0    0    0  0.00000000000E+00  0.00000000000E+00  0.99999998245E-14  0.12509000000E+03  0.12509000000E+03 0.  0.
        -11    1    3    3    0    0  0.73845504703E+01  0.39477269468E+02  0.62916479056E+01  0.40651829281E+02  0.51100000000E-03 0. -1.
         23    2    1    0    0    0 -0.13903843070E+02 -0.65971784833E+01  0.25818068688E+02  0.95033182357E+02  0.90154830498E+02 0.  0.
         11    1    3    3    0    0 -0.21288393540E+02 -0.46074447951E+02  0.19526420783E+02  0.54381353076E+02  0.51100000000E-03 0.  1.
         22    1    1    0    0    0  0.13903843070E+02  0.65971784833E+01 -0.25818068688E+02  0.30056817643E+02  0.00000000000E+00 0.  1.
</event>
<event>
 5    1  0.1047411E-009  0.9118800E+02  0.7815553E-02  0.1125453E+00
         25   -1    0    0    0    0  0.00000000000E+00  0.00000000000E+00  0.99999998245E-14  0.12509000000E+03  0.12509000000E+03 0.  0.
        -11    1    3    3    0    0 -0.23556713131E+02 -0.20078530944E+02  0.26216924434E+02  0.40563447406E+02  0.51100000000E-03 0. -1.
         23    2    1    0    0    0 -0.20696597201E+02 -0.36499119272E+02 -0.11317037447E+02  0.81631857151E+02  0.69102459594E+02 0.  0.
         11    1    3    3    0    0  0.28601159302E+01 -0.16420588328E+02 -0.37533961881E+02  0.41068409744E+02  0.51100000000E-03 0.  1.
         22    1    1    0    0    0  0.20696597201E+02  0.36499119272E+02  0.11317037447E+02  0.43458142849E+02  0.00000000000E+00 0. -1.
</event>
<event>
 5    1  0.1047411E-009  0.9118800E+02  0.7815553E-02  0.1125453E+00
         25   -1    0    0    0    0  0.00000000000E+00  0.00000000000E+00  0.99999998245E-14  0.12509000000E+03  0.12509000000E+03 0.  0.
        -11    1    3    3    0    0  0.41392317828E+02 -0.38129597504E+02  0.54722740724E+01  0.56543222094E+02  0.51100000000E-03 0.  1.
         23    2    1    0    0    0  0.32816186681E+02 -0.66843676487E+01 -0.59402084264E+01  0.91077223646E+02  0.84487819902E+02 0.  0.
         11    1    3    3    0    0 -0.85761311471E+01  0.31445229855E+02 -0.11412482499E+02  0.34534001551E+02  0.51100000000E-03 0. -1.
         22    1    1    0    0    0 -0.32816186681E+02  0.66843676487E+01  0.59402084264E+01  0.34012776354E+02  0.00000000000E+00 0.  1.
</event>
<event>
 5    1  0.1047411E-009  0.9118800E+02  0.7815553E-02  0.1125453E+00
         25   -1    0    0    0    0  0.00000000000E+00  0.00000000000E+00  0.99999998245E-14  0.12509000000E+03  0.12509000000E+03 0.  0.
        -11    1    3    3    0    0  0.36056658910E+02  0.39853998570E+02  0.44347423210E+01  0.53926716880E+02  0.51100000000E-03 0.  1.
         23    2    1    0    0    0  0.27839116634E+02 -0.22196207176E+01  0.45428913955E+01  0.96795460009E+02  0.92567705411E+02 0.  0.
         11    1    3    3    0    0 -0.82175422760E+01 -0.42073619287E+02  0.10814907453E+00  0.42868743129E+02  0.51100000000E-03 0. -1.
         22    1    1    0    0    0 -0.27839116634E+02  0.22196207176E+01 -0.45428913955E+01  0.28294539991E+02  0.00000000000E+00 0. -1.
</event>
<event>
 5    1  0.1047411E-009  0.9118800E+02  0.7815553E-02  0.1125453E+00
         25   -1    0    0    0    0  0.00000000000E+00  0.00000000000E+00  0.99999998245E-14  0.12509000000E+03  0.12509000000E+03 0.  0.
        -11    1    3    3    0    0  0.15815981461E+02  0.17913654642E+02 -0.30094437078E+02  0.38428107363E+02  0.51100000000E-03 0.  1.
         23    2    1    0    0    0  0.13667850950E+02  0.29910406877E+01  0.25485486335E+02  0.96016532925E+02  0.91509060247E+02 0.  0.
         11    1    3    3    0    0 -0.21481305100E+01 -0.14922613955E+02  0.55579923413E+02  0.57588425563E+02  0.51100000000E-03 0. -1.
         22    1    1    0    0    0 -0.13667850950E+02 -0.29910406877E+01 -0.25485486335E+02  0.29073467075E+02  0.00000000000E+00 0. -1.
</event>
<event>
 5    1  0.1047411E-009  0.9118800E+02  0.7815553E-02  0.1125453E+00
         25   -1    0    0    0    0  0.00000000000E+00  0.00000000000E+00  0.99999998245E-14  0.12509000000E+03  0.12509000000E+03 0.  0.
        -11    1    3    3    0    0  0.16239886481E+02 -0.23001379336E+02 -0.37225637016E+02  0.46674890635E+02  0.51100000000E-03 0. -1.
         23    2    1    0    0    0  0.15052886697E+02  0.20466449714E+02 -0.16029564340E+02  0.95049828650E+02  0.90177924304E+02 0.  0.
         11    1    3    3    0    0 -0.11869997844E+01  0.43467829050E+02  0.21196072677E+02  0.48374938015E+02  0.51100000000E-03 0.  1.
         22    1    1    0    0    0 -0.15052886697E+02 -0.20466449714E+02  0.16029564340E+02  0.30040171350E+02  0.00000000000E+00 0. -1.
</event>
<event>
 5    1  0.1047411E-009  0.9118800E+02  0.7815553E-02  0.1125453E+00
         25   -1    0    0    0    0  0.00000000000E+00  0.00000000000E+00  0.99999998245E-14  0.12509000000E+03  0.12509000000E+03 0.  0.
        -11    1    3    3    0    0 -0.39312066227E+02 -0.25937236417E+00 -0.59790974633E+01  0.39765002600E+02  0.51100000000E-03 0. -1.
         23    2    1    0    0    0  0.22137505942E+02 -0.30859813889E+00 -0.87667960723E+01  0.10127779482E+03  0.98438664193E+02 0.  0.
         11    1    3    3    0    0  0.61449572169E+02 -0.49225774720E-01 -0.27876986090E+01  0.61512792220E+02  0.51100000000E-03 0.  1.
         22    1    1    0    0    0 -0.22137505942E+02  0.30859813889E+00  0.87667960723E+01  0.23812205180E+02  0.00000000000E+00 0.  1.
</event>
<event>
 5    1  0.1047411E-009  0.9118800E+02  0.7815553E-02  0.1125453E+00
         25   -1    0    0    0    0  0.00000000000E+00  0.00000000000E+00  0.99999998245E-14  0.12509000000E+03  0.12509000000E+03 0.  0.
        -11    1    3    3    0    0  0.19129476065E+02  0.49561583974E+02 -0.31126287793E+02  0.61572179209E+02  0.51100000000E-03 0.  1.
         23    2    1    0    0    0  0.11082084796E+02  0.26654268388E+02 -0.79235731590E+01  0.95155978580E+02  0.90325049799E+02 0.  0.
         11    1    3    3    0    0 -0.80473912685E+01 -0.22907315586E+02  0.23202714634E+02  0.33583799371E+02  0.51100000000E-03 0. -1.
         22    1    1    0    0    0 -0.11082084796E+02 -0.26654268388E+02  0.79235731590E+01  0.29934021420E+02  0.00000000000E+00 0.  1.
</event>
<event>
 5    1  0.1047411E-009  0.9118800E+02  0.7815553E-02  0.1125453E+00
         25   -1    0    0    0    0  0.00000000000E+00  0.00000000000E+00  0.99999998245E-14  0.12509000000E+03  0.12509000000E+03 0.  0.
        -11    1    3    3    0    0 -0.20030917262E+02 -0.24556296405E+00 -0.40679955410E+02  0.45344864318E+02  0.51100000000E-03 0. -1.
         23    2    1    0    0    0 -0.87503979840E+01  0.27363296305E+02  0.70047066651E+00  0.96353088045E+02  0.91967969790E+02 0.  0.
         11    1    3    3    0    0  0.11280519278E+02  0.27608859269E+02  0.41380426077E+02  0.51008223728E+02  0.51100000000E-03 0.  1.
         22    1    1    0    0    0  0.87503979840E+01 -0.27363296305E+02 -0.70047066651E+00  0.28736911955E+02  0.00000000000E+00 0. -1.
</event>
<event>
 5    1  0.1047411E-009  0.9118800E+02  0.7815553E-02  0.1125453E+00
         25   -1    0    0    0    0  0.00000000000E+00  0.00000000000E+00  0.99999998245E-14  0.12509000000E+03  0.12509000000E+03 0.  0.
        -11    1    3    3    0    0  0.36600044502E+02  0.77174466595E+01  0.28897297530E+02  0.47267071469E+02  0.51100000000E-03 0. -1.
         23    2    1    0    0    0 -0.72193610416E+01  0.18139627502E+02  0.26235313891E+02  0.92387447275E+02  0.86405922594E+02 0.  0.
         11    1    3    3    0    0 -0.43819405543E+02  0.10422180843E+02 -0.26619836400E+01  0.45120375806E+02  0.51100000000E-03 0.  1.
         22    1    1    0    0    0  0.72193610416E+01 -0.18139627502E+02 -0.26235313891E+02  0.32702552725E+02  0.00000000000E+00 0.  1.
</event>
<event>
 5    1  0.1047411E-009  0.9118800E+02  0.7815553E-02  0.1125453E+00
         25   -1    0    0    0    0  0.00000000000E+00  0.00000000000E+00  0.99999998245E-14  0.12509000000E+03  0.12509000000E+03 0.  0.
        -11    1    3    3    0    0 -0.13419429587E+02 -0.60784434008E+02 -0.19742087740E+01  0.62279418821E+02  0.51100000000E-03 0.  1.
         23    2    1    0    0    0 -0.59326627938E+01 -0.26760808334E+02 -0.49202537164E+01  0.97241369026E+02  0.93168329398E+02 0.  0.
         11    1    3    3    0    0  0.74867667930E+01  0.34023625674E+02 -0.29460449424E+01  0.34961950205E+02  0.51100000000E-03 0. -1.
         22    1    1    0    0    0  0.59326627938E+01  0.26760808334E+02  0.49202537164E+01  0.27848630974E+02  0.00000000000E+00 0.  1.
</event>
<event>
 5    1  0.1047411E-009  0.9118800E+02  0.7815553E-02  0.1125453E+00
         25   -1    0    0    0    0  0.00000000000E+00  0.00000000000E+00  0.99999998245E-14  0.12509000000E+03  0.12509000000E+03 0.  0.
        -11    1    3    3    0    0 -0.49032562148E+02  0.35268185323E+02  0.10309856772E+02  0.61272589252E+02  0.51100000000E-03 0. -1.
         23    2    1    0    0    0 -0.19365695137E+02  0.16237599384E+02  0.13091280194E+02  0.96628246733E+02  0.92341467758E+02 0.  0.
         11    1    3    3    0    0  0.29666867011E+02 -0.19030585938E+02  0.27814234227E+01  0.35355657481E+02  0.51100000000E-03 0.  1.
         22    1    1    0    0    0  0.19365695137E+02 -0.16237599384E+02 -0.13091280194E+02  0.28461753267E+02  0.00000000000E+00 0. -1.
</event>
<event>
 5    1  0.1047411E-009  0.9118800E+02  0.7815553E-02  0.1125453E+00
         25   -1    0    0    0    0  0.00000000000E+00  0.00000000000E+00  0.99999998245E-14  0.12509000000E+03  0.12509000000E+03 0.  0.
        -11    1    3    3    0    0  0.50013582903E+02  0.70253219753E+01 -0.29321805663E+02  0.58399331428E+02  0.51100000000E-03 0.  1.
         23    2    1    0    0    0  0.28379410678E+02 -0.78227742101E+01 -0.31092893960E+01  0.95488404987E+02  0.90784255571E+02 0.  0.
         11    1    3    3    0    0 -0.21634172224E+02 -0.14848096185E+02  0.26212516267E+02  0.37089073559E+02  0.51100000000E-03 0. -1.
         22    1    1    0    0    0 -0.28379410678E+02  0.78227742101E+01  0.31092893960E+01  0.29601595013E+02  0.00000000000E+00 0.  1.
</event>
<event>
 4    1  0.1047411E-009  0.9118800E+02  0.7815553E-02  0.1125453E+00
         25   -1    0    0    0    0  0.00000000000E+00  0.00000000000E+00  0.99999998245E-14  0.12509000000E+03  0.12509000000E+03 0.  0.
        -11    1    1    0    0    0  0.35006231429E+02 -0.17901721518E+02  0.10947018493E+02  0.40813540478E+02  0.51100000000E-03 0.  1.
         11    1    1    0    0    0 -0.62003229174E+01 -0.14474468817E+02  0.23932041854E+02  0.28647807584E+02  0.51100000000E-03 0. -1.
         22    1    1    0    0    0 -0.28805908512E+02  0.32376190334E+02 -0.34879060347E+02  0.55628651938E+02  0.00000000000E+00 0.  1.
</event>
<event>
 5    1  0.1047411E-009  0.9118800E+02  0.7815553E-02  0.1125453E+00
         25   -1    0    0    0    0  0.00000000000E+00  0.00000000000E+00  0.99999998245E-14  0.12509000000E+03  0.12509000000E+03 0.  0.
        -11    1    3    3    0    0 -0.15336267541E+02 -0.94844990500E-01 -0.40125032955E+02  0.42956121421E+02  0.51100000000E-03 0.  1.
         23    2    1    0    0    0 -0.23338613115E+02  0.37081667837E+01  0.13880506854E+02  0.97683616919E+02  0.93760221741E+02 0.  0.
         11    1    3    3    0    0 -0.80023455741E+01  0.38030117742E+01  0.54005539809E+02  0.54727495498E+02  0.51100000000E-03 0. -1.
         22    1    1    0    0    0  0.23338613115E+02 -0.37081667837E+01 -0.13880506854E+02  0.27406383081E+02  0.00000000000E+00 0. -1.
</event>
<event>
 5    1  0.1047411E-009  0.9118800E+02  0.7815553E-02  0.1125453E+00
         25   -1    0    0    0    0  0.00000000000E+00  0.00000000000E+00  0.99999998245E-14  0.12509000000E+03  0.12509000000E+03 0.  0.
        -11    1    3    3    0    0  0.31613137136E+02 -0.16048659749E+01  0.18126314694E+02  0.36476421412E+02  0.51100000000E-03 0.  1.
         23    2    1    0    0    0 -0.34337226835E+01 -0.10897301591E+02 -0.27825455527E+02  0.95010146132E+02  0.90122862023E+02 0.  0.
         11    1    3    3    0    0 -0.35046859820E+02 -0.92924356162E+01 -0.45951770221E+02  0.58533724720E+02  0.51100000000E-03 0. -1.
         22    1    1    0    0    0  0.34337226835E+01  0.10897301591E+02  0.27825455527E+02  0.30079853868E+02  0.00000000000E+00 0. -1.
</event>
<event>
 5    1  0.1047411E-009  0.9118800E+02  0.7815553E-02  0.1125453E+00
         25   -1    0    0    0    0  0.00000000000E+00  0.00000000000E+00  0.99999998245E-14  0.12509000000E+03  0.12509000000E+03 0.  0.
        -11    1    3    3    0    0 -0.40631924698E+02 -0.36261172700E+02  0.25543350690E+02  0.60152212885E+02  0.51100000000E-03 0.  1.
         23    2    1    0    0    0 -0.10119355746E+02 -0.24940627894E+02  0.86602164802E+01  0.96815707260E+02  0.92595062191E+02 0.  0.
         11    1    3    3    0    0  0.30512568952E+02  0.11320544806E+02 -0.16883134210E+02  0.36663494375E+02  0.51100000000E-03 0. -1.
         22    1    1    0    0    0  0.10119355746E+02  0.24940627894E+02 -0.86602164802E+01  0.28274292740E+02  0.00000000000E+00 0.  1.
</event>
<event>
 5    1  0.1047411E-009  0.9118800E+02  0.7815553E-02  0.1125453E+00
         25   -1    0    0    0    0  0.00000000000E+00  0.00000000000E+00  0.99999998245E-14  0.12509000000E+03  0.12509000000E+03 0.  0.
        -11    1    3    3    0    0  0.44806967095E+02  0.10717662197E+02  0.11636888449E+02  0.47517888803E+02  0.51100000000E-03 0.  1.
         23    2    1    0    0    0  0.14385550183E+02  0.40340102018E+01 -0.25222265840E+02  0.95774816452E+02  0.91178042751E+02 0.  0.
         11    1    3    3    0    0 -0.30421416912E+02 -0.66836519957E+01 -0.36859154289E+02  0.48256927649E+02  0.51100000000E-03 0. -1.
         22    1    1    0    0    0 -0.14385550183E+02 -0.40340102018E+01  0.25222265840E+02  0.29315183548E+02  0.00000000000E+00 0. -1.
</event>
<event>
 5    1  0.1047411E-009  0.9118800E+02  0.7815553E-02  0.1125453E+00
         25   -1    0    0    0    0  0.00000000000E+00  0.00000000000E+00  0.99999998245E-14  0.12509000000E+03  0.12509000000E+03 0.  0.
        -11    1    3    3    0    0 -0.35285493316E+02  0.12252831476E+01  0.13940690880E+02  0.37959323226E+02  0.51100000000E-03 0.  1.
         23    2    1    0    0    0  0.19177986150E+02  0.36565691182E+01 -0.15720991821E+02  0.10002378301E+03  0.96832029478E+02 0.  0.
         11    1    3    3    0    0  0.54463479466E+02  0.24312859706E+01 -0.29661682701E+02  0.62064459781E+02  0.51100000000E-03 0. -1.
         22    1    1    0    0    0 -0.19177986150E+02 -0.36565691182E+01  0.15720991821E+02  0.25066216993E+02  0.00000000000E+00 0. -1.
</event>
<event>
 5    1  0.1047411E-009  0.9118800E+02  0.7815553E-02  0.1125453E+00
         25   -1    0    0    0    0  0.00000000000E+00  0.00000000000E+00  0.99999998245E-14  0.12509000000E+03  0.12509000000E+03 0.  0.
        -11    1    3    3    0    0 -0.29730035271E+02  0.22600539974E+02 -0.21899504080E+02  0.43292582315E+02  0.51100000000E-03 0. -1.
         23    2    1    0    0    0  0.14420607338E+02 -0.20592262575E+01 -0.27296004701E+02  0.94150281168E+02  0.88921365501E+02 0.  0.
         11    1    3    3    0    0  0.44150642608E+02 -0.24659766232E+02 -0.53965006219E+01  0.50857698852E+02  0.51100000000E-03 0.  1.
         22    1    1    0    0    0 -0.14420607338E+02  0.20592262575E+01  0.27296004701E+02  0.30939718832E+02  0.00000000000E+00 0.  1.
</event>
<event>
 5    1  0.1047411E-009  0.9118800E+02  0.7815553E-02  0.1125453E+00
         25   -1    0    0    0    0  0.00000000000E+00  0.00000000000E+00  0.99999998245E-14  0.12509000000E+03  0.12509000000E+03 0.  0.
        -11    1    3    3    0    0 -0.42696390891E+02  0.45929900357E+01  0.43274163749E+01  0.43160211831E+02  0.51100000000E-03 0. -1.
         23    2    1    0    0    0  0.36557083328E+01  0.29133182095E+02  0.20407079612E+01  0.95657518090E+02  0.91016975206E+02 0.  0.
         11    1    3    3    0    0  0.46352099224E+02  0.24540192060E+02 -0.22867084136E+01  0.52497306259E+02  0.51100000000E-03 0.  1.
         22    1    1    0    0    0 -0.36557083328E+01 -0.29133182095E+02 -0.20407079612E+01  0.29432481910E+02  0.00000000000E+00 0.  1.
</event>
<event>
 5    1  0.1047411E-009  0.9118800E+02  0.7815553E-02  0.1125453E+00
         25   -1    0    0    0    0  0.00000000000E+00  0.00000000000E+00  0.99999998245E-14  0.12509000000E+03  0.12509000000E+03 0.  0.
        -11    1    3    3    0    0 -0.25123827542E+02  0.15735905038E+02  0.20906769859E+02  0.36275590194E+02  0.51100000000E-03 0.  1.
         23    2    1    0    0    0  0.19833821812E+02 -0.20287008648E+02  0.10618920525E+02  0.94796359072E+02  0.89825636723E+02 0.  0.
         11    1    3    3    0    0  0.44957649354E+02 -0.36022913686E+02 -0.10287849334E+02  0.58520768878E+02  0.51100000000E-03 0. -1.
         22    1    1    0    0    0 -0.19833821812E+02  0.20287008648E+02 -0.10618920525E+02  0.30293640928E+02  0.00000000000E+00 0. -1.
</event>
<event>
 5    1  0.1047411E-009  0.9118800E+02  0.7815553E-02  0.1125453E+00
         25   -1    0    0    0    0  0.00000000000E+00  0.00000000000E+00  0.99999998245E-14  0.12509000000E+03  0.12509000000E+03 0.  0.
        -11    1    3    3    0    0 -0.23727290404E+02 -0.94335328611E+01 -0.31551265783E+02  0.40588892876E+02  0.51100000000E-03 0. -1.
         23    2    1    0    0    0  0.16801935413E+02 -0.13172276711E+02  0.12326330545E+02  0.10043736663E+03  0.97364841106E+02 0.  0.
         11    1    3    3    0    0  0.40529225817E+02 -0.37387438498E+01  0.43877596328E+02  0.59848473754E+02  0.51100000000E-03 0.  1.
         22    1    1    0    0    0 -0.16801935413E+02  0.13172276711E+02 -0.12326330545E+02  0.24652633370E+02  0.00000000000E+00 0.  1.
</event>
<event>
 5    1  0.1047411E-009  0.9118800E+02  0.7815553E-02  0.1125453E+00
         25   -1    0    0    0    0  0.00000000000E+00  0.00000000000E+00  0.99999998245E-14  0.12509000000E+03  0.12509000000E+03 0.  0.
        -11    1    3    3    0    0 -0.30473348157E+02  0.27570129782E+02 -0.91776446217E+01  0.42106604769E+02  0.51100000000E-03 0.  1.
         23    2    1    0    0    0  0.19521882999E+02  0.20920357794E+02 -0.14835848374E+02  0.92858529617E+02  0.87085238930E+02 0.  0.
         11    1    3    3    0    0  0.49995231156E+02 -0.66497719878E+01 -0.56582037525E+01  0.50751924848E+02  0.51100000000E-03 0. -1.
         22    1    1    0    0    0 -0.19521882999E+02 -0.20920357794E+02  0.14835848374E+02  0.32231470383E+02  0.00000000000E+00 0. -1.
</event>
<event>
 5    1  0.1047411E-009  0.9118800E+02  0.7815553E-02  0.1125453E+00
         25   -1    0    0    0    0  0.00000000000E+00  0.00000000000E+00  0.99999998245E-14  0.12509000000E+03  0.12509000000E+03 0.  0.
        -11    1    3    3    0    0  0.53453724173E+02  0.64683986458E+01  0.72054828419E+01  0.54323657758E+02  0.51100000000E-03 0. -1.
         23    2    1    0    0    0  0.18189084847E+02 -0.12018427587E+02  0.19338606638E+02  0.95947812095E+02  0.91415072772E+02 0.  0.
         11    1    3    3    0    0 -0.35264639326E+02 -0.18486826232E+02  0.12133123796E+02  0.41624154336E+02  0.51100000000E-03 0.  1.
         22    1    1    0    0    0 -0.18189084847E+02  0.12018427587E+02 -0.19338606638E+02  0.29142187905E+02  0.00000000000E+00 0. -1.
</event>
<event>
 5    1  0.1047411E-009  0.9118800E+02  0.7815553E-02  0.1125453E+00
         25   -1    0    0    0    0  0.00000000000E+00  0.00000000000E+00  0.99999998245E-14  0.12509000000E+03  0.12509000000E+03 0.  0.
        -11    1    3    3    0    0  0.18356179044E+02 -0.84416078854E+01  0.34881165763E+02  0.40310120045E+02  0.51100000000E-03 0.  1.
         23    2    1    0    0    0  0.23788960208E+02 -0.51351172134E+01 -0.18781708800E+02  0.94348551725E+02  0.89199846247E+02 0.  0.
         11    1    3    3    0    0  0.54327811646E+01  0.33064906721E+01 -0.53662874563E+02  0.54038431680E+02  0.51100000000E-03 0. -1.
         22    1    1    0    0    0 -0.23788960208E+02  0.51351172134E+01  0.18781708800E+02  0.30741448275E+02  0.00000000000E+00 0.  1.
</event>
<event>
 5    1  0.1047411E-009  0.9118800E+02  0.7815553E-02  0.1125453E+00
         25   -1    0    0    0    0  0.00000000000E+00  0.00000000000E+00  0.99999998245E-14  0.12509000000E+03  0.12509000000E+03 0.  0.
        -11    1    3    3    0    0  0.20458270187E+02  0.24180585465E+02 -0.18419003382E+02  0.36640158547E+02  0.51100000000E-03 0. -1.
         23    2    1    0    0    0 -0.33931235732E+01  0.39916429565E+01  0.30201947135E+02  0.94437037471E+02  0.89323848632E+02 0.  0.
         11    1    3    3    0    0 -0.23851393761E+02 -0.20188942509E+02  0.48620950517E+02  0.57796878924E+02  0.51100000000E-03 0.  1.
         22    1    1    0    0    0  0.33931235732E+01 -0.39916429565E+01 -0.30201947135E+02  0.30652962529E+02  0.00000000000E+00 0.  1.
</event>
<event>
 5    1  0.1047411E-009  0.9118800E+02  0.7815553E-02  0.1125453E+00
         25   -1    0    0    0    0  0.00000000000E+00  0.00000000000E+00  0.99999998245E-14  0.12509000000E+03  0.12509000000E+03 0.  0.
        -11    1    3    3    0    0 -0.15196955691E+02  0.42649437184E+02  0.43032890546E+02  0.62464002621E+02  0.51100000000E-03 0. -1.
         23    2    1    0    0    0 -0.51245758045E+01  0.20327759274E+02  0.21263042597E+02  0.95230394263E+02  0.90428048396E+02 0.  0.
         11    1    3    3    0    0  0.10072379887E+02 -0.22321677911E+02 -0.21769847949E+02  0.32766391643E+02  0.51100000000E-03 0.  1.
         22    1    1    0    0    0  0.51245758045E+01 -0.20327759274E+02 -0.21263042597E+02  0.29859605737E+02  0.00000000000E+00 0. -1.
</event>
<event>
 5    1  0.1047411E-009  0.9118800E+02  0.7815553E-02  0.1125453E+00
         25   -1    0    0    0    0  0.00000000000E+00  0.00000000000E+00  0.99999998245E-14  0.12509000000E+03  0.12509000000E+03 0.  0.
        -11    1    3    3    0    0  0.16457182821E+02  0.28040079006E+02 -0.10891744390E+02  0.34288700663E+02  0.51100000000E-03 0.  1.
         23    2    1    0    0    0 -0.94581894911E+01 -0.17918305791E+02  0.20975167345E+02  0.95926998165E+02  0.91386587096E+02 0.  0.
         11    1    3    3    0    0 -0.25915372312E+02 -0.45958384796E+02  0.31866911735E+02  0.61638297502E+02  0.51100000000E-03 0. -1.
         22    1    1    0    0    0  0.94581894911E+01  0.17918305791E+02 -0.20975167345E+02  0.29163001835E+02  0.00000000000E+00 0. -1.
</event>
<event>
 4    1  0.1047411E-009  0.9118800E+02  0.7815553E-02  0.1125453E+00
         25   -1    0    0    0    0  0.00000000000E+00  0.00000000000E+00  0.99999998245E-14  0.12509000000E+03  0.12509000000E+03 0.  0.
        -11    1    1    0    0    0 -0.32888098502E+00 -0.34044051599E+02 -0.42030286069E+02  0.54089283220E+02  0.51100000000E-03 0.  1.
         11    1    1    0    0    0 -0.16118959037E+02 -0.10570028320E+01  0.38807551800E+01  0.16613198261E+02  0.51100000000E-03 0. -1.
         22    1    1    0    0    0  0.16447840022E+02  0.35101054431E+02  0.38149530889E+02  0.54387518519E+02  0.00000000000E+00 0.  1.
</event>
<event>
 5    1  0.1047411E-009  0.9118800E+02  0.7815553E-02  0.1125453E+00
         25   -1    0    0    0    0  0.00000000000E+00  0.00000000000E+00  0.99999998245E-14  0.12509000000E+03  0.12509000000E+03 0.  0.
        -11    1    3    3    0    0  0.28816404416E+02  0.24617687475E+02 -0.13797750097E+02  0.40333529577E+02  0.51100000000E-03 0. -1.
         23    2    1    0    0    0 -0.15020128338E+02  0.17776111856E+02  0.18622824861E+02  0.95283893012E+02  0.90502023479E+02 0.  0.
         11    1    3    3    0    0 -0.43836532754E+02 -0.68415756193E+01  0.32420574958E+02  0.54950363435E+02  0.51100000000E-03 0.  1.
         22    1    1    0    0    0  0.15020128338E+02 -0.17776111856E+02 -0.18622824861E+02  0.29806106988E+02  0.00000000000E+00 0.  1.
</event>
<event>
 5    1  0.1047411E-009  0.9118800E+02  0.7815553E-02  0.1125453E+00
         25   -1    0    0    0    0  0.00000000000E+00  0.00000000000E+00  0.99999998245E-14  0.12509000000E+03  0.12509000000E+03 0.  0.
        -11    1    3    3    0    0  0.65445014607E+01 -0.34090869861E+02  0.34382008730E+02  0.48858371154E+02  0.51100000000E-03 0. -1.
         23    2    1    0    0    0  0.27579229549E+02 -0.20095561104E+01  0.54547292162E+01  0.96904785984E+02  0.92715323747E+02 0.  0.
         11    1    3    3    0    0  0.21034728088E+02  0.32081313751E+02 -0.28927279514E+02  0.48046414830E+02  0.51100000000E-03 0.  1.
         22    1    1    0    0    0 -0.27579229549E+02  0.20095561104E+01 -0.54547292162E+01  0.28185214016E+02  0.00000000000E+00 0.  1.
</event>
<event>
 5    1  0.1047411E-009  0.9118800E+02  0.7815553E-02  0.1125453E+00
         25   -1    0    0    0    0  0.00000000000E+00  0.00000000000E+00  0.99999998245E-14  0.12509000000E+03  0.12509000000E+03 0.  0.
        -11    1    3    3    0    0  0.80310107327E+01  0.17024635011E+02 -0.46239273199E+02  0.49923999408E+02  0.51100000000E-03 0.  1.
         23    2    1    0    0    0 -0.18344354759E+02  0.20691808523E+02 -0.84082423713E+01  0.96187321383E+02  0.91742225630E+02 0.  0.
         11    1    3    3    0    0 -0.26375365492E+02  0.36671735120E+01  0.37831030828E+02  0.46263321975E+02  0.51100000000E-03 0. -1.
         22    1    1    0    0    0  0.18344354759E+02 -0.20691808523E+02  0.84082423713E+01  0.28902678617E+02  0.00000000000E+00 0. -1.
</event>
<event>
 5    1  0.1047411E-009  0.9118800E+02  0.7815553E-02  0.1125453E+00
         25   -1    0    0    0    0  0.00000000000E+00  0.00000000000E+00  0.99999998245E-14  0.12509000000E+03  0.12509000000E+03 0.  0.
        -11    1    3    3    0    0 -0.13927762658E+02  0.12240582641E+02 -0.45519158166E+02  0.49150871777E+02  0.51100000000E-03 0.  1.
         23    2    1    0    0    0  0.98070965345E+01 -0.18816984984E+02 -0.20657315961E+02  0.95476105136E+02  0.90767306245E+02 0.  0.
         11    1    3    3    0    0  0.23734859193E+02 -0.31057567624E+02  0.24861842206E+02  0.46325233359E+02  0.51100000000E-03 0. -1.
         22    1    1    0    0    0 -0.98070965345E+01  0.18816984984E+02  0.20657315961E+02  0.29613894864E+02  0.00000000000E+00 0. -1.
</event>
<event>
 5    1  0.1047411E-009  0.9118800E+02  0.7815553E-02  0.1125453E+00
         25   -1    0    0    0    0  0.00000000000E+00  0.00000000000E+00  0.99999998245E-14  0.12509000000E+03  0.12509000000E+03 0.  0.
        -11    1    3    3    0    0  0.10606013082E+02  0.33397375043E+02 -0.25646175004E+02  0.43423478279E+02  0.51100000000E-03 0.  1.
         23    2    1    0    0    0  0.26590021644E+01  0.20548173975E+02  0.22865558664E+02  0.94233371552E+02  0.89038176053E+02 0.  0.
         11    1    3    3    0    0 -0.79470109175E+01 -0.12849201069E+02  0.48511733668E+02  0.50809893272E+02  0.51100000000E-03 0. -1.
         22    1    1    0    0    0 -0.26590021644E+01 -0.20548173975E+02 -0.22865558664E+02  0.30856628448E+02  0.00000000000E+00 0.  1.
</event>
<event>
 5    1  0.1047411E-009  0.9118800E+02  0.7815553E-02  0.1125453E+00
         25   -1    0    0    0    0  0.00000000000E+00  0.00000000000E+00  0.99999998245E-14  0.12509000000E+03  0.12509000000E+03 0.  0.
        -11    1    3    3    0    0  0.24874197414E+02  0.38408672815E+02 -0.14528462796E+02  0.48010707930E+02  0.51100000000E-03 0.  1.
         23    2    1    0    0    0 -0.17067341315E+02  0.23155868807E+02  0.34356951483E+01  0.96119456323E+02  0.91649645296E+02 0.  0.
         11    1    3    3    0    0 -0.41941538729E+02 -0.15252804008E+02  0.17964157944E+02  0.48108748394E+02  0.51100000000E-03 0. -1.
         22    1    1    0    0    0  0.17067341315E+02 -0.23155868807E+02 -0.34356951483E+01  0.28970543677E+02  0.00000000000E+00 0.  1.
</event>
<event>
 5    1  0.1047411E-009  0.9118800E+02  0.7815553E-02  0.1125453E+00
         25   -1    0    0    0    0  0.00000000000E+00  0.00000000000E+00  0.99999998245E-14  0.12509000000E+03  0.12509000000E+03 0.  0.
        -11    1    3    3    0    0 -0.16177920517E+02  0.22932527359E+02  0.34137752089E+02  0.44192895823E+02  0.51100000000E-03 0.  1.
         23    2    1    0    0    0 -0.21671741140E+02 -0.19735992743E+02  0.73538747278E+01  0.94869919803E+02  0.89928018083E+02 0.  0.
         11    1    3    3    0    0 -0.54938206235E+01 -0.42668520102E+02 -0.26783877361E+02  0.50677023980E+02  0.51100000000E-03 0. -1.
         22    1    1    0    0    0  0.21671741140E+02  0.19735992743E+02 -0.73538747278E+01  0.30220080197E+02  0.00000000000E+00 0. -1.
</event>
<event>
 5    1  0.1047411E-009  0.9118800E+02  0.7815553E-02  0.1125453E+00
         25   -1    0    0    0    0  0.00000000000E+00  0.00000000000E+00  0.99999998245E-14  0.12509000000E+03  0.12509000000E+03 0.  0.
        -11    1    3    3    0    0 -0.46566859880E+02 -0.63450321204E+01  0.11283371427E+02  0.48332663310E+02  0.51100000000E-03 0.  1.
         23    2    1    0    0    0 -0.12468242150E+02 -0.95565099306E+01 -0.23289234080E+02  0.96997788119E+02  0.92840715915E+02 0.  0.
         11    1    3    3    0    0  0.34098617730E+02 -0.32114778102E+01 -0.34572605507E+02  0.48665124808E+02  0.51100000000E-03 0. -1.
         22    1    1    0    0    0  0.12468242150E+02  0.95565099306E+01  0.23289234080E+02  0.28092211881E+02  0.00000000000E+00 0.  1.
</event>
<event>
 5    1  0.1047411E-009  0.9118800E+02  0.7815553E-02  0.1125453E+00
         25   -1    0    0    0    0  0.00000000000E+00  0.00000000000E+00  0.99999998245E-14  0.12509000000E+03  0.12509000000E+03 0.  0.
        -11    1    3    3    0    0  0.34731327132E+02 -0.27319934224E+02 -0.23446123365E+01  0.44250888099E+02  0.51100000000E-03 0. -1.
         23    2    1    0    0    0 -0.19701224766E+02 -0.65680328886E+01 -0.81224711706E+01  0.10279085537E+03  0.10034295240E+03 0.  0.
         11    1    3    3    0    0 -0.54432551898E+02  0.20751901335E+02 -0.57778588341E+01  0.58539967271E+02  0.51100000000E-03 0.  1.
         22    1    1    0    0    0  0.19701224766E+02  0.65680328886E+01  0.81224711706E+01  0.22299144630E+02  0.00000000000E+00 0.  1.
</event>
<event>
 5    1  0.1047411E-009  0.9118800E+02  0.7815553E-02  0.1125453E+00
         25   -1    0    0    0    0  0.00000000000E+00  0.00000000000E+00  0.99999998245E-14  0.12509000000E+03  0.12509000000E+03 0.  0.
        -11    1    3    3    0    0 -0.28602666782E+02  0.29017899377E+02  0.36607319172E+02  0.54774509113E+02  0.51100000000E-03 0.  1.
         23    2    1    0    0    0  0.78481585759E+01  0.21320007900E+02  0.12334905069E+02  0.99238767671E+02  0.95812560742E+02 0.  0.
         11    1    3    3    0    0  0.36450825358E+02 -0.76978914777E+01 -0.24272414103E+02  0.44464258558E+02  0.51100000000E-03 0. -1.
         22    1    1    0    0    0 -0.78481585759E+01 -0.21320007900E+02 -0.12334905069E+02  0.25851232329E+02  0.00000000000E+00 0.  1.
</event>
<event>
 5    1  0.1047411E-009  0.9118800E+02  0.7815553E-02  0.1125453E+00
         25   -1    0    0    0    0  0.00000000000E+00  0.00000000000E+00  0.99999998245E-14  0.12509000000E+03  0.12509000000E+03 0.  0.
        -11    1    3    3    0    0 -0.22615252011E+02  0.38765666520E+02  0.85257383085E+01  0.45682761938E+02  0.51100000000E-03 0.  1.
         23    2    1    0    0    0 -0.25901058944E+02 -0.10784802234E+02  0.98354594408E+01  0.95359324326E+02  0.90606223074E+02 0.  0.
         11    1    3    3    0    0 -0.32858069327E+01 -0.49550468754E+02  0.13097211323E+01  0.49676562388E+02  0.51100000000E-03 0. -1.
         22    1    1    0    0    0  0.25901058944E+02  0.10784802234E+02 -0.98354594408E+01  0.29730675674E+02  0.00000000000E+00 0. -1.
</event>
<event>
 5    1  0.1047411E-009  0.9118800E+02  0.7815553E-02  0.1125453E+00
         25   -1    0    0    0    0  0.00000000000E+00  0.00000000000E+00  0.99999998245E-14  0.12509000000E+03  0.12509000000E+03 0.  0.
        -11    1    3    3    0    0  0.12630409184E+02 -0.25642225256E+02  0.17216001217E+02  0.33368273111E+02  0.51100000000E-03 0.  1.
         23    2    1    0    0    0  0.76575241808E+00  0.15923812483E+02 -0.26063728339E+02  0.94537224092E+02  0.89464040952E+02 0.  0.
         11    1    3    3    0    0 -0.11864656766E+02  0.41566037739E+02 -0.43279729556E+02  0.61168950981E+02  0.51100000000E-03 0. -1.
         22    1    1    0    0    0 -0.76575241808E+00 -0.15923812483E+02  0.26063728339E+02  0.30552775908E+02  0.00000000000E+00 0. -1.
</event>
<event>
 5    1  0.1047411E-009  0.9118800E+02  0.7815553E-02  0.1125453E+00
         25   -1    0    0    0    0  0.00000000000E+00  0.00000000000E+00  0.99999998245E-14  0.12509000000E+03  0.12509000000E+03 0.  0.
        -11    1    3    3    0    0  0.27951278547E+02 -0.74605892654E+00  0.25430936076E+02  0.37796336943E+02  0.51100000000E-03 0.  1.
         23    2    1    0    0    0 -0.10710311367E+02 -0.24605587625E+02 -0.11056724464E+02  0.96065926064E+02  0.91576554220E+02 0.  0.
         11    1    3    3    0    0 -0.38661589914E+02 -0.23859528699E+02 -0.36487660540E+02  0.58269589121E+02  0.51100000000E-03 0. -1.
         22    1    1    0    0    0  0.10710311367E+02  0.24605587625E+02  0.11056724464E+02  0.29024073936E+02  0.00000000000E+00 0. -1.
</event>
<event>
 5    1  0.1047411E-009  0.9118800E+02  0.7815553E-02  0.1125453E+00
         25   -1    0    0    0    0  0.00000000000E+00  0.00000000000E+00  0.99999998245E-14  0.12509000000E+03  0.12509000000E+03 0.  0.
        -11    1    3    3    0    0  0.28067486193E+02 -0.25406508302E+02  0.18243536213E+01  0.37902542286E+02  0.51100000000E-03 0.  1.
         23    2    1    0    0    0 -0.20982332567E+02 -0.59047876691E+01  0.21726073277E+02  0.94314245624E+02  0.89151723877E+02 0.  0.
         11    1    3    3    0    0 -0.49049818760E+02  0.19501720633E+02  0.19901719655E+02  0.56411703339E+02  0.51100000000E-03 0. -1.
         22    1    1    0    0    0  0.20982332567E+02  0.59047876691E+01 -0.21726073277E+02  0.30775754376E+02  0.00000000000E+00 0. -1.
</event>
<event>
 5    1  0.1047411E-009  0.9118800E+02  0.7815553E-02  0.1125453E+00
         25   -1    0    0    0    0  0.00000000000E+00  0.00000000000E+00  0.99999998245E-14  0.12509000000E+03  0.12509000000E+03 0.  0.
        -11    1    3    3    0    0 -0.74916368567E+01 -0.49496592582E+02 -0.22914032676E+02  0.55055337559E+02  0.51100000000E-03 0.  1.
         23    2    1    0    0    0 -0.26952569429E+00 -0.93685224852E+01 -0.27454156012E+02  0.96080130300E+02  0.91595954597E+02 0.  0.
         11    1    3    3    0    0  0.72221111624E+01  0.40128070097E+02 -0.45401233362E+01  0.41024792741E+02  0.51100000000E-03 0. -1.
         22    1    1    0    0    0  0.26952569429E+00  0.93685224852E+01  0.27454156012E+02  0.29009869700E+02  0.00000000000E+00 0.  1.
</event>
<event>
 5    1  0.1047411E-009  0.9118800E+02  0.7815553E-02  0.1125453E+00
         25   -1    0    0    0    0  0.00000000000E+00  0.00000000000E+00  0.99999998245E-14  0.12509000000E+03  0.12509000000E+03 0.  0.
        -11    1    3    3    0    0  0.41505724201E+02 -0.39730416645E+02  0.11616979227E+02  0.58618984595E+02  0.51100000000E-03 0.  1.
         23    2    1    0    0    0  0.63973789278E+01 -0.27429458947E+02  0.66494558017E+01  0.96150115105E+02  0.91691481049E+02 0.  0.
         11    1    3    3    0    0 -0.35108345274E+02  0.12300957698E+02 -0.49675234251E+01  0.37531130510E+02  0.51100000000E-03 0. -1.
         22    1    1    0    0    0 -0.63973789278E+01  0.27429458947E+02 -0.66494558017E+01  0.28939884895E+02  0.00000000000E+00 0.  1.
</event>
<event>
 5    1  0.1047411E-009  0.9118800E+02  0.7815553E-02  0.1125453E+00
         25   -1    0    0    0    0  0.00000000000E+00  0.00000000000E+00  0.99999998245E-14  0.12509000000E+03  0.12509000000E+03 0.  0.
        -11    1    3    3    0    0 -0.12515429880E+02 -0.74404166502E+01  0.54028287596E+02  0.55955800824E+02  0.51100000000E-03 0. -1.
         23    2    1    0    0    0  0.12685600577E+02  0.24139759735E+01  0.31074210218E+02  0.91439468315E+02  0.85022456346E+02 0.  0.
         11    1    3    3    0    0  0.25201030457E+02  0.98543926237E+01 -0.22954077378E+02  0.35483667491E+02  0.51100000000E-03 0.  1.
         22    1    1    0    0    0 -0.12685600577E+02 -0.24139759735E+01 -0.31074210218E+02  0.33650531685E+02  0.00000000000E+00 0. -1.
</event>
<event>
 5    1  0.1047411E-009  0.9118800E+02  0.7815553E-02  0.1125453E+00
         25   -1    0    0    0    0  0.00000000000E+00  0.00000000000E+00  0.99999998245E-14  0.12509000000E+03  0.12509000000E+03 0.  0.
        -11    1    3    3    0    0 -0.21655223625E+02  0.28947538698E+02  0.11115998945E+02  0.37821609428E+02  0.51100000000E-03 0. -1.
         23    2    1    0    0    0  0.13689876188E+02 -0.11996049490E+02  0.25471221212E+02  0.93783434819E+02  0.88403798691E+02 0.  0.
         11    1    3    3    0    0  0.35345099813E+02 -0.40943588188E+02  0.14355222267E+02  0.55961825391E+02  0.51100000000E-03 0.  1.
         22    1    1    0    0    0 -0.13689876188E+02  0.11996049490E+02 -0.25471221212E+02  0.31306565181E+02  0.00000000000E+00 0.  1.
</event>
<event>
 5    1  0.1047411E-009  0.9118800E+02  0.7815553E-02  0.1125453E+00
         25   -1    0    0    0    0  0.00000000000E+00  0.00000000000E+00  0.99999998245E-14  0.12509000000E+03  0.12509000000E+03 0.  0.
        -11    1    3    3    0    0  0.38240525151E+02 -0.34638460091E+02  0.20453134723E+02  0.55502174746E+02  0.51100000000E-03 0.  1.
         23    2    1    0    0    0  0.57112991949E+01 -0.13177416020E+02  0.26508799986E+02  0.94940709658E+02  0.90026433019E+02 0.  0.
         11    1    3    3    0    0 -0.32529225956E+02  0.21461044071E+02  0.60556652624E+01  0.39438534911E+02  0.51100000000E-03 0. -1.
         22    1    1    0    0    0 -0.57112991949E+01  0.13177416020E+02 -0.26508799986E+02  0.30149290342E+02  0.00000000000E+00 0. -1.
</event>
<event>
 5    1  0.1047411E-009  0.9118800E+02  0.7815553E-02  0.1125453E+00
         25   -1    0    0    0    0  0.00000000000E+00  0.00000000000E+00  0.99999998245E-14  0.12509000000E+03  0.12509000000E+03 0.  0.
        -11    1    3    3    0    0  0.18384083584E+02  0.28064360297E+02  0.51599483109E+02  0.61547457344E+02  0.51100000000E-03 0.  1.
         23    2    1    0    0    0  0.15401235429E+02  0.96414841912E+01  0.21776723335E+02  0.96728371885E+02  0.92477002429E+02 0.  0.
         11    1    3    3    0    0 -0.29828481555E+01 -0.18422876106E+02 -0.29822759774E+02  0.35180914541E+02  0.51100000000E-03 0. -1.
         22    1    1    0    0    0 -0.15401235429E+02 -0.96414841912E+01 -0.21776723335E+02  0.28361628115E+02  0.00000000000E+00 0.  1.
</event>
<event>
 5    1  0.1047411E-009  0.9118800E+02  0.7815553E-02  0.1125453E+00
         25   -1    0    0    0    0  0.00000000000E+00  0.00000000000E+00  0.99999998245E-14  0.12509000000E+03  0.12509000000E+03 0.  0.
        -11    1    3    3    0    0 -0.37355331799E+02  0.20238884061E+02 -0.39935509818E+02  0.58308474398E+02  0.51100000000E-03 0.  1.
         23    2    1    0    0    0 -0.23770646508E+02 -0.52885085845E+01 -0.21524102429E+02  0.92589247027E+02  0.86697576213E+02 0.  0.
         11    1    3    3    0    0  0.13584685291E+02 -0.25527392645E+02  0.18411407389E+02  0.34280772629E+02  0.51100000000E-03 0. -1.
         22    1    1    0    0    0  0.23770646508E+02  0.52885085845E+01  0.21524102429E+02  0.32500752973E+02  0.00000000000E+00 0.  1.
</event>
<event>
 5    1  0.1047411E-009  0.9118800E+02  0.7815553E-02  0.1125453E+00
         25   -1    0    0    0    0  0.00000000000E+00  0.00000000000E+00  0.99999998245E-14  0.12509000000E+03  0.12509000000E+03 0.  0.
        -11    1    3    3    0    0  0.65376853217E+01 -0.33770774490E+02 -0.20648170195E+01  0.34459686716E+02  0.51100000000E-03 0.  1.
         23    2    1    0    0    0  0.45995935325E+01  0.24974579160E+02  0.14913534784E+02  0.95640052892E+02  0.90992968589E+02 0.  0.
         11    1    3    3    0    0 -0.19380917892E+01  0.58745353650E+02  0.16978351804E+02  0.61180366176E+02  0.51100000000E-03 0. -1.
         22    1    1    0    0    0 -0.45995935325E+01 -0.24974579160E+02 -0.14913534784E+02  0.29449947108E+02  0.00000000000E+00 0. -1.
</event>
<event>
 5    1  0.1047411E-009  0.9118800E+02  0.7815553E-02  0.1125453E+00
         25   -1    0    0    0    0  0.00000000000E+00  0.00000000000E+00  0.99999998245E-14  0.12509000000E+03  0.12509000000E+03 0.  0.
        -11    1    3    3    0    0  0.10058424611E+02  0.13518489542E+02  0.56677262539E+02  0.59128956986E+02  0.51100000000E-03 0. -1.
         23    2    1    0    0    0  0.12776450294E+02 -0.58005001662E+01  0.27317608931E+02  0.94379492971E+02  0.89243226361E+02 0.  0.
         11    1    3    3    0    0  0.27180256834E+01 -0.19318989708E+02 -0.29359653608E+02  0.35250535984E+02  0.51100000000E-03 0.  1.
         22    1    1    0    0    0 -0.12776450294E+02  0.58005001662E+01 -0.27317608931E+02  0.30710507029E+02  0.00000000000E+00 0. -1.
</event>
<event>
 5    1  0.1047411E-009  0.9118800E+02  0.7815553E-02  0.1125453E+00
         25   -1    0    0    0    0  0.00000000000E+00  0.00000000000E+00  0.99999998245E-14  0.12509000000E+03  0.12509000000E+03 0.  0.
        -11    1    3    3    0    0 -0.44606424612E+02 -0.34669589006E+02 -0.24945899426E+02  0.61757683060E+02  0.51100000000E-03 0.  1.
         23    2    1    0    0    0 -0.14765256248E+02 -0.12246872441E+02 -0.15922893079E+02  0.10015935218E+03  0.97007002988E+02 0.  0.
         11    1    3    3    0    0  0.29841168364E+02  0.22422716565E+02  0.90230063470E+01  0.38401669121E+02  0.51100000000E-03 0. -1.
         22    1    1    0    0    0  0.14765256248E+02  0.12246872441E+02  0.15922893079E+02  0.24930647819E+02  0.00000000000E+00 0.  1.
</event>
<event>
 5    1  0.1047411E-009  0.9118800E+02  0.7815553E-02  0.1125453E+00
         25   -1    0    0    0    0  0.00000000000E+00  0.00000000000E+00  0.99999998245E-14  0.12509000000E+03  0.12509000000E+03 0.  0.
        -11    1    3    3    0    0 -0.24142619322E+02  0.37546601216E+02 -0.61236370551E+01  0.45056767101E+02  0.51100000000E-03 0. -1.
         23    2    1    0    0    0 -0.21198915937E+02 -0.35694772642E+01  0.21506596685E+02  0.94681630991E+02  0.89665725566E+02 0.  0.
         11    1    3    3    0    0  0.29437033854E+01 -0.41116078480E+02  0.27630233740E+02  0.49624863889E+02  0.51100000000E-03 0.  1.
         22    1    1    0    0    0  0.21198915937E+02  0.35694772642E+01 -0.21506596685E+02  0.30408369009E+02  0.00000000000E+00 0.  1.
</event>
<event>
 5    1  0.1047411E-009  0.9118800E+02  0.7815553E-02  0.1125453E+00
         25   -1    0    0    0    0  0.00000000000E+00  0.00000000000E+00  0.99999998245E-14  0.12509000000E+03  0.12509000000E+03 0.  0.
        -11    1    3    3    0    0 -0.89869055100E+01 -0.10301733040E+02  0.33923798496E+02  0.36574776540E+02  0.51100000000E-03 0. -1.
         23    2    1    0    0    0  0.60021793576E+01  0.25802151621E+02 -0.11245294983E+02  0.96310947817E+02  0.91910634993E+02 0.  0.
         11    1    3    3    0    0  0.14989084868E+02  0.36103884661E+02 -0.45169093479E+02  0.59736171277E+02  0.51100000000E-03 0.  1.
         22    1    1    0    0    0 -0.60021793576E+01 -0.25802151621E+02  0.11245294983E+02  0.28779052183E+02  0.00000000000E+00 0.  1.
</event>
<event>
 5    1  0.1047411E-009  0.9118800E+02  0.7815553E-02  0.1125453E+00
         25   -1    0    0    0    0  0.00000000000E+00  0.00000000000E+00  0.99999998245E-14  0.12509000000E+03  0.12509000000E+03 0.  0.
        -11    1    3    3    0    0 -0.35645742385E+02  0.16105879530E+02 -0.85208910874E+01  0.40032785200E+02  0.51100000000E-03 0.  1.
         23    2    1    0    0    0  0.19607691907E+02  0.97982303238E+01 -0.18345648442E+02  0.96506268330E+02  0.92176082098E+02 0.  0.
         11    1    3    3    0    0  0.55253434292E+02 -0.63076492066E+01 -0.98247573549E+01  0.56473483131E+02  0.51100000000E-03 0. -1.
         22    1    1    0    0    0 -0.19607691907E+02 -0.97982303238E+01  0.18345648442E+02  0.28583731670E+02  0.00000000000E+00 0.  1.
</event>
<event>
 5    1  0.1047411E-009  0.9118800E+02  0.7815553E-02  0.1125453E+00
         25   -1    0    0    0    0  0.00000000000E+00  0.00000000000E+00  0.99999998245E-14  0.12509000000E+03  0.12509000000E+03 0.  0.
        -11    1    3    3    0    0  0.14743246367E+02  0.30582572831E+02  0.31667756586E+02  0.46427404427E+02  0.51100000000E-03 0.  1.
         23    2    1    0    0    0 -0.23566375662E+02  0.10858563321E+01  0.11971665334E+02  0.98634869747E+02  0.95020858833E+02 0.  0.
         11    1    3    3    0    0 -0.38309622029E+02 -0.29496716499E+02 -0.19696091252E+02  0.52207465320E+02  0.51100000000E-03 0. -1.
         22    1    1    0    0    0  0.23566375662E+02 -0.10858563321E+01 -0.11971665334E+02  0.26455130253E+02  0.00000000000E+00 0.  1.
</event>
<event>
 5    1  0.1047411E-009  0.9118800E+02  0.7815553E-02  0.1125453E+00
         25   -1    0    0    0    0  0.00000000000E+00  0.00000000000E+00  0.99999998245E-14  0.12509000000E+03  0.12509000000E+03 0.  0.
        -11    1    3    3    0    0  0.19084035731E+02 -0.30578390490E+02 -0.89686684653E+01  0.37143982003E+02  0.51100000000E-03 0. -1.
         23    2    1    0    0    0 -0.22668547021E+02  0.55720737840E+01 -0.21026600417E+02  0.93672983028E+02  0.88247372732E+02 0.  0.
         11    1    3    3    0    0 -0.41752582751E+02  0.36150464275E+02 -0.12057931952E+02  0.56529001025E+02  0.51100000000E-03 0.  1.
         22    1    1    0    0    0  0.22668547021E+02 -0.55720737840E+01  0.21026600417E+02  0.31417016972E+02  0.00000000000E+00 0.  1.
</event>
<event>
 5    1  0.1047411E-009  0.9118800E+02  0.7815553E-02  0.1125453E+00
         25   -1    0    0    0    0  0.00000000000E+00  0.00000000000E+00  0.99999998245E-14  0.12509000000E+03  0.12509000000E+03 0.  0.
        -11    1    3    3    0    0  0.42301342929E+02  0.12542253190E+02  0.23765632990E+02  0.50115038066E+02  0.51100000000E-03 0. -1.
         23    2    1    0    0    0  0.24272240035E+02 -0.70085391771E+01 -0.13924125047E+02  0.96243119474E+02  0.91818274489E+02 0.  0.
         11    1    3    3    0    0 -0.18029102893E+02 -0.19550792367E+02 -0.37689758037E+02  0.46128081409E+02  0.51100000000E-03 0.  1.
         22    1    1    0    0    0 -0.24272240035E+02  0.70085391771E+01  0.13924125047E+02  0.28846880526E+02  0.00000000000E+00 0. -1.
</event>
<event>
 5    1  0.1047411E-009  0.9118800E+02  0.7815553E-02  0.1125453E+00
         25   -1    0    0    0    0  0.00000000000E+00  0.00000000000E+00  0.99999998245E-14  0.12509000000E+03  0.12509000000E+03 0.  0.
        -11    1    3    3    0    0  0.53492665974E+01  0.14260591383E+02 -0.37265666054E+02  0.40258030086E+02  0.51100000000E-03 0. -1.
         23    2    1    0    0    0 -0.32890404127E+02  0.11890442660E+01 -0.53653401587E+01  0.91743645103E+02  0.85468807362E+02 0.  0.
         11    1    3    3    0    0 -0.38239670724E+02 -0.13071547117E+02  0.31900325895E+02  0.51485615017E+02  0.51100000000E-03 0.  1.
         22    1    1    0    0    0  0.32890404127E+02 -0.11890442660E+01  0.53653401587E+01  0.33346354897E+02  0.00000000000E+00 0.  1.
</event>
<event>
 5    1  0.1047411E-009  0.9118800E+02  0.7815553E-02  0.1125453E+00
         25   -1    0    0    0    0  0.00000000000E+00  0.00000000000E+00  0.99999998245E-14  0.12509000000E+03  0.12509000000E+03 0.  0.
        -11    1    3    3    0    0 -0.87176124673E+01 -0.18308909218E+02  0.30943378633E+02  0.36996021480E+02  0.51100000000E-03 0. -1.
         23    2    1    0    0    0  0.62499521123E+01 -0.12598066445E+02 -0.25663372680E+02  0.95825996910E+02  0.91248231801E+02 0.  0.
         11    1    3    3    0    0  0.14967564580E+02  0.57108427728E+01 -0.56606751313E+02  0.58829975430E+02  0.51100000000E-03 0.  1.
         22    1    1    0    0    0 -0.62499521123E+01  0.12598066445E+02  0.25663372680E+02  0.29264003090E+02  0.00000000000E+00 0.  1.
</event>
<event>
 5    1  0.1047411E-009  0.9118800E+02  0.7815553E-02  0.1125453E+00
         25   -1    0    0    0    0  0.00000000000E+00  0.00000000000E+00  0.99999998245E-14  0.12509000000E+03  0.12509000000E+03 0.  0.
        -11    1    3    3    0    0 -0.44993949400E+02 -0.42683676912E+02 -0.77050722069E+01  0.62495759019E+02  0.51100000000E-03 0.  1.
         23    2    1    0    0    0 -0.21427191301E+02 -0.19393000918E+02 -0.19635332402E+01  0.96123321308E+02  0.91654920353E+02 0.  0.
         11    1    3    3    0    0  0.23566758100E+02  0.23290675994E+02  0.57415389667E+01  0.33627562290E+02  0.51100000000E-03 0. -1.
         22    1    1    0    0    0  0.21427191301E+02  0.19393000918E+02  0.19635332402E+01  0.28966678692E+02  0.00000000000E+00 0.  1.
</event>
<event>
 5    1  0.1047411E-009  0.9118800E+02  0.7815553E-02  0.1125453E+00
         25   -1    0    0    0    0  0.00000000000E+00  0.00000000000E+00  0.99999998245E-14  0.12509000000E+03  0.12509000000E+03 0.  0.
        -11    1    3    3    0    0  0.15700102740E+02 -0.38149125926E+02  0.17385195120E+02  0.44767108960E+02  0.51100000000E-03 0.  1.
         23    2    1    0    0    0  0.16149862865E+02  0.23087509764E+01  0.33112582705E+02  0.88176702463E+02  0.80078332415E+02 0.  0.
         11    1    3    3    0    0  0.44976012484E+00  0.40457876903E+02  0.15727387585E+02  0.43409593504E+02  0.51100000000E-03 0. -1.
         22    1    1    0    0    0 -0.16149862865E+02 -0.23087509764E+01 -0.33112582705E+02  0.36913297537E+02  0.00000000000E+00 0.  1.
</event>
<event>
 5    1  0.1047411E-009  0.9118800E+02  0.7815553E-02  0.1125453E+00
         25   -1    0    0    0    0  0.00000000000E+00  0.00000000000E+00  0.99999998245E-14  0.12509000000E+03  0.12509000000E+03 0.  0.
        -11    1    3    3    0    0 -0.29882485098E+02  0.29164905107E+02 -0.26771238767E+01  0.41841625184E+02  0.51100000000E-03 0. -1.
         23    2    1    0    0    0  0.22760471482E+02  0.18168001723E+02 -0.43363246537E+01  0.95646510733E+02  0.91001845889E+02 0.  0.
         11    1    3    3    0    0  0.52642956580E+02 -0.10996903384E+02 -0.16592007770E+01  0.53804885550E+02  0.51100000000E-03 0.  1.
         22    1    1    0    0    0 -0.22760471482E+02 -0.18168001723E+02  0.43363246537E+01  0.29443489267E+02  0.00000000000E+00 0.  1.
</event>
<event>
 5    1  0.1047411E-009  0.9118800E+02  0.7815553E-02  0.1125453E+00
         25   -1    0    0    0    0  0.00000000000E+00  0.00000000000E+00  0.99999998245E-14  0.12509000000E+03  0.12509000000E+03 0.  0.
        -11    1    3    3    0    0  0.31841487679E+02  0.17491925578E+02  0.63865238898E+01  0.36886792836E+02  0.51100000000E-03 0. -1.
         23    2    1    0    0    0 -0.61925222179E+01 -0.16842769428E+02 -0.22971128665E+02  0.95940403681E+02  0.91404934729E+02 0.  0.
         11    1    3    3    0    0 -0.38034009897E+02 -0.34334695006E+02 -0.29357652555E+02  0.59053610845E+02  0.51100000000E-03 0.  1.
         22    1    1    0    0    0  0.61925222179E+01  0.16842769428E+02  0.22971128665E+02  0.29149596319E+02  0.00000000000E+00 0.  1.
</event>
<event>
 5    1  0.1047411E-009  0.9118800E+02  0.7815553E-02  0.1125453E+00
         25   -1    0    0    0    0  0.00000000000E+00  0.00000000000E+00  0.99999998245E-14  0.12509000000E+03  0.12509000000E+03 0.  0.
        -11    1    3    3    0    0 -0.13988289201E+02  0.17163550764E+02  0.16406082489E+02  0.27557562528E+02  0.51100000000E-03 0.  1.
         23    2    1    0    0    0  0.89017882692E+01  0.80815569396E+01 -0.36901959488E+02  0.86278815903E+02  0.77056641912E+02 0.  0.
         11    1    3    3    0    0  0.22890077470E+02 -0.90819938244E+01 -0.53308041976E+02  0.58721253376E+02  0.51100000000E-03 0. -1.
         22    1    1    0    0    0 -0.89017882692E+01 -0.80815569396E+01  0.36901959488E+02  0.38811184097E+02  0.00000000000E+00 0. -1.
</event>
<event>
 5    1  0.1047411E-009  0.9118800E+02  0.7815553E-02  0.1125453E+00
         25   -1    0    0    0    0  0.00000000000E+00  0.00000000000E+00  0.99999998245E-14  0.12509000000E+03  0.12509000000E+03 0.  0.
        -11    1    3    3    0    0  0.29313094449E+02 -0.26149044484E+02 -0.44859118484E+02  0.59626928019E+02  0.51100000000E-03 0.  1.
         23    2    1    0    0    0  0.68185533347E+01 -0.38700753500E+01 -0.29023033046E+02  0.95026623610E+02  0.90145729764E+02 0.  0.
         11    1    3    3    0    0 -0.22494541115E+02  0.22278969134E+02  0.15836085438E+02  0.35399695590E+02  0.51100000000E-03 0. -1.
         22    1    1    0    0    0 -0.68185533347E+01  0.38700753500E+01  0.29023033046E+02  0.30063376390E+02  0.00000000000E+00 0.  1.
</event>
<event>
 5    1  0.1047411E-009  0.9118800E+02  0.7815553E-02  0.1125453E+00
         25   -1    0    0    0    0  0.00000000000E+00  0.00000000000E+00  0.99999998245E-14  0.12509000000E+03  0.12509000000E+03 0.  0.
        -11    1    3    3    0    0 -0.27898461051E+01 -0.36896437672E+02 -0.13278090326E+02  0.39312059691E+02  0.51100000000E-03 0. -1.
         23    2    1    0    0    0  0.14364429551E+01 -0.16533399105E+01  0.29844919071E+02  0.95164825054E+02  0.90337300336E+02 0.  0.
         11    1    3    3    0    0  0.42262890602E+01  0.35243097761E+02  0.43123009397E+02  0.55852765363E+02  0.51100000000E-03 0.  1.
         22    1    1    0    0    0 -0.14364429551E+01  0.16533399105E+01 -0.29844919071E+02  0.29925174946E+02  0.00000000000E+00 0.  1.
</event>
<event>
 5    1  0.1047411E-009  0.9118800E+02  0.7815553E-02  0.1125453E+00
         25   -1    0    0    0    0  0.00000000000E+00  0.00000000000E+00  0.99999998245E-14  0.12509000000E+03  0.12509000000E+03 0.  0.
        -11    1    3    3    0    0  0.84352064793E+01  0.95909846382E+01 -0.60849444775E+02  0.62175514669E+02  0.51100000000E-03 0.  1.
         23    2    1    0    0    0 -0.10192969019E+01  0.37175020038E+01 -0.27205086688E+02  0.97613181970E+02  0.93666203966E+02 0.  0.
         11    1    3    3    0    0 -0.94545033812E+01 -0.58734826343E+01  0.33644358087E+02  0.35437667302E+02  0.51100000000E-03 0. -1.
         22    1    1    0    0    0  0.10192969019E+01 -0.37175020038E+01  0.27205086688E+02  0.27476818030E+02  0.00000000000E+00 0.  1.
</event>
<event>
 5    1  0.1047411E-009  0.9118800E+02  0.7815553E-02  0.1125453E+00
         25   -1    0    0    0    0  0.00000000000E+00  0.00000000000E+00  0.99999998245E-14  0.12509000000E+03  0.12509000000E+03 0.  0.
        -11    1    3    3    0    0 -0.32393695137E+02  0.36373383482E+02  0.16538444998E+01  0.48735097337E+02  0.51100000000E-03 0. -1.
         23    2    1    0    0    0  0.75535641439E+01  0.18232548239E+02  0.20633550692E+02  0.96537844903E+02  0.92218923968E+02 0.  0.
         11    1    3    3    0    0  0.39947259281E+02 -0.18140835244E+02  0.18979706192E+02  0.47802747565E+02  0.51100000000E-03 0.  1.
         22    1    1    0    0    0 -0.75535641439E+01 -0.18232548239E+02 -0.20633550692E+02  0.28552155097E+02  0.00000000000E+00 0. -1.
</event>
<event>
 5    1  0.1047411E-009  0.9118800E+02  0.7815553E-02  0.1125453E+00
         25   -1    0    0    0    0  0.00000000000E+00  0.00000000000E+00  0.99999998245E-14  0.12509000000E+03  0.12509000000E+03 0.  0.
        -11    1    3    3    0    0  0.48451395305E+02  0.36722609611E+01  0.13348129594E+02  0.50390433333E+02  0.51100000000E-03 0.  1.
         23    2    1    0    0    0  0.19117139489E+02 -0.20923338971E+02 -0.97712385712E+01  0.95111203507E+02  0.90263020077E+02 0.  0.
         11    1    3    3    0    0 -0.29334255816E+02 -0.24595599932E+02 -0.23119368165E+02  0.44720770174E+02  0.51100000000E-03 0. -1.
         22    1    1    0    0    0 -0.19117139489E+02  0.20923338971E+02  0.97712385712E+01  0.29978796493E+02  0.00000000000E+00 0.  1.
</event>
<event>
 5    1  0.1047411E-009  0.9118800E+02  0.7815553E-02  0.1125453E+00
         25   -1    0    0    0    0  0.00000000000E+00  0.00000000000E+00  0.99999998245E-14  0.12509000000E+03  0.12509000000E+03 0.  0.
        -11    1    3    3    0    0 -0.21123027173E+02  0.30866213254E+01  0.37827798076E+02  0.43435605391E+02  0.51100000000E-03 0.  1.
         23    2    1    0    0    0 -0.13597266607E+02  0.14476950869E+02 -0.16385956990E+02  0.99341847598E+02  0.95947044416E+02 0.  0.
         11    1    3    3    0    0  0.75257605656E+01  0.11390329543E+02 -0.54213755066E+02  0.55906242207E+02  0.51100000000E-03 0. -1.
         22    1    1    0    0    0  0.13597266607E+02 -0.14476950869E+02  0.16385956990E+02  0.25748152402E+02  0.00000000000E+00 0.  1.
</event>
<event>
 5    1  0.1047411E-009  0.9118800E+02  0.7815553E-02  0.1125453E+00
         25   -1    0    0    0    0  0.00000000000E+00  0.00000000000E+00  0.99999998245E-14  0.12509000000E+03  0.12509000000E+03 0.  0.
        -11    1    3    3    0    0  0.10861735072E+02 -0.11902247908E+02 -0.30858933468E+02  0.34812563380E+02  0.51100000000E-03 0.  1.
         23    2    1    0    0    0  0.39513335119E+01  0.25931008934E+02  0.15165952173E+02  0.94790885060E+02  0.89818013362E+02 0.  0.
         11    1    3    3    0    0 -0.69104015604E+01  0.37833256841E+02  0.46024885641E+02  0.59978321680E+02  0.51100000000E-03 0. -1.
         22    1    1    0    0    0 -0.39513335119E+01 -0.25931008934E+02 -0.15165952173E+02  0.30299114940E+02  0.00000000000E+00 0. -1.
</event>
<event>
 5    1  0.1047411E-009  0.9118800E+02  0.7815553E-02  0.1125453E+00
         25   -1    0    0    0    0  0.00000000000E+00  0.00000000000E+00  0.99999998245E-14  0.12509000000E+03  0.12509000000E+03 0.  0.
        -11    1    3    3    0    0 -0.12201314737E+02  0.34368551039E+02 -0.53389928387E+01  0.36858841906E+02  0.51100000000E-03 0.  1.
         23    2    1    0    0    0 -0.19794452254E+02 -0.21131379083E+02  0.91590488247E+01  0.94721534491E+02  0.89721376489E+02 0.  0.
         11    1    3    3    0    0 -0.75931375166E+01 -0.55499930122E+02  0.14498041663E+02  0.57862692586E+02  0.51100000000E-03 0. -1.
         22    1    1    0    0    0  0.19794452254E+02  0.21131379083E+02 -0.91590488247E+01  0.30368465509E+02  0.00000000000E+00 0. -1.
</event>
<event>
 5    1  0.1047411E-009  0.9118800E+02  0.7815553E-02  0.1125453E+00
         25   -1    0    0    0    0  0.00000000000E+00  0.00000000000E+00  0.99999998245E-14  0.12509000000E+03  0.12509000000E+03 0.  0.
        -11    1    3    3    0    0  0.14842100383E+02  0.25498289636E+02  0.32213952565E+02  0.43682827957E+02  0.51100000000E-03 0.  1.
         23    2    1    0    0    0  0.15563339803E+02  0.19408371162E+02 -0.18071802535E+02  0.94341138820E+02  0.89189450105E+02 0.  0.
         11    1    3    3    0    0  0.72123941964E+00 -0.60899184741E+01 -0.50285755100E+02  0.50658310864E+02  0.51100000000E-03 0. -1.
         22    1    1    0    0    0 -0.15563339803E+02 -0.19408371162E+02  0.18071802535E+02  0.30748861180E+02  0.00000000000E+00 0.  1.
</event>
<event>
 5    1  0.1047411E-009  0.9118800E+02  0.7815553E-02  0.1125453E+00
         25   -1    0    0    0    0  0.00000000000E+00  0.00000000000E+00  0.99999998245E-14  0.12509000000E+03  0.12509000000E+03 0.  0.
        -11    1    3    3    0    0  0.52802625030E+02  0.25614104656E+02 -0.28150083639E+01  0.58754777165E+02  0.51100000000E-03 0. -1.
         23    2    1    0    0    0  0.19845311905E+02  0.14072895358E+02 -0.15878673998E+02  0.96038062435E+02  0.91538485676E+02 0.  0.
         11    1    3    3    0    0 -0.32957313125E+02 -0.11541209297E+02 -0.13063665634E+02  0.37283285270E+02  0.51100000000E-03 0.  1.
         22    1    1    0    0    0 -0.19845311905E+02 -0.14072895358E+02  0.15878673998E+02  0.29051937565E+02  0.00000000000E+00 0. -1.
</event>
<event>
 5    1  0.1047411E-009  0.9118800E+02  0.7815553E-02  0.1125453E+00
         25   -1    0    0    0    0  0.00000000000E+00  0.00000000000E+00  0.99999998245E-14  0.12509000000E+03  0.12509000000E+03 0.  0.
        -11    1    3    3    0    0  0.16726197969E+02  0.57058247729E+01 -0.31523145400E+02  0.36139048563E+02  0.51100000000E-03 0. -1.
         23    2    1    0    0    0 -0.24195734040E+02 -0.65345948431E+01  0.12158922929E+02  0.97233692235E+02  0.93158021788E+02 0.  0.
         11    1    3    3    0    0 -0.40921932009E+02 -0.12240419616E+02  0.43682068329E+02  0.61094643673E+02  0.51100000000E-03 0.  1.
         22    1    1    0    0    0  0.24195734040E+02  0.65345948431E+01 -0.12158922929E+02  0.27856307765E+02  0.00000000000E+00 0.  1.
</event>
<event>
 5    1  0.1047411E-009  0.9118800E+02  0.7815553E-02  0.1125453E+00
         25   -1    0    0    0    0  0.00000000000E+00  0.00000000000E+00  0.99999998245E-14  0.12509000000E+03  0.12509000000E+03 0.  0.
        -11    1    3    3    0    0 -0.39045704112E+02 -0.18227291689E+02  0.27279207763E+00  0.43091479293E+02  0.51100000000E-03 0.  1.
         23    2    1    0    0    0 -0.34300334950E+01  0.67411428653E+01 -0.28737161764E+02  0.95374135497E+02  0.90626668915E+02 0.  0.
         11    1    3    3    0    0  0.35615670617E+02  0.24968434554E+02 -0.29009953841E+02  0.52282656204E+02  0.51100000000E-03 0. -1.
         22    1    1    0    0    0  0.34300334950E+01 -0.67411428653E+01  0.28737161764E+02  0.29715864503E+02  0.00000000000E+00 0.  1.
</event>
<event>
 5    1  0.1047411E-009  0.9118800E+02  0.7815553E-02  0.1125453E+00
         25   -1    0    0    0    0  0.00000000000E+00  0.00000000000E+00  0.99999998245E-14  0.12509000000E+03  0.12509000000E+03 0.  0.
        -11    1    3    3    0    0  0.53910585333E+01  0.35809031278E+02  0.62879242151E+01  0.36754431357E+02  0.51100000000E-03 0. -1.
         23    2    1    0    0    0  0.10860725684E+02 -0.23593901864E+02  0.11598148816E+02  0.96644532461E+02  0.92363526519E+02 0.  0.
         11    1    3    3    0    0  0.54696671502E+01 -0.59402933142E+02  0.53102246013E+01  0.59890101104E+02  0.51100000000E-03 0.  1.
         22    1    1    0    0    0 -0.10860725684E+02  0.23593901864E+02 -0.11598148816E+02  0.28445467539E+02  0.00000000000E+00 0.  1.
</event>
<event>
 5    1  0.1047411E-009  0.9118800E+02  0.7815553E-02  0.1125453E+00
         25   -1    0    0    0    0  0.00000000000E+00  0.00000000000E+00  0.99999998245E-14  0.12509000000E+03  0.12509000000E+03 0.  0.
        -11    1    3    3    0    0 -0.52988656589E+01 -0.14964903348E+02  0.39047486872E+02  0.42151305327E+02  0.51100000000E-03 0.  1.
         23    2    1    0    0    0 -0.29136277774E+02 -0.23825878259E+02  0.15993014641E+01  0.87418353865E+02  0.78884825347E+02 0.  0.
         11    1    3    3    0    0 -0.23837412115E+02 -0.88609749108E+01 -0.37448185408E+02  0.45267048538E+02  0.51100000000E-03 0. -1.
         22    1    1    0    0    0  0.29136277774E+02  0.23825878259E+02 -0.15993014641E+01  0.37671646135E+02  0.00000000000E+00 0. -1.
</event>
<event>
 5    1  0.1047411E-009  0.9118800E+02  0.7815553E-02  0.1125453E+00
         25   -1    0    0    0    0  0.00000000000E+00  0.00000000000E+00  0.99999998245E-14  0.12509000000E+03  0.12509000000E+03 0.  0.
        -11    1    3    3    0    0 -0.13332500273E+02  0.19407909405E+02  0.47924071158E+02  0.53396058915E+02  0.51100000000E-03 0.  1.
         23    2    1    0    0    0  0.15792214199E+02  0.18083562151E+02  0.18900312278E+02  0.94534623164E+02  0.89460404220E+02 0.  0.
         11    1    3    3    0    0  0.29124714472E+02 -0.13243472544E+01 -0.29023758880E+02  0.41138564249E+02  0.51100000000E-03 0. -1.
         22    1    1    0    0    0 -0.15792214199E+02 -0.18083562151E+02 -0.18900312278E+02  0.30555376836E+02  0.00000000000E+00 0.  1.
</event>
<event>
 5    1  0.1047411E-009  0.9118800E+02  0.7815553E-02  0.1125453E+00
         25   -1    0    0    0    0  0.00000000000E+00  0.00000000000E+00  0.99999998245E-14  0.12509000000E+03  0.12509000000E+03 0.  0.
        -11    1    3    3    0    0 -0.31691999417E+02  0.21152321815E+02 -0.19567891106E+02  0.42833467147E+02  0.51100000000E-03 0. -1.
         23    2    1    0    0    0 -0.11511617062E+02  0.40818882023E+01  0.26480369022E+02  0.95928568585E+02  0.91388736661E+02 0.  0.
         11    1    3    3    0    0  0.20180382355E+02 -0.17070433613E+02  0.46048260127E+02  0.53095101438E+02  0.51100000000E-03 0.  1.
         22    1    1    0    0    0  0.11511617062E+02 -0.40818882023E+01 -0.26480369022E+02  0.29161431415E+02  0.00000000000E+00 0.  1.
</event>
<event>
 5    1  0.1047411E-009  0.9118800E+02  0.7815553E-02  0.1125453E+00
         25   -1    0    0    0    0  0.00000000000E+00  0.00000000000E+00  0.99999998245E-14  0.12509000000E+03  0.12509000000E+03 0.  0.
        -11    1    3    3    0    0 -0.13764881467E+02  0.42614298889E+02  0.18035798887E+02  0.48277743043E+02  0.51100000000E-03 0. -1.
         23    2    1    0    0    0  0.18341609597E+02  0.21101177329E+02 -0.93107684794E+01  0.95621970935E+02  0.90968107536E+02 0.  0.
         11    1    3    3    0    0  0.32106491065E+02 -0.21513121560E+02 -0.27346567367E+02  0.47344227892E+02  0.51100000000E-03 0.  1.
         22    1    1    0    0    0 -0.18341609597E+02 -0.21101177329E+02  0.93107684794E+01  0.29468029065E+02  0.00000000000E+00 0.  1.
</event>
<event>
 5    1  0.1047411E-009  0.9118800E+02  0.7815553E-02  0.1125453E+00
         25   -1    0    0    0    0  0.00000000000E+00  0.00000000000E+00  0.99999998245E-14  0.12509000000E+03  0.12509000000E+03 0.  0.
        -11    1    3    3    0    0 -0.26519120420E+02  0.14349463512E+02 -0.23526159693E+02  0.38244621074E+02  0.51100000000E-03 0.  1.
         23    2    1    0    0    0  0.11316604546E+02 -0.97669290889E+01  0.19574435193E+02  0.10046040489E+03  0.97394435132E+02 0.  0.
         11    1    3    3    0    0  0.37835724966E+02 -0.24116392601E+02  0.43100594886E+02  0.62215783814E+02  0.51100000000E-03 0. -1.
         22    1    1    0    0    0 -0.11316604546E+02  0.97669290889E+01 -0.19574435193E+02  0.24629595113E+02  0.00000000000E+00 0. -1.
</event>
<event>
 5    1  0.1047411E-009  0.9118800E+02  0.7815553E-02  0.1125453E+00
         25   -1    0    0    0    0  0.00000000000E+00  0.00000000000E+00  0.99999998245E-14  0.12509000000E+03  0.12509000000E+03 0.  0.
        -11    1    3    3    0    0 -0.23230993523E+01  0.16967263103E+01 -0.30304846425E+02  0.30441080596E+02  0.51100000000E-03 0.  1.
         23    2    1    0    0    0  0.20644732392E+02  0.23308328837E+02  0.18738924643E+02  0.88749520291E+02  0.80968184408E+02 0.  0.
         11    1    3    3    0    0  0.22967831744E+02  0.21611602527E+02  0.49043771068E+02  0.58308439695E+02  0.51100000000E-03 0. -1.
         22    1    1    0    0    0 -0.20644732392E+02 -0.23308328837E+02 -0.18738924643E+02  0.36340479709E+02  0.00000000000E+00 0. -1.
</event>
<event>
 5    1  0.1047411E-009  0.9118800E+02  0.7815553E-02  0.1125453E+00
         25   -1    0    0    0    0  0.00000000000E+00  0.00000000000E+00  0.99999998245E-14  0.12509000000E+03  0.12509000000E+03 0.  0.
        -11    1    3    3    0    0  0.15502886133E+02 -0.37155944074E+02  0.39523501213E+02  0.56418177982E+02  0.51100000000E-03 0.  1.
         23    2    1    0    0    0  0.17476492045E+02 -0.23308863560E+02  0.26720731452E+01  0.95834729200E+02  0.91260201903E+02 0.  0.
         11    1    3    3    0    0  0.19736059118E+01  0.13847080514E+02 -0.36851428067E+02  0.39416551218E+02  0.51100000000E-03 0. -1.
         22    1    1    0    0    0 -0.17476492045E+02  0.23308863560E+02 -0.26720731452E+01  0.29255270800E+02  0.00000000000E+00 0. -1.
</event>
<event>
 5    1  0.1047411E-009  0.9118800E+02  0.7815553E-02  0.1125453E+00
         25   -1    0    0    0    0  0.00000000000E+00  0.00000000000E+00  0.99999998245E-14  0.12509000000E+03  0.12509000000E+03 0.  0.
        -11    1    3    3    0    0 -0.13446411873E+02  0.33740444290E+02 -0.35857894255E+01  0.36497691149E+02  0.51100000000E-03 0. -1.
         23    2    1    0    0    0  0.10836001426E+02 -0.16088637313E+02 -0.22791571442E+02  0.95161436615E+02  0.90332608246E+02 0.  0.
         11    1    3    3    0    0  0.24282413299E+02 -0.49829081603E+02 -0.19205782016E+02  0.58663745466E+02  0.51100000000E-03 0.  1.
         22    1    1    0    0    0 -0.10836001426E+02  0.16088637313E+02  0.22791571442E+02  0.29928563385E+02  0.00000000000E+00 0.  1.
</event>
<event>
 5    1  0.1047411E-009  0.9118800E+02  0.7815553E-02  0.1125453E+00
         25   -1    0    0    0    0  0.00000000000E+00  0.00000000000E+00  0.99999998245E-14  0.12509000000E+03  0.12509000000E+03 0.  0.
        -11    1    3    3    0    0 -0.15717022993E+02  0.22479202072E+01 -0.32585510847E+02  0.36247668538E+02  0.51100000000E-03 0.  1.
         23    2    1    0    0    0 -0.11240031133E+02 -0.63245948233E+01  0.26234088151E+02  0.95857036061E+02  0.91290772709E+02 0.  0.
         11    1    3    3    0    0  0.44769918600E+01 -0.85725150306E+01  0.58819598997E+02  0.59609367523E+02  0.51100000000E-03 0. -1.
         22    1    1    0    0    0  0.11240031133E+02  0.63245948233E+01 -0.26234088151E+02  0.29232963939E+02  0.00000000000E+00 0. -1.
</event>
<event>
 5    1  0.1047411E-009  0.9118800E+02  0.7815553E-02  0.1125453E+00
         25   -1    0    0    0    0  0.00000000000E+00  0.00000000000E+00  0.99999998245E-14  0.12509000000E+03  0.12509000000E+03 0.  0.
        -11    1    3    3    0    0 -0.43812263924E+02 -0.13267580534E+02  0.18505534187E+02  0.49376086916E+02  0.51100000000E-03 0.  1.
         23    2    1    0    0    0 -0.26437172100E+02 -0.43536708054E+01 -0.19396273304E+02  0.92012909193E+02  0.85861991137E+02 0.  0.
         11    1    3    3    0    0  0.17375091823E+02  0.89139097285E+01 -0.37901807492E+02  0.42636822277E+02  0.51100000000E-03 0. -1.
         22    1    1    0    0    0  0.26437172100E+02  0.43536708054E+01  0.19396273304E+02  0.33077090807E+02  0.00000000000E+00 0. -1.
</event>
<event>
 5    1  0.1047411E-009  0.9118800E+02  0.7815553E-02  0.1125453E+00
         25   -1    0    0    0    0  0.00000000000E+00  0.00000000000E+00  0.99999998245E-14  0.12509000000E+03  0.12509000000E+03 0.  0.
        -11    1    3    3    0    0 -0.35024886414E+01 -0.62777011147E+01 -0.38097415523E+02  0.38769705025E+02  0.51100000000E-03 0.  1.
         23    2    1    0    0    0  0.24638163306E+02 -0.43746736085E+01  0.12817404536E+02  0.96974831153E+02  0.92809779430E+02 0.  0.
         11    1    3    3    0    0  0.28140651947E+02  0.19030275061E+01  0.50914820058E+02  0.58205126128E+02  0.51100000000E-03 0. -1.
         22    1    1    0    0    0 -0.24638163306E+02  0.43746736085E+01 -0.12817404536E+02  0.28115168847E+02  0.00000000000E+00 0. -1.
</event>
<event>
 5    1  0.1047411E-009  0.9118800E+02  0.7815553E-02  0.1125453E+00
         25   -1    0    0    0    0  0.00000000000E+00  0.00000000000E+00  0.99999998245E-14  0.12509000000E+03  0.12509000000E+03 0.  0.
        -11    1    3    3    0    0 -0.31686281840E+01 -0.31650904671E+02 -0.14391038033E+02  0.34913062698E+02  0.51100000000E-03 0.  1.
         23    2    1    0    0    0 -0.15210643030E+02  0.19965428429E+02  0.15329480277E+02  0.95679543368E+02  0.91047240814E+02 0.  0.
         11    1    3    3    0    0 -0.12042014846E+02  0.51616333100E+02  0.29720518309E+02  0.60766480670E+02  0.51100000000E-03 0. -1.
         22    1    1    0    0    0  0.15210643030E+02 -0.19965428429E+02 -0.15329480277E+02  0.29410456632E+02  0.00000000000E+00 0. -1.
</event>
<event>
 5    1  0.1047411E-009  0.9118800E+02  0.7815553E-02  0.1125453E+00
         25   -1    0    0    0    0  0.00000000000E+00  0.00000000000E+00  0.99999998245E-14  0.12509000000E+03  0.12509000000E+03 0.  0.
        -11    1    3    3    0    0 -0.39402976539E+02  0.27517186410E+02  0.49190368512E+01  0.48311355103E+02  0.51100000000E-03 0.  1.
         23    2    1    0    0    0 -0.16371228267E+02 -0.15579601310E+02 -0.11332800901E+02  0.99808119765E+02  0.96553028450E+02 0.  0.
         11    1    3    3    0    0  0.23031748272E+02 -0.43096787719E+02 -0.16251837752E+02  0.51496764663E+02  0.51100000000E-03 0. -1.
         22    1    1    0    0    0  0.16371228267E+02  0.15579601310E+02  0.11332800901E+02  0.25281880235E+02  0.00000000000E+00 0.  1.
</event>
<event>
 5    1  0.1047411E-009  0.9118800E+02  0.7815553E-02  0.1125453E+00
         25   -1    0    0    0    0  0.00000000000E+00  0.00000000000E+00  0.99999998245E-14  0.12509000000E+03  0.12509000000E+03 0.  0.
        -11    1    3    3    0    0  0.33758416706E+02 -0.12440550278E+02  0.11246365126E+02  0.37694544944E+02  0.51100000000E-03 0. -1.
         23    2    1    0    0    0 -0.19067664261E+02  0.14508868166E+02  0.14495021933E+02  0.97086629906E+02  0.92960340844E+02 0.  0.
         11    1    3    3    0    0 -0.52826080967E+02  0.26949418444E+02  0.32486568061E+01  0.59392084962E+02  0.51100000000E-03 0.  1.
         22    1    1    0    0    0  0.19067664261E+02 -0.14508868166E+02 -0.14495021933E+02  0.28003370094E+02  0.00000000000E+00 0.  1.
</event>
<event>
 5    1  0.1047411E-009  0.9118800E+02  0.7815553E-02  0.1125453E+00
         25   -1    0    0    0    0  0.00000000000E+00  0.00000000000E+00  0.99999998245E-14  0.12509000000E+03  0.12509000000E+03 0.  0.
        -11    1    3    3    0    0  0.30460310700E+02  0.29453328075E+02  0.98137490114E+01  0.43492973370E+02  0.51100000000E-03 0. -1.
         23    2    1    0    0    0  0.13972975740E+02 -0.21608466170E+02  0.10857007369E+02  0.97160723778E+02  0.93059990194E+02 0.  0.
         11    1    3    3    0    0 -0.16487334960E+02 -0.51061794245E+02  0.10432583571E+01  0.53667750408E+02  0.51100000000E-03 0.  1.
         22    1    1    0    0    0 -0.13972975740E+02  0.21608466170E+02 -0.10857007369E+02  0.27929276222E+02  0.00000000000E+00 0.  1.
</event>
<event>
 5    1  0.1047411E-009  0.9118800E+02  0.7815553E-02  0.1125453E+00
         25   -1    0    0    0    0  0.00000000000E+00  0.00000000000E+00  0.99999998245E-14  0.12509000000E+03  0.12509000000E+03 0.  0.
        -11    1    3    3    0    0  0.42403270356E+01 -0.12421601581E+02  0.39209977886E+02  0.41348505720E+02  0.51100000000E-03 0. -1.
         23    2    1    0    0    0 -0.29017052714E+02 -0.92136315067E+01 -0.22106161520E+01  0.94565138370E+02  0.89503062614E+02 0.  0.
         11    1    3    3    0    0 -0.33257379750E+02  0.32079700738E+01 -0.41420594038E+02  0.53216632650E+02  0.51100000000E-03 0.  1.
         22    1    1    0    0    0  0.29017052714E+02  0.92136315067E+01  0.22106161520E+01  0.30524861630E+02  0.00000000000E+00 0.  1.
</event>
<event>
 5    1  0.1047411E-009  0.9118800E+02  0.7815553E-02  0.1125453E+00
         25   -1    0    0    0    0  0.00000000000E+00  0.00000000000E+00  0.99999998245E-14  0.12509000000E+03  0.12509000000E+03 0.  0.
        -11    1    3    3    0    0  0.10408850147E+02  0.17218347914E+02  0.53361510611E+02  0.57028646146E+02  0.51100000000E-03 0. -1.
         23    2    1    0    0    0  0.21789673752E+02  0.10065875180E+02  0.17331465137E+02  0.95484402402E+02  0.90778740313E+02 0.  0.
         11    1    3    3    0    0  0.11380823605E+02 -0.71524727340E+01 -0.36030045474E+02  0.38455756256E+02  0.51100000000E-03 0.  1.
         22    1    1    0    0    0 -0.21789673752E+02 -0.10065875180E+02 -0.17331465137E+02  0.29605597598E+02  0.00000000000E+00 0. -1.
</event>
<event>
 5    1  0.1047411E-009  0.9118800E+02  0.7815553E-02  0.1125453E+00
         25   -1    0    0    0    0  0.00000000000E+00  0.00000000000E+00  0.99999998245E-14  0.12509000000E+03  0.12509000000E+03 0.  0.
        -11    1    3    3    0    0 -0.72402532971E+01 -0.22844494443E+02 -0.28973404162E+02  0.37599871584E+02  0.51100000000E-03 0. -1.
         23    2    1    0    0    0  0.39431490569E+01  0.25818201096E+01  0.25719512206E+02  0.98942198416E+02  0.95424583308E+02 0.  0.
         11    1    3    3    0    0  0.11183402354E+02  0.25426314552E+02  0.54692916369E+02  0.61342326831E+02  0.51100000000E-03 0.  1.
         22    1    1    0    0    0 -0.39431490569E+01 -0.25818201096E+01 -0.25719512206E+02  0.26147801584E+02  0.00000000000E+00 0.  1.
</event>
<event>
 5    1  0.1047411E-009  0.9118800E+02  0.7815553E-02  0.1125453E+00
         25   -1    0    0    0    0  0.00000000000E+00  0.00000000000E+00  0.99999998245E-14  0.12509000000E+03  0.12509000000E+03 0.  0.
        -11    1    3    3    0    0  0.10513015989E+02  0.34063766333E+01 -0.47729203989E+02  0.48991875047E+02  0.51100000000E-03 0. -1.
         23    2    1    0    0    0 -0.10182537178E+02 -0.23244312514E+02 -0.17827792748E+02  0.94076900802E+02  0.88818077791E+02 0.  0.
         11    1    3    3    0    0 -0.20695553167E+02 -0.26650689147E+02  0.29901411241E+02  0.45085025755E+02  0.51100000000E-03 0.  1.
         22    1    1    0    0    0  0.10182537178E+02  0.23244312514E+02  0.17827792748E+02  0.31013099198E+02  0.00000000000E+00 0. -1.
</event>
<event>
 5    1  0.1047411E-009  0.9118800E+02  0.7815553E-02  0.1125453E+00
         25   -1    0    0    0    0  0.00000000000E+00  0.00000000000E+00  0.99999998245E-14  0.12509000000E+03  0.12509000000E+03 0.  0.
        -11    1    3    3    0    0 -0.22901750366E+02 -0.11085213520E+02 -0.36137998968E+02  0.44196460246E+02  0.51100000000E-03 0.  1.
         23    2    1    0    0    0  0.78722023574E+01  0.24089955865E+02 -0.16218772588E+02  0.95001029798E+02  0.90110207718E+02 0.  0.
         11    1    3    3    0    0  0.30773952724E+02  0.35175169386E+02  0.19919226380E+02  0.50804569552E+02  0.51100000000E-03 0. -1.
         22    1    1    0    0    0 -0.78722023574E+01 -0.24089955865E+02  0.16218772588E+02  0.30088970202E+02  0.00000000000E+00 0. -1.
</event>
<event>
 5    1  0.1047411E-009  0.9118800E+02  0.7815553E-02  0.1125453E+00
         25   -1    0    0    0    0  0.00000000000E+00  0.00000000000E+00  0.99999998245E-14  0.12509000000E+03  0.12509000000E+03 0.  0.
        -11    1    3    3    0    0 -0.42585991643E+02  0.84766051083E+01 -0.14587641893E+02  0.45806318502E+02  0.51100000000E-03 0.  1.
         23    2    1    0    0    0  0.60845195299E+01  0.14424643671E+02 -0.24676733618E+02  0.95866158620E+02  0.91303271922E+02 0.  0.
         11    1    3    3    0    0  0.48670511173E+02  0.59480385625E+01 -0.10089091725E+02  0.50059840119E+02  0.51100000000E-03 0. -1.
         22    1    1    0    0    0 -0.60845195299E+01 -0.14424643671E+02  0.24676733618E+02  0.29223841380E+02  0.00000000000E+00 0. -1.
</event>
<event>
 5    1  0.1047411E-009  0.9118800E+02  0.7815553E-02  0.1125453E+00
         25   -1    0    0    0    0  0.00000000000E+00  0.00000000000E+00  0.99999998245E-14  0.12509000000E+03  0.12509000000E+03 0.  0.
        -11    1    3    3    0    0  0.32070291900E+02  0.16657251454E+02  0.36465146940E+02  0.51338821473E+02  0.51100000000E-03 0. -1.
         23    2    1    0    0    0 -0.16713155500E+01  0.28341585497E+02  0.16707394965E+02  0.92147993220E+02  0.86058566359E+02 0.  0.
         11    1    3    3    0    0 -0.33741607450E+02  0.11684334043E+02 -0.19757751975E+02  0.40809171747E+02  0.51100000000E-03 0.  1.
         22    1    1    0    0    0  0.16713155500E+01 -0.28341585497E+02 -0.16707394965E+02  0.32942006780E+02  0.00000000000E+00 0.  1.
</event>
<event>
 5    1  0.1047411E-009  0.9118800E+02  0.7815553E-02  0.1125453E+00
         25   -1    0    0    0    0  0.00000000000E+00  0.00000000000E+00  0.99999998245E-14  0.12509000000E+03  0.12509000000E+03 0.  0.
        -11    1    3    3    0    0  0.27369544832E+02 -0.83378328814E+01  0.38425431624E+02  0.47907465360E+02  0.51100000000E-03 0. -1.
         23    2    1    0    0    0  0.23097276691E+02  0.15287488592E+02 -0.44397328247E+01  0.97038213505E+02  0.92895167553E+02 0.  0.
         11    1    3    3    0    0 -0.42722681408E+01  0.23625321473E+02 -0.42865164449E+02  0.49130748145E+02  0.51100000000E-03 0.  1.
         22    1    1    0    0    0 -0.23097276691E+02 -0.15287488592E+02  0.44397328247E+01  0.28051786495E+02  0.00000000000E+00 0. -1.
</event>
<event>
 5    1  0.1047411E-009  0.9118800E+02  0.7815553E-02  0.1125453E+00
         25   -1    0    0    0    0  0.00000000000E+00  0.00000000000E+00  0.99999998245E-14  0.12509000000E+03  0.12509000000E+03 0.  0.
        -11    1    3    3    0    0 -0.45661167845E+02 -0.19840986336E+02 -0.45817749016E+01  0.49995996333E+02  0.51100000000E-03 0. -1.
         23    2    1    0    0    0  0.11735283514E+00 -0.26725486589E+02 -0.98908532329E+01  0.96592730257E+02  0.92293342965E+02 0.  0.
         11    1    3    3    0    0  0.45778520681E+02 -0.68845002537E+01 -0.53090783314E+01  0.46596733925E+02  0.51100000000E-03 0.  1.
         22    1    1    0    0    0 -0.11735283514E+00  0.26725486589E+02  0.98908532329E+01  0.28497269743E+02  0.00000000000E+00 0.  1.
</event>
<event>
 5    1  0.1047411E-009  0.9118800E+02  0.7815553E-02  0.1125453E+00
         25   -1    0    0    0    0  0.00000000000E+00  0.00000000000E+00  0.99999998245E-14  0.12509000000E+03  0.12509000000E+03 0.  0.
        -11    1    3    3    0    0 -0.56647334010E+02 -0.16071163186E+01  0.14585545415E+02  0.58517018111E+02  0.51100000000E-03 0.  1.
         23    2    1    0    0    0 -0.27785875470E+02  0.72469496085E+01 -0.68829366328E+01  0.95561234855E+02  0.90884551141E+02 0.  0.
         11    1    3    3    0    0  0.28861458539E+02  0.88540659271E+01 -0.21468482048E+02  0.37044216744E+02  0.51100000000E-03 0. -1.
         22    1    1    0    0    0  0.27785875470E+02 -0.72469496085E+01  0.68829366328E+01  0.29528765145E+02  0.00000000000E+00 0.  1.
</event>
<event>
 5    1  0.1047411E-009  0.9118800E+02  0.7815553E-02  0.1125453E+00
         25   -1    0    0    0    0  0.00000000000E+00  0.00000000000E+00  0.99999998245E-14  0.12509000000E+03  0.12509000000E+03 0.  0.
        -11    1    3    3    0    0 -0.58838331026E+01  0.20745130203E+02 -0.48506136179E+02  0.53083190996E+02  0.51100000000E-03 0.  1.
         23    2    1    0    0    0 -0.33942669733E+01  0.28341325465E+02 -0.65365398348E+01  0.95807272490E+02  0.91222559335E+02 0.  0.
         11    1    3    3    0    0  0.24895661293E+01  0.75961952625E+01  0.41969596344E+02  0.42724081494E+02  0.51100000000E-03 0. -1.
         22    1    1    0    0    0  0.33942669733E+01 -0.28341325465E+02  0.65365398348E+01  0.29282727510E+02  0.00000000000E+00 0.  1.
</event>
<event>
 5    1  0.1047411E-009  0.9118800E+02  0.7815553E-02  0.1125453E+00
         25   -1    0    0    0    0  0.00000000000E+00  0.00000000000E+00  0.99999998245E-14  0.12509000000E+03  0.12509000000E+03 0.  0.
        -11    1    3    3    0    0  0.21496988099E+02  0.17421187639E+02 -0.25256364841E+02  0.37463345304E+02  0.51100000000E-03 0.  1.
         23    2    1    0    0    0  0.10427302524E+02 -0.22945086627E+02  0.15185249786E+02  0.95665563739E+02  0.91028032145E+02 0.  0.
         11    1    3    3    0    0 -0.11069685575E+02 -0.40366274266E+02  0.40441614627E+02  0.58202218435E+02  0.51100000000E-03 0. -1.
         22    1    1    0    0    0 -0.10427302524E+02  0.22945086627E+02 -0.15185249786E+02  0.29424436261E+02  0.00000000000E+00 0. -1.
</event>
<event>
 5    1  0.1047411E-009  0.9118800E+02  0.7815553E-02  0.1125453E+00
         25   -1    0    0    0    0  0.00000000000E+00  0.00000000000E+00  0.99999998245E-14  0.12509000000E+03  0.12509000000E+03 0.  0.
        -11    1    3    3    0    0  0.26212004578E+02  0.47503217587E+02  0.29967860986E+02  0.61981429134E+02  0.51100000000E-03 0.  1.
         23    2    1    0    0    0  0.15743903241E+02  0.23005705731E+02  0.92878399209E+01  0.95706382866E+02  0.91084108194E+02 0.  0.
         11    1    3    3    0    0 -0.10468101337E+02 -0.24497511856E+02 -0.20680021066E+02  0.33724953732E+02  0.51100000000E-03 0. -1.
         22    1    1    0    0    0 -0.15743903241E+02 -0.23005705731E+02 -0.92878399209E+01  0.29383617134E+02  0.00000000000E+00 0.  1.
</event>
<event>
 5    1  0.1047411E-009  0.9118800E+02  0.7815553E-02  0.1125453E+00
         25   -1    0    0    0    0  0.00000000000E+00  0.00000000000E+00  0.99999998245E-14  0.12509000000E+03  0.12509000000E+03 0.  0.
        -11    1    3    3    0    0  0.27818374410E+02 -0.11360175671E+02  0.23405042176E+02  0.38088207435E+02  0.51100000000E-03 0.  1.
         23    2    1    0    0    0 -0.63705578887E+01 -0.91014617687E+01 -0.25196361178E+02  0.97553165927E+02  0.93586018997E+02 0.  0.
         11    1    3    3    0    0 -0.34188932298E+02  0.22587139027E+01 -0.48601403354E+02  0.59464958492E+02  0.51100000000E-03 0. -1.
         22    1    1    0    0    0  0.63705578887E+01  0.91014617687E+01  0.25196361178E+02  0.27536834073E+02  0.00000000000E+00 0. -1.
</event>
<event>
 5    1  0.1047411E-009  0.9118800E+02  0.7815553E-02  0.1125453E+00
         25   -1    0    0    0    0  0.00000000000E+00  0.00000000000E+00  0.99999998245E-14  0.12509000000E+03  0.12509000000E+03 0.  0.
        -11    1    3    3    0    0 -0.16436161761E+02  0.41395614321E+02 -0.30394302362E+02  0.53921775887E+02  0.51100000000E-03 0.  1.
         23    2    1    0    0    0  0.69762683501E+01  0.24103201958E+02  0.47478882304E+01  0.99552280693E+02  0.96221003340E+02 0.  0.
         11    1    3    3    0    0  0.23412430111E+02 -0.17292412362E+02  0.35142190593E+02  0.45630504807E+02  0.51100000000E-03 0. -1.
         22    1    1    0    0    0 -0.69762683501E+01 -0.24103201958E+02 -0.47478882304E+01  0.25537719307E+02  0.00000000000E+00 0.  1.
</event>
<event>
 5    1  0.1047411E-009  0.9118800E+02  0.7815553E-02  0.1125453E+00
         25   -1    0    0    0    0  0.00000000000E+00  0.00000000000E+00  0.99999998245E-14  0.12509000000E+03  0.12509000000E+03 0.  0.
        -11    1    3    3    0    0 -0.28706887982E+01 -0.15040595046E+02  0.60147082358E+02  0.62065544950E+02  0.51100000000E-03 0. -1.
         23    2    1    0    0    0  0.31338297124E+01 -0.87361169080E+01  0.21656806844E+02  0.10152821081E+03  0.98756365262E+02 0.  0.
         11    1    3    3    0    0  0.60045185107E+01  0.63044781377E+01 -0.38490275514E+02  0.39462665857E+02  0.51100000000E-03 0.  1.
         22    1    1    0    0    0 -0.31338297124E+01  0.87361169080E+01 -0.21656806844E+02  0.23561789193E+02  0.00000000000E+00 0. -1.
</event>
<event>
 5    1  0.1047411E-009  0.9118800E+02  0.7815553E-02  0.1125453E+00
         25   -1    0    0    0    0  0.00000000000E+00  0.00000000000E+00  0.99999998245E-14  0.12509000000E+03  0.12509000000E+03 0.  0.
        -11    1    3    3    0    0  0.27034810857E+02 -0.25982182335E+02 -0.44349076457E+01  0.37757425800E+02  0.51100000000E-03 0. -1.
         23    2    1    0    0    0  0.10331304728E+02  0.26978652818E+02  0.88857132176E+01  0.94865184622E+02  0.89921431198E+02 0.  0.
         11    1    3    3    0    0 -0.16703506129E+02  0.52960835154E+02  0.13320620863E+02  0.57107758822E+02  0.51100000000E-03 0.  1.
         22    1    1    0    0    0 -0.10331304728E+02 -0.26978652818E+02 -0.88857132176E+01  0.30224815378E+02  0.00000000000E+00 0.  1.
</event>
<event>
 5    1  0.1047411E-009  0.9118800E+02  0.7815553E-02  0.1125453E+00
         25   -1    0    0    0    0  0.00000000000E+00  0.00000000000E+00  0.99999998245E-14  0.12509000000E+03  0.12509000000E+03 0.  0.
        -11    1    3    3    0    0 -0.45011416903E+01  0.31165894629E+02 -0.15246136027E+02  0.34985967595E+02  0.51100000000E-03 0. -1.
         23    2    1    0    0    0 -0.89086162840E+01 -0.26111636524E+02  0.70600253169E+01  0.96611499977E+02  0.92318779044E+02 0.  0.
         11    1    3    3    0    0 -0.44074745937E+01 -0.57277531153E+02  0.22306161344E+02  0.61625532383E+02  0.51100000000E-03 0.  1.
         22    1    1    0    0    0  0.89086162840E+01  0.26111636524E+02 -0.70600253169E+01  0.28478500023E+02  0.00000000000E+00 0.  1.
</event>
<event>
 5    1  0.1047411E-009  0.9118800E+02  0.7815553E-02  0.1125453E+00
         25   -1    0    0    0    0  0.00000000000E+00  0.00000000000E+00  0.99999998245E-14  0.12509000000E+03  0.12509000000E+03 0.  0.
        -11    1    3    3    0    0  0.48374786505E+02 -0.14691304483E+02  0.93454570976E+01  0.51412955230E+02  0.51100000000E-03 0.  1.
         23    2    1    0    0    0  0.15108525324E+02  0.19815458472E+02  0.59950875977E+01  0.99460700220E+02  0.96101872411E+02 0.  0.
         11    1    3    3    0    0 -0.33266261181E+02  0.34506762955E+02 -0.33503695000E+01  0.48047744990E+02  0.51100000000E-03 0. -1.
         22    1    1    0    0    0 -0.15108525324E+02 -0.19815458472E+02 -0.59950875977E+01  0.25629299780E+02  0.00000000000E+00 0. -1.
</event>
<event>
 5    1  0.1047411E-009  0.9118800E+02  0.7815553E-02  0.1125453E+00
         25   -1    0    0    0    0  0.00000000000E+00  0.00000000000E+00  0.99999998245E-14  0.12509000000E+03  0.12509000000E+03 0.  0.
        -11    1    3    3    0    0 -0.47462793836E+02 -0.77522005392E+01  0.89390911742E+01  0.48915445038E+02  0.51100000000E-03 0. -1.
         23    2    1    0    0    0 -0.17953166655E+02  0.16048330375E+02 -0.17660510834E+02  0.95227670157E+02  0.90424280035E+02 0.  0.
         11    1    3    3    0    0  0.29509627182E+02  0.23800530914E+02 -0.26599602008E+02  0.46312225119E+02  0.51100000000E-03 0.  1.
         22    1    1    0    0    0  0.17953166655E+02 -0.16048330375E+02  0.17660510834E+02  0.29862329843E+02  0.00000000000E+00 0.  1.
</event>
<event>
 5    1  0.1047411E-009  0.9118800E+02  0.7815553E-02  0.1125453E+00
         25   -1    0    0    0    0  0.00000000000E+00  0.00000000000E+00  0.99999998245E-14  0.12509000000E+03  0.12509000000E+03 0.  0.
        -11    1    3    3    0    0 -0.52480080256E+02 -0.16972019024E+02  0.92287167912E+01  0.55922960109E+02  0.51100000000E-03 0.  1.
         23    2    1    0    0    0 -0.15766132246E+02 -0.23489657818E+02 -0.59481407317E+01  0.96181258613E+02  0.91733958706E+02 0.  0.
         11    1    3    3    0    0  0.36713948010E+02 -0.65176387937E+01 -0.15176857523E+02  0.40258298504E+02  0.51100000000E-03 0. -1.
         22    1    1    0    0    0  0.15766132246E+02  0.23489657818E+02  0.59481407317E+01  0.28908741387E+02  0.00000000000E+00 0.  1.
</event>
<event>
 5    1  0.1047411E-009  0.9118800E+02  0.7815553E-02  0.1125453E+00
         25   -1    0    0    0    0  0.00000000000E+00  0.00000000000E+00  0.99999998245E-14  0.12509000000E+03  0.12509000000E+03 0.  0.
        -11    1    3    3    0    0  0.18134007676E+02 -0.31814087739E+02  0.39034478023E+01  0.36826828781E+02  0.51100000000E-03 0. -1.
         23    2    1    0    0    0 -0.27031108155E+02  0.53645258146E+01  0.10289638845E+02  0.95673412624E+02  0.91038817382E+02 0.  0.
         11    1    3    3    0    0 -0.45165115830E+02  0.37178613553E+02  0.63861910430E+01  0.58846583843E+02  0.51100000000E-03 0.  1.
         22    1    1    0    0    0  0.27031108155E+02 -0.53645258146E+01 -0.10289638845E+02  0.29416587376E+02  0.00000000000E+00 0.  1.
</event>
<event>
 5    1  0.1047411E-009  0.9118800E+02  0.7815553E-02  0.1125453E+00
         25   -1    0    0    0    0  0.00000000000E+00  0.00000000000E+00  0.99999998245E-14  0.12509000000E+03  0.12509000000E+03 0.  0.
        -11    1    3    3    0    0  0.88594058114E+01  0.34855940346E+02 -0.61891081624E+01  0.36492885729E+02  0.51100000000E-03 0.  1.
         23    2    1    0    0    0 -0.18388996275E+02 -0.12370548689E+02 -0.22603839836E+02  0.93433733097E+02  0.87907583554E+02 0.  0.
         11    1    3    3    0    0 -0.27248402086E+02 -0.47226489035E+02 -0.16414731674E+02  0.56940847368E+02  0.51100000000E-03 0. -1.
         22    1    1    0    0    0  0.18388996275E+02  0.12370548689E+02  0.22603839836E+02  0.31656266903E+02  0.00000000000E+00 0. -1.
</event>
<event>
 5    1  0.1047411E-009  0.9118800E+02  0.7815553E-02  0.1125453E+00
         25   -1    0    0    0    0  0.00000000000E+00  0.00000000000E+00  0.99999998245E-14  0.12509000000E+03  0.12509000000E+03 0.  0.
        -11    1    3    3    0    0 -0.46640628999E+02 -0.14654924636E+02  0.29517219946E+02  0.57108505173E+02  0.51100000000E-03 0.  1.
         23    2    1    0    0    0 -0.12135584641E+02 -0.19192711661E+01  0.28669590542E+02  0.93898631992E+02  0.88566650900E+02 0.  0.
         11    1    3    3    0    0  0.34505044358E+02  0.12735653470E+02 -0.84762940369E+00  0.36790126819E+02  0.51100000000E-03 0. -1.
         22    1    1    0    0    0  0.12135584641E+02  0.19192711661E+01 -0.28669590542E+02  0.31191368008E+02  0.00000000000E+00 0.  1.
</event>
<event>
 5    1  0.1047411E-009  0.9118800E+02  0.7815553E-02  0.1125453E+00
         25   -1    0    0    0    0  0.00000000000E+00  0.00000000000E+00  0.99999998245E-14  0.12509000000E+03  0.12509000000E+03 0.  0.
        -11    1    3    3    0    0 -0.39530634958E+01  0.57643178824E+02  0.93132670795E+01  0.58524351512E+02  0.51100000000E-03 0.  1.
         23    2    1    0    0    0 -0.92156448832E+01  0.26613580376E+02 -0.97095197103E+01  0.95299304405E+02  0.90523322277E+02 0.  0.
         11    1    3    3    0    0 -0.52625813874E+01 -0.31029598449E+02 -0.19022786790E+02  0.36774952893E+02  0.51100000000E-03 0. -1.
         22    1    1    0    0    0  0.92156448832E+01 -0.26613580376E+02  0.97095197103E+01  0.29790695595E+02  0.00000000000E+00 0.  1.
</event>
<event>
 5    1  0.1047411E-009  0.9118800E+02  0.7815553E-02  0.1125453E+00
         25   -1    0    0    0    0  0.00000000000E+00  0.00000000000E+00  0.99999998245E-14  0.12509000000E+03  0.12509000000E+03 0.  0.
        -11    1    3    3    0    0 -0.29352964771E+02  0.81965435980E+01 -0.42320851352E+02  0.52152030903E+02  0.51100000000E-03 0. -1.
         23    2    1    0    0    0 -0.25825180360E+02 -0.13680098746E+02 -0.51672597790E+01  0.95411967451E+02  0.90678872495E+02 0.  0.
         11    1    3    3    0    0  0.35277844107E+01 -0.21876642344E+02  0.37153591573E+02  0.43259936548E+02  0.51100000000E-03 0.  1.
         22    1    1    0    0    0  0.25825180360E+02  0.13680098746E+02  0.51672597790E+01  0.29678032549E+02  0.00000000000E+00 0. -1.
</event>
<event>
 5    1  0.1047411E-009  0.9118800E+02  0.7815553E-02  0.1125453E+00
         25   -1    0    0    0    0  0.00000000000E+00  0.00000000000E+00  0.99999998245E-14  0.12509000000E+03  0.12509000000E+03 0.  0.
        -11    1    3    3    0    0 -0.12626821563E+02  0.18995912328E+02  0.47089583795E+02  0.52323132649E+02  0.51100000000E-03 0. -1.
         23    2    1    0    0    0  0.48871760939E+01 -0.15558873453E+02  0.18222712969E+02  0.10063534193E+03  0.97618859574E+02 0.  0.
         11    1    3    3    0    0  0.17513997657E+02 -0.34554785781E+02 -0.28866870826E+02  0.48312209283E+02  0.51100000000E-03 0.  1.
         22    1    1    0    0    0 -0.48871760939E+01  0.15558873453E+02 -0.18222712969E+02  0.24454658068E+02  0.00000000000E+00 0. -1.
</event>
<event>
 5    1  0.1047411E-009  0.9118800E+02  0.7815553E-02  0.1125453E+00
         25   -1    0    0    0    0  0.00000000000E+00  0.00000000000E+00  0.99999998245E-14  0.12509000000E+03  0.12509000000E+03 0.  0.
        -11    1    3    3    0    0  0.11668331484E+02 -0.47263102760E+02 -0.15011577449E+01  0.48705280175E+02  0.51100000000E-03 0.  1.
         23    2    1    0    0    0  0.56603178033E+01 -0.94618820000E+01  0.26670203101E+02  0.96230579665E+02  0.91801189102E+02 0.  0.
         11    1    3    3    0    0 -0.60080136807E+01  0.37801220760E+02  0.28171360846E+02  0.47525299489E+02  0.51100000000E-03 0. -1.
         22    1    1    0    0    0 -0.56603178033E+01  0.94618820000E+01 -0.26670203101E+02  0.28859420335E+02  0.00000000000E+00 0. -1.
</event>
<event>
 5    1  0.1047411E-009  0.9118800E+02  0.7815553E-02  0.1125453E+00
         25   -1    0    0    0    0  0.00000000000E+00  0.00000000000E+00  0.99999998245E-14  0.12509000000E+03  0.12509000000E+03 0.  0.
        -11    1    3    3    0    0  0.14064541156E+01  0.44548611461E+02 -0.31828572922E+02  0.54768740635E+02  0.51100000000E-03 0.  1.
         23    2    1    0    0    0  0.21972102936E+02  0.14800636533E+02 -0.12088478874E+02  0.95970187661E+02  0.91445685787E+02 0.  0.
         11    1    3    3    0    0  0.20565648820E+02 -0.29747974928E+02  0.19740094048E+02  0.41201447026E+02  0.51100000000E-03 0. -1.
         22    1    1    0    0    0 -0.21972102936E+02 -0.14800636533E+02  0.12088478874E+02  0.29119812339E+02  0.00000000000E+00 0. -1.
</event>
<event>
 5    1  0.1047411E-009  0.9118800E+02  0.7815553E-02  0.1125453E+00
         25   -1    0    0    0    0  0.00000000000E+00  0.00000000000E+00  0.99999998245E-14  0.12509000000E+03  0.12509000000E+03 0.  0.
        -11    1    3    3    0    0 -0.21320298820E+02 -0.13166861535E+02 -0.15176152920E+02  0.29295682313E+02  0.51100000000E-03 0. -1.
         23    2    1    0    0    0  0.29924829358E+02  0.37163545932E+01  0.15314001636E+02  0.91269512870E+02  0.84772039198E+02 0.  0.
         11    1    3    3    0    0  0.51245128178E+02  0.16883216128E+02  0.30490154556E+02  0.61973830557E+02  0.51100000000E-03 0.  1.
         22    1    1    0    0    0 -0.29924829358E+02 -0.37163545932E+01 -0.15314001636E+02  0.33820487130E+02  0.00000000000E+00 0.  1.
</event>
<event>
 5    1  0.1047411E-009  0.9118800E+02  0.7815553E-02  0.1125453E+00
         25   -1    0    0    0    0  0.00000000000E+00  0.00000000000E+00  0.99999998245E-14  0.12509000000E+03  0.12509000000E+03 0.  0.
        -11    1    3    3    0    0  0.28932397880E+02  0.18174583824E+02  0.23363183611E+02  0.41391273149E+02  0.51100000000E-03 0.  1.
         23    2    1    0    0    0 -0.16924443372E+02  0.23866213051E+02 -0.47041072962E+01  0.95456209586E+02  0.90739883261E+02 0.  0.
         11    1    3    3    0    0 -0.45856841252E+02  0.56916292271E+01 -0.28067290907E+02  0.54064936437E+02  0.51100000000E-03 0. -1.
         22    1    1    0    0    0  0.16924443372E+02 -0.23866213051E+02  0.47041072962E+01  0.29633790414E+02  0.00000000000E+00 0. -1.
</event>
<event>
 5    1  0.1047411E-009  0.9118800E+02  0.7815553E-02  0.1125453E+00
         25   -1    0    0    0    0  0.00000000000E+00  0.00000000000E+00  0.99999998245E-14  0.12509000000E+03  0.12509000000E+03 0.  0.
        -11    1    3    3    0    0 -0.32801273079E+02 -0.89063752510E+01  0.42236114750E+02  0.54213802902E+02  0.51100000000E-03 0.  1.
         23    2    1    0    0    0 -0.16154728581E+02 -0.22838758570E+02  0.59620724045E+01  0.96487020156E+02  0.92149957150E+02 0.  0.
         11    1    3    3    0    0  0.16646544498E+02 -0.13932383319E+02 -0.36274042345E+02  0.42273217254E+02  0.51100000000E-03 0. -1.
         22    1    1    0    0    0  0.16154728581E+02  0.22838758570E+02 -0.59620724045E+01  0.28602979844E+02  0.00000000000E+00 0.  1.
</event>
<event>
 5    1  0.1047411E-009  0.9118800E+02  0.7815553E-02  0.1125453E+00
         25   -1    0    0    0    0  0.00000000000E+00  0.00000000000E+00  0.99999998245E-14  0.12509000000E+03  0.12509000000E+03 0.  0.
        -11    1    3    3    0    0  0.17748902944E+02 -0.17473921843E+02  0.30860191479E+02  0.39657444682E+02  0.51100000000E-03 0. -1.
         23    2    1    0    0    0 -0.12037796884E+02  0.24923336906E+02  0.80983569053E+01  0.96251403277E+02  0.91829559358E+02 0.  0.
         11    1    3    3    0    0 -0.29786699828E+02  0.42397258749E+02 -0.22761834574E+02  0.56593958596E+02  0.51100000000E-03 0.  1.
         22    1    1    0    0    0  0.12037796884E+02 -0.24923336906E+02 -0.80983569053E+01  0.28838596723E+02  0.00000000000E+00 0.  1.
</event>
<event>
 5    1  0.1047411E-009  0.9118800E+02  0.7815553E-02  0.1125453E+00
         25   -1    0    0    0    0  0.00000000000E+00  0.00000000000E+00  0.99999998245E-14  0.12509000000E+03  0.12509000000E+03 0.  0.
        -11    1    3    3    0    0 -0.28006944889E+02  0.50232044627E+02  0.20923871526E+02  0.61200128017E+02  0.51100000000E-03 0. -1.
         23    2    1    0    0    0 -0.58481405373E+01  0.23319674455E+02  0.15510974893E+02  0.96478842971E+02  0.92138856268E+02 0.  0.
         11    1    3    3    0    0  0.22158804352E+02 -0.26912370172E+02 -0.54128966329E+01  0.35278714954E+02  0.51100000000E-03 0.  1.
         22    1    1    0    0    0  0.58481405373E+01 -0.23319674455E+02 -0.15510974893E+02  0.28611157029E+02  0.00000000000E+00 0. -1.
</event>
<event>
 5    1  0.1047411E-009  0.9118800E+02  0.7815553E-02  0.1125453E+00
         25   -1    0    0    0    0  0.00000000000E+00  0.00000000000E+00  0.99999998245E-14  0.12509000000E+03  0.12509000000E+03 0.  0.
        -11    1    3    3    0    0  0.35057513208E+02 -0.78834221548E+01  0.50338714865E+02  0.61847908548E+02  0.51100000000E-03 0.  1.
         23    2    1    0    0    0  0.11736449473E+02 -0.68868007473E+01  0.26990919776E+02  0.94862826445E+02  0.89918150670E+02 0.  0.
         11    1    3    3    0    0 -0.23321063735E+02  0.99662140758E+00 -0.23347795089E+02  0.33014917897E+02  0.51100000000E-03 0. -1.
         22    1    1    0    0    0 -0.11736449473E+02  0.68868007473E+01 -0.26990919776E+02  0.30227173555E+02  0.00000000000E+00 0.  1.
</event>
<event>
 5    1  0.1047411E-009  0.9118800E+02  0.7815553E-02  0.1125453E+00
         25   -1    0    0    0    0  0.00000000000E+00  0.00000000000E+00  0.99999998245E-14  0.12509000000E+03  0.12509000000E+03 0.  0.
        -11    1    3    3    0    0 -0.79405737612E+01 -0.23318539007E+02  0.44261323174E+02  0.50654434184E+02  0.51100000000E-03 0.  1.
         23    2    1    0    0    0  0.10413066922E+02 -0.26837521997E+02  0.27577306105E+01  0.96171327351E+02  0.91720415267E+02 0.  0.
         11    1    3    3    0    0  0.18353640683E+02 -0.35189829893E+01 -0.41503592564E+02  0.45516893167E+02  0.51100000000E-03 0. -1.
         22    1    1    0    0    0 -0.10413066922E+02  0.26837521997E+02 -0.27577306105E+01  0.28918672649E+02  0.00000000000E+00 0. -1.
</event>
<event>
 5    1  0.1047411E-009  0.9118800E+02  0.7815553E-02  0.1125453E+00
         25   -1    0    0    0    0  0.00000000000E+00  0.00000000000E+00  0.99999998245E-14  0.12509000000E+03  0.12509000000E+03 0.  0.
        -11    1    3    3    0    0  0.30022843267E+02 -0.30371358856E+02  0.55053470675E+01  0.43059254559E+02  0.51100000000E-03 0. -1.
         23    2    1    0    0    0 -0.22964371479E+02 -0.10339010288E+02  0.99885990477E+00  0.99885730277E+02  0.96653525030E+02 0.  0.
         11    1    3    3    0    0 -0.52987214746E+02  0.20032348568E+02 -0.45064871627E+01  0.56826475718E+02  0.51100000000E-03 0.  1.
         22    1    1    0    0    0  0.22964371479E+02  0.10339010288E+02 -0.99885990477E+00  0.25204269723E+02  0.00000000000E+00 0.  1.
</event>
<event>
 4    1  0.1047411E-009  0.9118800E+02  0.7815553E-02  0.1125453E+00
         25   -1    0    0    0    0  0.00000000000E+00  0.00000000000E+00  0.99999998245E-14  0.12509000000E+03  0.12509000000E+03 0.  0.
        -11    1    1    0    0    0 -0.22234812913E+02  0.25343063306E+02  0.11972169970E+01  0.33735605698E+02  0.51100000000E-03 0. -1.
         11    1    1    0    0    0 -0.31481566712E+02 -0.17991822138E+02 -0.66463131838E+01  0.36864185678E+02  0.51100000000E-03 0.  1.
         22    1    1    0    0    0  0.53716379625E+02 -0.73512411674E+01  0.54490961868E+01  0.54490208624E+02  0.00000000000E+00 0.  1.
</event>
<event>
 5    1  0.1047411E-009  0.9118800E+02  0.7815553E-02  0.1125453E+00
         25   -1    0    0    0    0  0.00000000000E+00  0.00000000000E+00  0.99999998245E-14  0.12509000000E+03  0.12509000000E+03 0.  0.
        -11    1    3    3    0    0  0.24786637946E+02  0.18772746985E+02  0.49990810101E+02  0.58871678631E+02  0.51100000000E-03 0. -1.
         23    2    1    0    0    0  0.66476568139E+01 -0.36996049412E+01  0.30359392168E+02  0.93791899248E+02  0.88415774916E+02 0.  0.
         11    1    3    3    0    0 -0.18138981132E+02 -0.22472351927E+02 -0.19631417933E+02  0.34920220617E+02  0.51100000000E-03 0.  1.
         22    1    1    0    0    0 -0.66476568139E+01  0.36996049412E+01 -0.30359392168E+02  0.31298100752E+02  0.00000000000E+00 0. -1.
</event>
<event>
 5    1  0.1047411E-009  0.9118800E+02  0.7815553E-02  0.1125453E+00
         25   -1    0    0    0    0  0.00000000000E+00  0.00000000000E+00  0.99999998245E-14  0.12509000000E+03  0.12509000000E+03 0.  0.
        -11    1    3    3    0    0 -0.15474541601E+02 -0.17261529364E+02 -0.29079169853E+02  0.37188976234E+02  0.51100000000E-03 0. -1.
         23    2    1    0    0    0  0.17723571331E+02 -0.10673570588E+02  0.19674712325E+02  0.96539266299E+02  0.92220851995E+02 0.  0.
         11    1    3    3    0    0  0.33198112932E+02  0.65879587761E+01  0.48753882178E+02  0.59350290064E+02  0.51100000000E-03 0.  1.
         22    1    1    0    0    0 -0.17723571331E+02  0.10673570588E+02 -0.19674712325E+02  0.28550733701E+02  0.00000000000E+00 0.  1.
</event>
<event>
 5    1  0.1047411E-009  0.9118800E+02  0.7815553E-02  0.1125453E+00
         25   -1    0    0    0    0  0.00000000000E+00  0.00000000000E+00  0.99999998245E-14  0.12509000000E+03  0.12509000000E+03 0.  0.
        -11    1    3    3    0    0  0.18227608578E+02 -0.30276551604E+02 -0.11611407892E+02  0.37198657033E+02  0.51100000000E-03 0.  1.
         23    2    1    0    0    0 -0.15940409865E+02  0.58944558825E+01  0.22033532687E+02  0.97263432848E+02  0.93197948099E+02 0.  0.
         11    1    3    3    0    0 -0.34168018443E+02  0.36171007487E+02  0.33644940579E+02  0.60064775815E+02  0.51100000000E-03 0. -1.
         22    1    1    0    0    0  0.15940409865E+02 -0.58944558825E+01 -0.22033532687E+02  0.27826567152E+02  0.00000000000E+00 0. -1.
</event>
<event>
 5    1  0.1047411E-009  0.9118800E+02  0.7815553E-02  0.1125453E+00
         25   -1    0    0    0    0  0.00000000000E+00  0.00000000000E+00  0.99999998245E-14  0.12509000000E+03  0.12509000000E+03 0.  0.
        -11    1    3    3    0    0  0.52488741378E+01 -0.32524854600E+02 -0.23235433275E+02  0.40315036974E+02  0.51100000000E-03 0.  1.
         23    2    1    0    0    0  0.30829466231E+02  0.89483760868E+01 -0.14690909771E+02  0.89786285570E+02  0.82554374954E+02 0.  0.
         11    1    3    3    0    0  0.25580592093E+02  0.41473230687E+02  0.85445235047E+01  0.49471248596E+02  0.51100000000E-03 0. -1.
         22    1    1    0    0    0 -0.30829466231E+02 -0.89483760868E+01  0.14690909771E+02  0.35303714430E+02  0.00000000000E+00 0. -1.
</event>
<event>
 5    1  0.1047411E-009  0.9118800E+02  0.7815553E-02  0.1125453E+00
         25   -1    0    0    0    0  0.00000000000E+00  0.00000000000E+00  0.99999998245E-14  0.12509000000E+03  0.12509000000E+03 0.  0.
        -11    1    3    3    0    0 -0.25186917854E+02  0.29131144745E+02  0.94790375856E+01  0.39659255905E+02  0.51100000000E-03 0. -1.
         23    2    1    0    0    0 -0.15490170804E+02  0.17271339020E+02 -0.32962850585E+02  0.84781265689E+02  0.74585983603E+02 0.  0.
         11    1    3    3    0    0  0.96967470496E+01 -0.11859805725E+02 -0.42441888170E+02  0.45122009783E+02  0.51100000000E-03 0.  1.
         22    1    1    0    0    0  0.15490170804E+02 -0.17271339020E+02  0.32962850585E+02  0.40308734311E+02  0.00000000000E+00 0. -1.
</event>
<event>
 5    1  0.1047411E-009  0.9118800E+02  0.7815553E-02  0.1125453E+00
         25   -1    0    0    0    0  0.00000000000E+00  0.00000000000E+00  0.99999998245E-14  0.12509000000E+03  0.12509000000E+03 0.  0.
        -11    1    3    3    0    0  0.29273585590E+02 -0.52433503921E+01  0.13428628347E+02  0.32630715533E+02  0.51100000000E-03 0.  1.
         23    2    1    0    0    0 -0.22093412971E+02 -0.10208786188E+02 -0.19548076898E+02  0.93873569670E+02  0.88531246236E+02 0.  0.
         11    1    3    3    0    0 -0.51366998561E+02 -0.49654357960E+01 -0.32976705245E+02  0.61242854137E+02  0.51100000000E-03 0. -1.
         22    1    1    0    0    0  0.22093412971E+02  0.10208786188E+02  0.19548076898E+02  0.31216430330E+02  0.00000000000E+00 0. -1.
</event>
<event>
 5    1  0.1047411E-009  0.9118800E+02  0.7815553E-02  0.1125453E+00
         25   -1    0    0    0    0  0.00000000000E+00  0.00000000000E+00  0.99999998245E-14  0.12509000000E+03  0.12509000000E+03 0.  0.
        -11    1    3    3    0    0 -0.22160922367E+02 -0.37419336718E+02 -0.29320634555E+02  0.52450098680E+02  0.51100000000E-03 0. -1.
         23    2    1    0    0    0  0.21408257143E+01 -0.26693931828E+02  0.69648357004E+01  0.97419472945E+02  0.93407149841E+02 0.  0.
         11    1    3    3    0    0  0.24301748081E+02  0.10725404890E+02  0.36285470255E+02  0.44969374265E+02  0.51100000000E-03 0.  1.
         22    1    1    0    0    0 -0.21408257143E+01  0.26693931828E+02 -0.69648357004E+01  0.27670527055E+02  0.00000000000E+00 0.  1.
</event>
<event>
 5    1  0.1047411E-009  0.9118800E+02  0.7815553E-02  0.1125453E+00
         25   -1    0    0    0    0  0.00000000000E+00  0.00000000000E+00  0.99999998245E-14  0.12509000000E+03  0.12509000000E+03 0.  0.
        -11    1    3    3    0    0  0.31600301310E+02 -0.32298863725E+02  0.61834918495E+01  0.45607359192E+02  0.51100000000E-03 0. -1.
         23    2    1    0    0    0  0.20830742298E+02  0.16794439425E+02  0.11127871372E+02  0.96110653190E+02  0.91637629361E+02 0.  0.
         11    1    3    3    0    0 -0.10769559012E+02  0.49093303150E+02  0.49443795230E+01  0.50503293998E+02  0.51100000000E-03 0.  1.
         22    1    1    0    0    0 -0.20830742298E+02 -0.16794439425E+02 -0.11127871372E+02  0.28979346810E+02  0.00000000000E+00 0. -1.
</event>
<event>
 5    1  0.1047411E-009  0.9118800E+02  0.7815553E-02  0.1125453E+00
         25   -1    0    0    0    0  0.00000000000E+00  0.00000000000E+00  0.99999998245E-14  0.12509000000E+03  0.12509000000E+03 0.  0.
        -11    1    3    3    0    0  0.38462961771E+02  0.33475154616E+02 -0.31205257129E-01  0.50990061569E+02  0.51100000000E-03 0. -1.
         23    2    1    0    0    0  0.70237876844E+01  0.13991513891E+02  0.24958548205E+02  0.95627732896E+02  0.90976030447E+02 0.  0.
         11    1    3    3    0    0 -0.31439174087E+02 -0.19483640725E+02  0.24989753462E+02  0.44637671327E+02  0.51100000000E-03 0.  1.
         22    1    1    0    0    0 -0.70237876844E+01 -0.13991513891E+02 -0.24958548205E+02  0.29462267104E+02  0.00000000000E+00 0. -1.
</event>
<event>
 5    1  0.1047411E-009  0.9118800E+02  0.7815553E-02  0.1125453E+00
         25   -1    0    0    0    0  0.00000000000E+00  0.00000000000E+00  0.99999998245E-14  0.12509000000E+03  0.12509000000E+03 0.  0.
        -11    1    3    3    0    0 -0.39074781862E+01 -0.34530341006E+02  0.35589954957E+02  0.49741911201E+02  0.51100000000E-03 0. -1.
         23    2    1    0    0    0 -0.16814217603E+02  0.72354636029E+01  0.23886841725E+02  0.94995963136E+02  0.90103173959E+02 0.  0.
         11    1    3    3    0    0 -0.12906739417E+02  0.41765804609E+02 -0.11703113232E+02  0.45254051936E+02  0.51100000000E-03 0.  1.
         22    1    1    0    0    0  0.16814217603E+02 -0.72354636029E+01 -0.23886841725E+02  0.30094036864E+02  0.00000000000E+00 0. -1.
</event>
<event>
 5    1  0.1047411E-009  0.9118800E+02  0.7815553E-02  0.1125453E+00
         25   -1    0    0    0    0  0.00000000000E+00  0.00000000000E+00  0.99999998245E-14  0.12509000000E+03  0.12509000000E+03 0.  0.
        -11    1    3    3    0    0 -0.65998351461E+01 -0.34976177720E+02 -0.26857002673E+02  0.44589117783E+02  0.51100000000E-03 0.  1.
         23    2    1    0    0    0 -0.23502139614E+02  0.11291002578E+02 -0.13991637659E+02  0.95499406393E+02  0.90799412946E+02 0.  0.
         11    1    3    3    0    0 -0.16902304468E+02  0.46267180298E+02  0.12865365014E+02  0.50910288609E+02  0.51100000000E-03 0. -1.
         22    1    1    0    0    0  0.23502139614E+02 -0.11291002578E+02  0.13991637659E+02  0.29590593607E+02  0.00000000000E+00 0. -1.
</event>
<event>
 5    1  0.1047411E-009  0.9118800E+02  0.7815553E-02  0.1125453E+00
         25   -1    0    0    0    0  0.00000000000E+00  0.00000000000E+00  0.99999998245E-14  0.12509000000E+03  0.12509000000E+03 0.  0.
        -11    1    3    3    0    0 -0.16060199549E+02 -0.25099600693E+02 -0.11716755580E+02  0.32018780834E+02  0.51100000000E-03 0.  1.
         23    2    1    0    0    0 -0.64100130334E+01  0.11369113208E+02  0.32456191074E+02  0.90107871116E+02  0.83040225769E+02 0.  0.
         11    1    3    3    0    0  0.96501865154E+01  0.36468713901E+02  0.44172946655E+02  0.58089090282E+02  0.51100000000E-03 0. -1.
         22    1    1    0    0    0  0.64100130334E+01 -0.11369113208E+02 -0.32456191074E+02  0.34982128884E+02  0.00000000000E+00 0. -1.
</event>
<event>
 5    1  0.1047411E-009  0.9118800E+02  0.7815553E-02  0.1125453E+00
         25   -1    0    0    0    0  0.00000000000E+00  0.00000000000E+00  0.99999998245E-14  0.12509000000E+03  0.12509000000E+03 0.  0.
        -11    1    3    3    0    0 -0.34953876017E+02  0.42523557786E+02 -0.11980806371E+02  0.56334413434E+02  0.51100000000E-03 0.  1.
         23    2    1    0    0    0 -0.21061887584E+02  0.19357439412E+02  0.13490997669E+02  0.93462154874E+02  0.87948017638E+02 0.  0.
         11    1    3    3    0    0  0.13891988432E+02 -0.23166118374E+02  0.25471804041E+02  0.37127741441E+02  0.51100000000E-03 0. -1.
         22    1    1    0    0    0  0.21061887584E+02 -0.19357439412E+02 -0.13490997669E+02  0.31627845126E+02  0.00000000000E+00 0.  1.
</event>
<event>
 5    1  0.1047411E-009  0.9118800E+02  0.7815553E-02  0.1125453E+00
         25   -1    0    0    0    0  0.00000000000E+00  0.00000000000E+00  0.99999998245E-14  0.12509000000E+03  0.12509000000E+03 0.  0.
        -11    1    3    3    0    0 -0.24694531977E+02  0.12716294433E+02  0.27710231179E+02  0.39234945724E+02  0.51100000000E-03 0. -1.
         23    2    1    0    0    0 -0.77099379177E+01  0.10448842148E+02 -0.26224709036E+02  0.95826425219E+02  0.91248818959E+02 0.  0.
         11    1    3    3    0    0  0.16984594059E+02 -0.22674522853E+01 -0.53934940215E+02  0.56591479496E+02  0.51100000000E-03 0.  1.
         22    1    1    0    0    0  0.77099379177E+01 -0.10448842148E+02  0.26224709036E+02  0.29263574781E+02  0.00000000000E+00 0.  1.
</event>
<event>
 5    1  0.1047411E-009  0.9118800E+02  0.7815553E-02  0.1125453E+00
         25   -1    0    0    0    0  0.00000000000E+00  0.00000000000E+00  0.99999998245E-14  0.12509000000E+03  0.12509000000E+03 0.  0.
        -11    1    3    3    0    0 -0.24437068710E+01 -0.99527949405E+00  0.58803079431E+02  0.58862249662E+02  0.51100000000E-03 0. -1.
         23    2    1    0    0    0  0.75290761513E+01 -0.12776230607E+02  0.25002862574E+02  0.96020046558E+02  0.91513863146E+02 0.  0.
         11    1    3    3    0    0  0.99727830223E+01 -0.11780951113E+02 -0.33800216857E+02  0.37157796896E+02  0.51100000000E-03 0.  1.
         22    1    1    0    0    0 -0.75290761513E+01  0.12776230607E+02 -0.25002862574E+02  0.29069953442E+02  0.00000000000E+00 0. -1.
</event>
<event>
 5    1  0.1047411E-009  0.9118800E+02  0.7815553E-02  0.1125453E+00
         25   -1    0    0    0    0  0.00000000000E+00  0.00000000000E+00  0.99999998245E-14  0.12509000000E+03  0.12509000000E+03 0.  0.
        -11    1    3    3    0    0 -0.43019073425E+00 -0.43267789937E+02 -0.43553321452E+00  0.43272120350E+02  0.51100000000E-03 0.  1.
         23    2    1    0    0    0 -0.25921921648E+02  0.44917779375E+01 -0.71594920964E+01  0.97824996460E+02  0.93948653605E+02 0.  0.
         11    1    3    3    0    0 -0.25491730914E+02  0.47759567875E+02 -0.67239588819E+01  0.54552876110E+02  0.51100000000E-03 0. -1.
         22    1    1    0    0    0  0.25921921648E+02 -0.44917779375E+01  0.71594920964E+01  0.27265003540E+02  0.00000000000E+00 0. -1.
</event>
<event>
 5    1  0.1047411E-009  0.9118800E+02  0.7815553E-02  0.1125453E+00
         25   -1    0    0    0    0  0.00000000000E+00  0.00000000000E+00  0.99999998245E-14  0.12509000000E+03  0.12509000000E+03 0.  0.
        -11    1    3    3    0    0 -0.37502953298E+02 -0.23458318763E+02 -0.35376294459E+02  0.56641384474E+02  0.51100000000E-03 0. -1.
         23    2    1    0    0    0 -0.10411041441E+02 -0.46197911313E+00 -0.30926531506E+02  0.92454841664E+02  0.86503434542E+02 0.  0.
         11    1    3    3    0    0  0.27091911857E+02  0.22996339650E+02  0.44497629525E+01  0.35813457191E+02  0.51100000000E-03 0.  1.
         22    1    1    0    0    0  0.10411041441E+02  0.46197911313E+00  0.30926531506E+02  0.32635158336E+02  0.00000000000E+00 0. -1.
</event>
<event>
 5    1  0.1047411E-009  0.9118800E+02  0.7815553E-02  0.1125453E+00
         25   -1    0    0    0    0  0.00000000000E+00  0.00000000000E+00  0.99999998245E-14  0.12509000000E+03  0.12509000000E+03 0.  0.
        -11    1    3    3    0    0  0.13544221669E+02  0.33020774329E+02  0.43218799469E+02  0.56050710127E+02  0.51100000000E-03 0. -1.
         23    2    1    0    0    0 -0.13408651366E+02  0.14565211269E+02  0.24102890289E+02  0.93898869353E+02  0.88566986145E+02 0.  0.
         11    1    3    3    0    0 -0.26952873035E+02 -0.18455563061E+02 -0.19115909180E+02  0.37848159226E+02  0.51100000000E-03 0.  1.
         22    1    1    0    0    0  0.13408651366E+02 -0.14565211269E+02 -0.24102890289E+02  0.31191130647E+02  0.00000000000E+00 0.  1.
</event>
<event>
 5    1  0.1047411E-009  0.9118800E+02  0.7815553E-02  0.1125453E+00
         25   -1    0    0    0    0  0.00000000000E+00  0.00000000000E+00  0.99999998245E-14  0.12509000000E+03  0.12509000000E+03 0.  0.
        -11    1    3    3    0    0 -0.26669197633E+02  0.50281542291E+02 -0.36754492909E+01  0.57034976333E+02  0.51100000000E-03 0.  1.
         23    2    1    0    0    0 -0.17815079632E+02  0.95846852197E+01 -0.14658545440E+02  0.10010768210E+03  0.96940351808E+02 0.  0.
         11    1    3    3    0    0  0.88541180010E+01 -0.40696857072E+02 -0.10983096149E+02  0.43072705770E+02  0.51100000000E-03 0. -1.
         22    1    1    0    0    0  0.17815079632E+02 -0.95846852197E+01  0.14658545440E+02  0.24982317896E+02  0.00000000000E+00 0. -1.
</event>
<event>
 5    1  0.1047411E-009  0.9118800E+02  0.7815553E-02  0.1125453E+00
         25   -1    0    0    0    0  0.00000000000E+00  0.00000000000E+00  0.99999998245E-14  0.12509000000E+03  0.12509000000E+03 0.  0.
        -11    1    3    3    0    0  0.32740553977E+02 -0.24124482521E+02 -0.25125445532E+02  0.47804001350E+02  0.51100000000E-03 0.  1.
         23    2    1    0    0    0 -0.13972941744E+02 -0.22178608405E+02 -0.11167750982E+02  0.96596975700E+02  0.92299096857E+02 0.  0.
         11    1    3    3    0    0 -0.46713495721E+02  0.19458741164E+01  0.13957694550E+02  0.48792974350E+02  0.51100000000E-03 0. -1.
         22    1    1    0    0    0  0.13972941744E+02  0.22178608405E+02  0.11167750982E+02  0.28493024300E+02  0.00000000000E+00 0. -1.
</event>
<event>
 5    1  0.1047411E-009  0.9118800E+02  0.7815553E-02  0.1125453E+00
         25   -1    0    0    0    0  0.00000000000E+00  0.00000000000E+00  0.99999998245E-14  0.12509000000E+03  0.12509000000E+03 0.  0.
        -11    1    3    3    0    0  0.12756297725E+02 -0.21697929506E+02  0.20910469519E+02  0.32722637612E+02  0.51100000000E-03 0. -1.
         23    2    1    0    0    0 -0.50085649747E+01  0.22730900750E+02 -0.19009826961E+02  0.95037494395E+02  0.90160813261E+02 0.  0.
         11    1    3    3    0    0 -0.17764862700E+02  0.44428830256E+02 -0.39920296480E+02  0.62314856784E+02  0.51100000000E-03 0.  1.
         22    1    1    0    0    0  0.50085649747E+01 -0.22730900750E+02  0.19009826961E+02  0.30052505605E+02  0.00000000000E+00 0.  1.
</event>
<event>
 5    1  0.1047411E-009  0.9118800E+02  0.7815553E-02  0.1125453E+00
         25   -1    0    0    0    0  0.00000000000E+00  0.00000000000E+00  0.99999998245E-14  0.12509000000E+03  0.12509000000E+03 0.  0.
        -11    1    3    3    0    0 -0.33937916285E+02 -0.39993279077E+02  0.25776190369E+02  0.58443618328E+02  0.51100000000E-03 0.  1.
         23    2    1    0    0    0 -0.25646847980E+02 -0.15956552504E+02 -0.32560538155E+00  0.94882742627E+02  0.89945852881E+02 0.  0.
         11    1    3    3    0    0  0.82910683044E+01  0.24036726573E+02 -0.26101795751E+02  0.36439124299E+02  0.51100000000E-03 0. -1.
         22    1    1    0    0    0  0.25646847980E+02  0.15956552504E+02  0.32560538155E+00  0.30207257373E+02  0.00000000000E+00 0.  1.
</event>
<event>
 5    1  0.1047411E-009  0.9118800E+02  0.7815553E-02  0.1125453E+00
         25   -1    0    0    0    0  0.00000000000E+00  0.00000000000E+00  0.99999998245E-14  0.12509000000E+03  0.12509000000E+03 0.  0.
        -11    1    3    3    0    0 -0.36119809504E+02 -0.45010659033E+02 -0.83656263966E+01  0.58314524523E+02  0.51100000000E-03 0. -1.
         23    2    1    0    0    0 -0.75223348533E+01 -0.24899771092E+02  0.92759295569E+01  0.97474298104E+02  0.93480542359E+02 0.  0.
         11    1    3    3    0    0  0.28597474650E+02  0.20110887941E+02  0.17641555954E+02  0.39159773580E+02  0.51100000000E-03 0.  1.
         22    1    1    0    0    0  0.75223348533E+01  0.24899771092E+02 -0.92759295569E+01  0.27615701896E+02  0.00000000000E+00 0. -1.
</event>
<event>
 5    1  0.1047411E-009  0.9118800E+02  0.7815553E-02  0.1125453E+00
         25   -1    0    0    0    0  0.00000000000E+00  0.00000000000E+00  0.99999998245E-14  0.12509000000E+03  0.12509000000E+03 0.  0.
        -11    1    3    3    0    0 -0.13347509449E+02 -0.30861789826E+02 -0.86888168285E+01  0.34728973753E+02  0.51100000000E-03 0.  1.
         23    2    1    0    0    0  0.16975397158E+02  0.22722874862E+02 -0.21371241697E+01  0.96646012052E+02  0.92365530341E+02 0.  0.
         11    1    3    3    0    0  0.30322906607E+02  0.53584664688E+02  0.65516926588E+01  0.61917038300E+02  0.51100000000E-03 0. -1.
         22    1    1    0    0    0 -0.16975397158E+02 -0.22722874862E+02  0.21371241697E+01  0.28443987948E+02  0.00000000000E+00 0. -1.
</event>
<event>
 5    1  0.1047411E-009  0.9118800E+02  0.7815553E-02  0.1125453E+00
         25   -1    0    0    0    0  0.00000000000E+00  0.00000000000E+00  0.99999998245E-14  0.12509000000E+03  0.12509000000E+03 0.  0.
        -11    1    3    3    0    0 -0.25405666601E+02 -0.32078521295E+02  0.26045045468E+02  0.48505915285E+02  0.51100000000E-03 0.  1.
         23    2    1    0    0    0 -0.33144708681E+02 -0.92764060099E+01 -0.75635260481E+01  0.89850386661E+02  0.82651446659E+02 0.  0.
         11    1    3    3    0    0 -0.77390420800E+01  0.22802115285E+02 -0.33608571516E+02  0.41344471377E+02  0.51100000000E-03 0. -1.
         22    1    1    0    0    0  0.33144708681E+02  0.92764060099E+01  0.75635260481E+01  0.35239613339E+02  0.00000000000E+00 0.  1.
</event>
<event>
 5    1  0.1047411E-009  0.9118800E+02  0.7815553E-02  0.1125453E+00
         25   -1    0    0    0    0  0.00000000000E+00  0.00000000000E+00  0.99999998245E-14  0.12509000000E+03  0.12509000000E+03 0.  0.
        -11    1    3    3    0    0  0.11275604777E+02  0.19412034705E+02  0.24731463437E+02  0.33400773022E+02  0.51100000000E-03 0.  1.
         23    2    1    0    0    0 -0.35715506118E+01 -0.91306395429E+01 -0.28139454174E+02  0.95291452495E+02  0.90512471434E+02 0.  0.
         11    1    3    3    0    0 -0.14847155389E+02 -0.28542674248E+02 -0.52870917610E+02  0.61890679473E+02  0.51100000000E-03 0. -1.
         22    1    1    0    0    0  0.35715506118E+01  0.91306395429E+01  0.28139454174E+02  0.29798547505E+02  0.00000000000E+00 0. -1.
</event>
<event>
 5    1  0.1047411E-009  0.9118800E+02  0.7815553E-02  0.1125453E+00
         25   -1    0    0    0    0  0.00000000000E+00  0.00000000000E+00  0.99999998245E-14  0.12509000000E+03  0.12509000000E+03 0.  0.
        -11    1    3    3    0    0  0.62595855265E+01  0.87597246229E+01 -0.53058648234E+02  0.54139960650E+02  0.51100000000E-03 0.  1.
         23    2    1    0    0    0 -0.58266580918E+01  0.22676731244E+02 -0.12826776445E+02  0.98393365785E+02  0.94702397816E+02 0.  0.
         11    1    3    3    0    0 -0.12086243618E+02  0.13917006621E+02  0.40231871789E+02  0.44253405135E+02  0.51100000000E-03 0. -1.
         22    1    1    0    0    0  0.58266580918E+01 -0.22676731244E+02  0.12826776445E+02  0.26696634215E+02  0.00000000000E+00 0.  1.
</event>
<event>
 5    1  0.1047411E-009  0.9118800E+02  0.7815553E-02  0.1125453E+00
         25   -1    0    0    0    0  0.00000000000E+00  0.00000000000E+00  0.99999998245E-14  0.12509000000E+03  0.12509000000E+03 0.  0.
        -11    1    3    3    0    0 -0.34589581489E+02  0.38467104734E+02  0.22612960348E+00  0.51732083170E+02  0.51100000000E-03 0. -1.
         23    2    1    0    0    0 -0.11840965076E+02  0.75540726176E+01  0.24288868602E+02  0.97032530317E+02  0.92887514418E+02 0.  0.
         11    1    3    3    0    0  0.22748616413E+02 -0.30913032117E+02  0.24062738999E+02  0.45300447147E+02  0.51100000000E-03 0.  1.
         22    1    1    0    0    0  0.11840965076E+02 -0.75540726176E+01 -0.24288868602E+02  0.28057469683E+02  0.00000000000E+00 0. -1.
</event>
<event>
 5    1  0.1047411E-009  0.9118800E+02  0.7815553E-02  0.1125453E+00
         25   -1    0    0    0    0  0.00000000000E+00  0.00000000000E+00  0.99999998245E-14  0.12509000000E+03  0.12509000000E+03 0.  0.
        -11    1    3    3    0    0  0.15891559838E+02  0.36296033704E+02  0.36645977410E+02  0.53971023682E+02  0.51100000000E-03 0. -1.
         23    2    1    0    0    0 -0.21338348989E+01  0.29292562510E+02 -0.35162780638E+00  0.95717715242E+02  0.91099670138E+02 0.  0.
         11    1    3    3    0    0 -0.18025394736E+02 -0.70034711938E+01 -0.36997605217E+02  0.41746691560E+02  0.51100000000E-03 0.  1.
         22    1    1    0    0    0  0.21338348989E+01 -0.29292562510E+02  0.35162780638E+00  0.29372284758E+02  0.00000000000E+00 0. -1.
</event>
<event>
 5    1  0.1047411E-009  0.9118800E+02  0.7815553E-02  0.1125453E+00
         25   -1    0    0    0    0  0.00000000000E+00  0.00000000000E+00  0.99999998245E-14  0.12509000000E+03  0.12509000000E+03 0.  0.
        -11    1    3    3    0    0 -0.46325359140E+02 -0.99088800892E+01 -0.24489805138E+02  0.53328935485E+02  0.51100000000E-03 0.  1.
         23    2    1    0    0    0 -0.24939859763E+02  0.16956969622E+02 -0.10337597839E+01  0.94913782824E+02  0.89989010923E+02 0.  0.
         11    1    3    3    0    0  0.21385499377E+02  0.26865849711E+02  0.23456045354E+02  0.41584847339E+02  0.51100000000E-03 0. -1.
         22    1    1    0    0    0  0.24939859763E+02 -0.16956969622E+02  0.10337597839E+01  0.30176217176E+02  0.00000000000E+00 0.  1.
</event>
<event>
 5    1  0.1047411E-009  0.9118800E+02  0.7815553E-02  0.1125453E+00
         25   -1    0    0    0    0  0.00000000000E+00  0.00000000000E+00  0.99999998245E-14  0.12509000000E+03  0.12509000000E+03 0.  0.
        -11    1    3    3    0    0  0.24848741882E+02 -0.36412707001E+02 -0.25981989566E+02  0.51170391696E+02  0.51100000000E-03 0.  1.
         23    2    1    0    0    0 -0.80894278109E+01 -0.29444976707E+02  0.13336271904E+01  0.94524920954E+02  0.89446836860E+02 0.  0.
         11    1    3    3    0    0 -0.32938169692E+02  0.69677302942E+01  0.27315616757E+02  0.43354529258E+02  0.51100000000E-03 0. -1.
         22    1    1    0    0    0  0.80894278109E+01  0.29444976707E+02 -0.13336271904E+01  0.30565079046E+02  0.00000000000E+00 0.  1.
</event>
<event>
 5    1  0.1047411E-009  0.9118800E+02  0.7815553E-02  0.1125453E+00
         25   -1    0    0    0    0  0.00000000000E+00  0.00000000000E+00  0.99999998245E-14  0.12509000000E+03  0.12509000000E+03 0.  0.
        -11    1    3    3    0    0 -0.31722854432E+02 -0.16830258297E+02 -0.33514798927E+02  0.49120655889E+02  0.51100000000E-03 0.  1.
         23    2    1    0    0    0 -0.27755013801E+02  0.12977781049E+01  0.93044363581E+01  0.95788164647E+02  0.91196353718E+02 0.  0.
         11    1    3    3    0    0  0.39678406306E+01  0.18128036402E+02  0.42819235285E+02  0.46667508758E+02  0.51100000000E-03 0. -1.
         22    1    1    0    0    0  0.27755013801E+02 -0.12977781049E+01 -0.93044363581E+01  0.29301835353E+02  0.00000000000E+00 0.  1.
</event>
<event>
 5    1  0.1047411E-009  0.9118800E+02  0.7815553E-02  0.1125453E+00
         25   -1    0    0    0    0  0.00000000000E+00  0.00000000000E+00  0.99999998245E-14  0.12509000000E+03  0.12509000000E+03 0.  0.
        -11    1    3    3    0    0 -0.18234331702E+02 -0.16245219145E+02 -0.34074035112E+02  0.41921806577E+02  0.51100000000E-03 0.  1.
         23    2    1    0    0    0 -0.98908229021E+01 -0.26282794257E+02  0.15381786500E+02  0.93071052366E+02  0.87389975289E+02 0.  0.
         11    1    3    3    0    0  0.83435087995E+01 -0.10037575112E+02  0.49455821612E+02  0.51149245789E+02  0.51100000000E-03 0. -1.
         22    1    1    0    0    0  0.98908229021E+01  0.26282794257E+02 -0.15381786500E+02  0.32018947634E+02  0.00000000000E+00 0. -1.
</event>
<event>
 5    1  0.1047411E-009  0.9118800E+02  0.7815553E-02  0.1125453E+00
         25   -1    0    0    0    0  0.00000000000E+00  0.00000000000E+00  0.99999998245E-14  0.12509000000E+03  0.12509000000E+03 0.  0.
        -11    1    3    3    0    0  0.22282616015E+02  0.20098191086E+01  0.27016564935E+02  0.35077758345E+02  0.51100000000E-03 0. -1.
         23    2    1    0    0    0 -0.21686102381E+02  0.46202834448E+01 -0.16849713063E+02  0.97241357558E+02  0.93168314001E+02 0.  0.
         11    1    3    3    0    0 -0.43968718396E+02  0.26104643362E+01 -0.43866277998E+02  0.62163599213E+02  0.51100000000E-03 0.  1.
         22    1    1    0    0    0  0.21686102381E+02 -0.46202834448E+01  0.16849713063E+02  0.27848642442E+02  0.00000000000E+00 0.  1.
</event>
<event>
 5    1  0.1047411E-009  0.9118800E+02  0.7815553E-02  0.1125453E+00
         25   -1    0    0    0    0  0.00000000000E+00  0.00000000000E+00  0.99999998245E-14  0.12509000000E+03  0.12509000000E+03 0.  0.
        -11    1    3    3    0    0  0.79150318327E+01 -0.37819659167E+02  0.83555289668E-01  0.38639116581E+02  0.51100000000E-03 0.  1.
         23    2    1    0    0    0 -0.32353484338E+02 -0.19245078144E+01 -0.19369552860E+01  0.92621500267E+02  0.86744099723E+02 0.  0.
         11    1    3    3    0    0 -0.40268516171E+02  0.35895151352E+02 -0.20205105756E+01  0.53982383686E+02  0.51100000000E-03 0. -1.
         22    1    1    0    0    0  0.32353484338E+02  0.19245078144E+01  0.19369552860E+01  0.32468499733E+02  0.00000000000E+00 0. -1.
</event>
<event>
 5    1  0.1047411E-009  0.9118800E+02  0.7815553E-02  0.1125453E+00
         25   -1    0    0    0    0  0.00000000000E+00  0.00000000000E+00  0.99999998245E-14  0.12509000000E+03  0.12509000000E+03 0.  0.
        -11    1    3    3    0    0 -0.60636562653E+01 -0.31759922414E+01 -0.33460436990E+02  0.34153414147E+02  0.51100000000E-03 0. -1.
         23    2    1    0    0    0  0.26242283937E+02  0.24416015542E+02  0.15602824850E+01  0.89211959884E+02  0.81679495736E+02 0.  0.
         11    1    3    3    0    0  0.32305940202E+02  0.27592007783E+02  0.35020719475E+02  0.55058545737E+02  0.51100000000E-03 0.  1.
         22    1    1    0    0    0 -0.26242283937E+02 -0.24416015542E+02 -0.15602824850E+01  0.35878040116E+02  0.00000000000E+00 0.  1.
</event>
<event>
 5    1  0.1047411E-009  0.9118800E+02  0.7815553E-02  0.1125453E+00
         25   -1    0    0    0    0  0.00000000000E+00  0.00000000000E+00  0.99999998245E-14  0.12509000000E+03  0.12509000000E+03 0.  0.
        -11    1    3    3    0    0 -0.33092311327E+02 -0.44613756702E+02  0.15790269819E+02  0.57747908856E+02  0.51100000000E-03 0. -1.
         23    2    1    0    0    0 -0.32091636848E+02 -0.18280525518E+02  0.62630019493E+00  0.88151632132E+02  0.80039160583E+02 0.  0.
         11    1    3    3    0    0  0.10006744786E+01  0.26333231185E+02 -0.15163969624E+02  0.30403723276E+02  0.51100000000E-03 0.  1.
         22    1    1    0    0    0  0.32091636848E+02  0.18280525518E+02 -0.62630019493E+00  0.36938367868E+02  0.00000000000E+00 0. -1.
</event>
<event>
 5    1  0.1047411E-009  0.9118800E+02  0.7815553E-02  0.1125453E+00
         25   -1    0    0    0    0  0.00000000000E+00  0.00000000000E+00  0.99999998245E-14  0.12509000000E+03  0.12509000000E+03 0.  0.
        -11    1    3    3    0    0 -0.29266011888E+02  0.14317753210E+02 -0.85401699231E+01  0.33681330309E+02  0.51100000000E-03 0.  1.
         23    2    1    0    0    0  0.18951507806E+02 -0.20298933489E+02  0.95329421753E+01  0.95728744314E+02  0.91114813025E+02 0.  0.
         11    1    3    3    0    0  0.48217519694E+02 -0.34616686699E+02  0.18073112098E+02  0.62047414005E+02  0.51100000000E-03 0. -1.
         22    1    1    0    0    0 -0.18951507806E+02  0.20298933489E+02 -0.95329421753E+01  0.29361255686E+02  0.00000000000E+00 0. -1.
</event>
<event>
 5    1  0.1047411E-009  0.9118800E+02  0.7815553E-02  0.1125453E+00
         25   -1    0    0    0    0  0.00000000000E+00  0.00000000000E+00  0.99999998245E-14  0.12509000000E+03  0.12509000000E+03 0.  0.
        -11    1    3    3    0    0  0.35713341983E+02  0.18302046332E+01 -0.18045380557E+02  0.40055314308E+02  0.51100000000E-03 0. -1.
         23    2    1    0    0    0 -0.42662710992E+01  0.30388928913E+02  0.44314716399E+01  0.94084742213E+02  0.88829120826E+02 0.  0.
         11    1    3    3    0    0 -0.39979613083E+02  0.28558724280E+02  0.22476852197E+02  0.54029427904E+02  0.51100000000E-03 0.  1.
         22    1    1    0    0    0  0.42662710992E+01 -0.30388928913E+02 -0.44314716399E+01  0.31005257787E+02  0.00000000000E+00 0.  1.
</event>
<event>
 5    1  0.1047411E-009  0.9118800E+02  0.7815553E-02  0.1125453E+00
         25   -1    0    0    0    0  0.00000000000E+00  0.00000000000E+00  0.99999998245E-14  0.12509000000E+03  0.12509000000E+03 0.  0.
        -11    1    3    3    0    0 -0.58337822123E+02  0.68645411789E+01  0.10077635036E+01  0.58748948954E+02  0.51100000000E-03 0.  1.
         23    2    1    0    0    0 -0.23258858486E+02  0.12075308925E+02  0.12535814655E+02  0.96039453830E+02  0.91540387039E+02 0.  0.
         11    1    3    3    0    0  0.35078963637E+02  0.52107677458E+01  0.11528051152E+02  0.37290504877E+02  0.51100000000E-03 0. -1.
         22    1    1    0    0    0  0.23258858486E+02 -0.12075308925E+02 -0.12535814655E+02  0.29050546170E+02  0.00000000000E+00 0.  1.
</event>
<event>
 5    1  0.1047411E-009  0.9118800E+02  0.7815553E-02  0.1125453E+00
         25   -1    0    0    0    0  0.00000000000E+00  0.00000000000E+00  0.99999998245E-14  0.12509000000E+03  0.12509000000E+03 0.  0.
        -11    1    3    3    0    0 -0.57845789908E+02  0.82199879885E+01 -0.13992303838E+02  0.60079016133E+02  0.51100000000E-03 0.  1.
         23    2    1    0    0    0 -0.29269323758E+02 -0.11159881631E+01  0.46203086163E+01  0.95437243054E+02  0.90713733068E+02 0.  0.
         11    1    3    3    0    0  0.28576466150E+02 -0.93359761516E+01  0.18612612454E+02  0.35358226920E+02  0.51100000000E-03 0. -1.
         22    1    1    0    0    0  0.29269323758E+02  0.11159881631E+01 -0.46203086163E+01  0.29652756946E+02  0.00000000000E+00 0.  1.
</event>
<event>
 5    1  0.1047411E-009  0.9118800E+02  0.7815553E-02  0.1125453E+00
         25   -1    0    0    0    0  0.00000000000E+00  0.00000000000E+00  0.99999998245E-14  0.12509000000E+03  0.12509000000E+03 0.  0.
        -11    1    3    3    0    0 -0.77760063101E+01 -0.36199731898E+02 -0.91498314183E+01  0.38139300975E+02  0.51100000000E-03 0.  1.
         23    2    1    0    0    0 -0.59109092781E+01  0.20117424251E+02 -0.20663296712E+02  0.95651565293E+02  0.91008793558E+02 0.  0.
         11    1    3    3    0    0  0.18650970320E+01  0.56317156149E+02 -0.11513465294E+02  0.57512264318E+02  0.51100000000E-03 0. -1.
         22    1    1    0    0    0  0.59109092781E+01 -0.20117424251E+02  0.20663296712E+02  0.29438434707E+02  0.00000000000E+00 0. -1.
</event>
<event>
 5    1  0.1047411E-009  0.9118800E+02  0.7815553E-02  0.1125453E+00
         25   -1    0    0    0    0  0.00000000000E+00  0.00000000000E+00  0.99999998245E-14  0.12509000000E+03  0.12509000000E+03 0.  0.
        -11    1    3    3    0    0 -0.19885263628E+02  0.28409312243E+02 -0.51906026173E+01  0.35063586346E+02  0.51100000000E-03 0.  1.
         23    2    1    0    0    0  0.26503839553E+02 -0.80907951871E+01  0.93294547453E+01  0.95850417177E+02  0.91281702818E+02 0.  0.
         11    1    3    3    0    0  0.46389103181E+02 -0.36500107430E+02  0.14520057363E+02  0.60786830831E+02  0.51100000000E-03 0. -1.
         22    1    1    0    0    0 -0.26503839553E+02  0.80907951871E+01 -0.93294547453E+01  0.29239582823E+02  0.00000000000E+00 0. -1.
</event>
<event>
 5    1  0.1047411E-009  0.9118800E+02  0.7815553E-02  0.1125453E+00
         25   -1    0    0    0    0  0.00000000000E+00  0.00000000000E+00  0.99999998245E-14  0.12509000000E+03  0.12509000000E+03 0.  0.
        -11    1    3    3    0    0 -0.23861228242E+02 -0.26545305386E+02 -0.22718582673E+01  0.35765525181E+02  0.51100000000E-03 0. -1.
         23    2    1    0    0    0  0.26795718933E+02  0.60814727329E+01  0.70143881773E+01  0.96731641351E+02  0.92481424801E+02 0.  0.
         11    1    3    3    0    0  0.50656947175E+02  0.32626778119E+02  0.92862464445E+01  0.60966116170E+02  0.51100000000E-03 0.  1.
         22    1    1    0    0    0 -0.26795718933E+02 -0.60814727329E+01 -0.70143881773E+01  0.28358358649E+02  0.00000000000E+00 0.  1.
</event>
<event>
 5    1  0.1047411E-009  0.9118800E+02  0.7815553E-02  0.1125453E+00
         25   -1    0    0    0    0  0.00000000000E+00  0.00000000000E+00  0.99999998245E-14  0.12509000000E+03  0.12509000000E+03 0.  0.
        -11    1    3    3    0    0  0.15379197899E+02  0.47685145279E+01 -0.53387527596E+02  0.55762770392E+02  0.51100000000E-03 0. -1.
         23    2    1    0    0    0 -0.19696199445E+01 -0.16340792185E+02 -0.24953265743E+02  0.95197419596E+02  0.90382422708E+02 0.  0.
         11    1    3    3    0    0 -0.17348817843E+02 -0.21109306713E+02  0.28434261853E+02  0.39434649204E+02  0.51100000000E-03 0.  1.
         22    1    1    0    0    0  0.19696199445E+01  0.16340792185E+02  0.24953265743E+02  0.29892580404E+02  0.00000000000E+00 0. -1.
</event>
<event>
 5    1  0.1047411E-009  0.9118800E+02  0.7815553E-02  0.1125453E+00
         25   -1    0    0    0    0  0.00000000000E+00  0.00000000000E+00  0.99999998245E-14  0.12509000000E+03  0.12509000000E+03 0.  0.
        -11    1    3    3    0    0  0.31909187585E+02  0.16894210337E+02 -0.27471906203E+02  0.45368670092E+02  0.51100000000E-03 0.  1.
         23    2    1    0    0    0  0.25240445573E+02 -0.22221150950E+02 -0.46544145593E+01  0.91141167662E+02  0.84582440409E+02 0.  0.
         11    1    3    3    0    0 -0.66687420118E+01 -0.39115361287E+02  0.22817491643E+02  0.45772497570E+02  0.51100000000E-03 0. -1.
         22    1    1    0    0    0 -0.25240445573E+02  0.22221150950E+02  0.46544145593E+01  0.33948832338E+02  0.00000000000E+00 0.  1.
</event>
<event>
 5    1  0.1047411E-009  0.9118800E+02  0.7815553E-02  0.1125453E+00
         25   -1    0    0    0    0  0.00000000000E+00  0.00000000000E+00  0.99999998245E-14  0.12509000000E+03  0.12509000000E+03 0.  0.
        -11    1    3    3    0    0  0.54019462688E+02  0.17726647004E+02  0.22644799188E+02  0.61197412475E+02  0.51100000000E-03 0. -1.
         23    2    1    0    0    0  0.27368155792E+02  0.13192150594E+01  0.46514619163E+01  0.97298051925E+02  0.93244402141E+02 0.  0.
         11    1    3    3    0    0 -0.26651306896E+02 -0.16407431944E+02 -0.17993337272E+02  0.36100639450E+02  0.51100000000E-03 0.  1.
         22    1    1    0    0    0 -0.27368155792E+02 -0.13192150594E+01 -0.46514619163E+01  0.27791948075E+02  0.00000000000E+00 0. -1.
</event>
<event>
 5    1  0.1047411E-009  0.9118800E+02  0.7815553E-02  0.1125453E+00
         25   -1    0    0    0    0  0.00000000000E+00  0.00000000000E+00  0.99999998245E-14  0.12509000000E+03  0.12509000000E+03 0.  0.
        -11    1    3    3    0    0 -0.93838527910E+01 -0.55622988103E+02 -0.10039713207E+02  0.57295456541E+02  0.51100000000E-03 0.  1.
         23    2    1    0    0    0 -0.10449358842E+02 -0.18866026139E+02 -0.20299877233E+02  0.95472419779E+02  0.90762227166E+02 0.  0.
         11    1    3    3    0    0 -0.10655060506E+01  0.36756961964E+02 -0.10260164026E+02  0.38176963237E+02  0.51100000000E-03 0. -1.
         22    1    1    0    0    0  0.10449358842E+02  0.18866026139E+02  0.20299877233E+02  0.29617580221E+02  0.00000000000E+00 0.  1.
</event>
<event>
 5    1  0.1047411E-009  0.9118800E+02  0.7815553E-02  0.1125453E+00
         25   -1    0    0    0    0  0.00000000000E+00  0.00000000000E+00  0.99999998245E-14  0.12509000000E+03  0.12509000000E+03 0.  0.
        -11    1    3    3    0    0 -0.60773598721E+01  0.12243029335E+02  0.30867052275E+02  0.33757976638E+02  0.51100000000E-03 0.  1.
         23    2    1    0    0    0  0.15455791243E+01 -0.29538019312E+02 -0.11130145969E+02  0.93486779452E+02  0.87983034634E+02 0.  0.
         11    1    3    3    0    0  0.76229389964E+01 -0.41781048647E+02 -0.41997198244E+02  0.59728802814E+02  0.51100000000E-03 0. -1.
         22    1    1    0    0    0 -0.15455791243E+01  0.29538019312E+02  0.11130145969E+02  0.31603220548E+02  0.00000000000E+00 0. -1.
</event>
<event>
 5    1  0.1047411E-009  0.9118800E+02  0.7815553E-02  0.1125453E+00
         25   -1    0    0    0    0  0.00000000000E+00  0.00000000000E+00  0.99999998245E-14  0.12509000000E+03  0.12509000000E+03 0.  0.
        -11    1    3    3    0    0  0.35086250305E+02 -0.19081715796E+02 -0.18681616411E+02  0.44092625576E+02  0.51100000000E-03 0.  1.
         23    2    1    0    0    0 -0.15038373401E+02 -0.20916633686E+02 -0.16894829423E+02  0.94282638858E+02  0.89107364956E+02 0.  0.
         11    1    3    3    0    0 -0.50124623705E+02 -0.18349178901E+01  0.17867869877E+01  0.50190013282E+02  0.51100000000E-03 0. -1.
         22    1    1    0    0    0  0.15038373401E+02  0.20916633686E+02  0.16894829423E+02  0.30807361142E+02  0.00000000000E+00 0.  1.
</event>
<event>
 5    1  0.1047411E-009  0.9118800E+02  0.7815553E-02  0.1125453E+00
         25   -1    0    0    0    0  0.00000000000E+00  0.00000000000E+00  0.99999998245E-14  0.12509000000E+03  0.12509000000E+03 0.  0.
        -11    1    3    3    0    0 -0.33792455107E+02 -0.41232596424E+01 -0.14004933318E+02  0.36811267972E+02  0.51100000000E-03 0. -1.
         23    2    1    0    0    0  0.25496002993E+02 -0.10354894285E+02 -0.34002885942E+01  0.97362180634E+02  0.93330392965E+02 0.  0.
         11    1    3    3    0    0  0.59288458100E+02 -0.62316346421E+01  0.10604644724E+02  0.60550912662E+02  0.51100000000E-03 0.  1.
         22    1    1    0    0    0 -0.25496002993E+02  0.10354894285E+02  0.34002885942E+01  0.27727819366E+02  0.00000000000E+00 0.  1.
</event>
<event>
 5    1  0.1047411E-009  0.9118800E+02  0.7815553E-02  0.1125453E+00
         25   -1    0    0    0    0  0.00000000000E+00  0.00000000000E+00  0.99999998245E-14  0.12509000000E+03  0.12509000000E+03 0.  0.
        -11    1    3    3    0    0 -0.40288411886E+01  0.26079964065E+02 -0.30084769419E+02  0.40018613646E+02  0.51100000000E-03 0.  1.
         23    2    1    0    0    0 -0.22067814235E+02  0.39403034465E+00 -0.45149760105E+02  0.74834209064E+02  0.55448303163E+02 0.  0.
         11    1    3    3    0    0 -0.18038973046E+02 -0.25685933720E+02 -0.15064990687E+02  0.34815595418E+02  0.51100000000E-03 0. -1.
         22    1    1    0    0    0  0.22067814235E+02 -0.39403034465E+00  0.45149760105E+02  0.50255790936E+02  0.00000000000E+00 0. -1.
</event>
<event>
 5    1  0.1047411E-009  0.9118800E+02  0.7815553E-02  0.1125453E+00
         25   -1    0    0    0    0  0.00000000000E+00  0.00000000000E+00  0.99999998245E-14  0.12509000000E+03  0.12509000000E+03 0.  0.
        -11    1    3    3    0    0  0.21033247021E+02  0.16829154115E+02 -0.50479103988E+02  0.57216761951E+02  0.51100000000E-03 0.  1.
         23    2    1    0    0    0 -0.69633387424E+01  0.14082192290E+02 -0.26971693450E+02  0.93876726001E+02  0.88535705854E+02 0.  0.
         11    1    3    3    0    0 -0.27996585763E+02 -0.27469618252E+01  0.23507410538E+02  0.36659964050E+02  0.51100000000E-03 0. -1.
         22    1    1    0    0    0  0.69633387424E+01 -0.14082192290E+02  0.26971693450E+02  0.31213273999E+02  0.00000000000E+00 0.  1.
</event>
<event>
 5    1  0.1047411E-009  0.9118800E+02  0.7815553E-02  0.1125453E+00
         25   -1    0    0    0    0  0.00000000000E+00  0.00000000000E+00  0.99999998245E-14  0.12509000000E+03  0.12509000000E+03 0.  0.
        -11    1    3    3    0    0  0.24068245500E+02 -0.26444602347E+02 -0.16458599506E+01  0.35795338942E+02  0.51100000000E-03 0.  1.
         23    2    1    0    0    0 -0.19265294849E+02  0.80416161820E+01  0.20862752773E+02  0.95576043476E+02  0.90904930872E+02 0.  0.
         11    1    3    3    0    0 -0.43333540349E+02  0.34486218529E+02  0.22508612724E+02  0.59780704534E+02  0.51100000000E-03 0. -1.
         22    1    1    0    0    0  0.19265294849E+02 -0.80416161820E+01 -0.20862752773E+02  0.29513956524E+02  0.00000000000E+00 0. -1.
</event>
<event>
 5    1  0.1047411E-009  0.9118800E+02  0.7815553E-02  0.1125453E+00
         25   -1    0    0    0    0  0.00000000000E+00  0.00000000000E+00  0.99999998245E-14  0.12509000000E+03  0.12509000000E+03 0.  0.
        -11    1    3    3    0    0 -0.26659038445E+02 -0.48998246393E+01  0.28139241785E+02  0.39070827234E+02  0.51100000000E-03 0. -1.
         23    2    1    0    0    0  0.19577541560E+02  0.17289445003E+02 -0.25657132920E+01  0.98845230488E+02  0.95297385397E+02 0.  0.
         11    1    3    3    0    0  0.46236580005E+02  0.22189269642E+02 -0.30704955076E+02  0.59774403254E+02  0.51100000000E-03 0.  1.
         22    1    1    0    0    0 -0.19577541560E+02 -0.17289445003E+02  0.25657132920E+01  0.26244769512E+02  0.00000000000E+00 0.  1.
</event>
<event>
 5    1  0.1047411E-009  0.9118800E+02  0.7815553E-02  0.1125453E+00
         25   -1    0    0    0    0  0.00000000000E+00  0.00000000000E+00  0.99999998245E-14  0.12509000000E+03  0.12509000000E+03 0.  0.
        -11    1    3    3    0    0 -0.34056195133E+02 -0.21919908192E+01 -0.94069411744E+01  0.35399432103E+02  0.51100000000E-03 0.  1.
         23    2    1    0    0    0  0.22155238396E+02 -0.19489688074E+02  0.27466141805E+01  0.95454777391E+02  0.90737908879E+02 0.  0.
         11    1    3    3    0    0  0.56211433529E+02 -0.17297697255E+02  0.12153555355E+02  0.60055345288E+02  0.51100000000E-03 0. -1.
         22    1    1    0    0    0 -0.22155238396E+02  0.19489688074E+02 -0.27466141805E+01  0.29635222609E+02  0.00000000000E+00 0. -1.
</event>
<event>
 5    1  0.1047411E-009  0.9118800E+02  0.7815553E-02  0.1125453E+00
         25   -1    0    0    0    0  0.00000000000E+00  0.00000000000E+00  0.99999998245E-14  0.12509000000E+03  0.12509000000E+03 0.  0.
        -11    1    3    3    0    0 -0.34854781660E+02 -0.38977191645E+02  0.33297548434E+02  0.61990354129E+02  0.51100000000E-03 0.  1.
         23    2    1    0    0    0 -0.13712595151E+02 -0.16863505459E+02  0.20694383923E+02  0.95078825279E+02  0.90218137913E+02 0.  0.
         11    1    3    3    0    0  0.21142186509E+02  0.22113686186E+02 -0.12603164511E+02  0.33088471150E+02  0.51100000000E-03 0. -1.
         22    1    1    0    0    0  0.13712595151E+02  0.16863505459E+02 -0.20694383923E+02  0.30011174721E+02  0.00000000000E+00 0.  1.
</event>
<event>
 5    1  0.1047411E-009  0.9118800E+02  0.7815553E-02  0.1125453E+00
         25   -1    0    0    0    0  0.00000000000E+00  0.00000000000E+00  0.99999998245E-14  0.12509000000E+03  0.12509000000E+03 0.  0.
        -11    1    3    3    0    0 -0.54038638329E+02 -0.81909038927E+01 -0.24192401060E+02  0.59770708615E+02  0.51100000000E-03 0.  1.
         23    2    1    0    0    0 -0.25057110745E+02 -0.14752023059E+02 -0.39023216866E+01  0.95752155878E+02  0.91146948701E+02 0.  0.
         11    1    3    3    0    0  0.28981527585E+02 -0.65611191659E+01  0.20290079373E+02  0.35981447262E+02  0.51100000000E-03 0. -1.
         22    1    1    0    0    0  0.25057110745E+02  0.14752023059E+02  0.39023216866E+01  0.29337844122E+02  0.00000000000E+00 0.  1.
</event>
<event>
 5    1  0.1047411E-009  0.9118800E+02  0.7815553E-02  0.1125453E+00
         25   -1    0    0    0    0  0.00000000000E+00  0.00000000000E+00  0.99999998245E-14  0.12509000000E+03  0.12509000000E+03 0.  0.
        -11    1    3    3    0    0 -0.30689996107E+02  0.10702923234E+01 -0.17124584427E+02  0.35160670909E+02  0.51100000000E-03 0.  1.
         23    2    1    0    0    0  0.28263484821E+02  0.22756718039E+01 -0.11838441816E+02  0.94362944153E+02  0.89220027282E+02 0.  0.
         11    1    3    3    0    0  0.58953480928E+02  0.12053794805E+01  0.52861426108E+01  0.59202273244E+02  0.51100000000E-03 0. -1.
         22    1    1    0    0    0 -0.28263484821E+02 -0.22756718039E+01  0.11838441816E+02  0.30727055847E+02  0.00000000000E+00 0. -1.
</event>
<event>
 5    1  0.1047411E-009  0.9118800E+02  0.7815553E-02  0.1125453E+00
         25   -1    0    0    0    0  0.00000000000E+00  0.00000000000E+00  0.99999998245E-14  0.12509000000E+03  0.12509000000E+03 0.  0.
        -11    1    3    3    0    0  0.24271920001E+02  0.63186803525E+01  0.22819481712E+02  0.33908414410E+02  0.51100000000E-03 0.  1.
         23    2    1    0    0    0 -0.19347718426E+02 -0.10570830482E+02 -0.18491690979E+02  0.96314675491E+02  0.91915708202E+02 0.  0.
         11    1    3    3    0    0 -0.43619638427E+02 -0.16889510835E+02 -0.41311172690E+02  0.62406261081E+02  0.51100000000E-03 0. -1.
         22    1    1    0    0    0  0.19347718426E+02  0.10570830482E+02  0.18491690979E+02  0.28775324509E+02  0.00000000000E+00 0. -1.
</event>
<event>
 5    1  0.1047411E-009  0.9118800E+02  0.7815553E-02  0.1125453E+00
         25   -1    0    0    0    0  0.00000000000E+00  0.00000000000E+00  0.99999998245E-14  0.12509000000E+03  0.12509000000E+03 0.  0.
        -11    1    3    3    0    0 -0.12098234653E+02  0.37929618390E+02 -0.47506291109E+02  0.61982827688E+02  0.51100000000E-03 0. -1.
         23    2    1    0    0    0 -0.35818750557E+01  0.13343608232E+02 -0.25616570326E+02  0.95985182790E+02  0.91466195561E+02 0.  0.
         11    1    3    3    0    0  0.85163595972E+01 -0.24586010158E+02  0.21889720784E+02  0.34002355102E+02  0.51100000000E-03 0.  1.
         22    1    1    0    0    0  0.35818750557E+01 -0.13343608232E+02  0.25616570326E+02  0.29104817210E+02  0.00000000000E+00 0. -1.
</event>
<event>
 5    1  0.1047411E-009  0.9118800E+02  0.7815553E-02  0.1125453E+00
         25   -1    0    0    0    0  0.00000000000E+00  0.00000000000E+00  0.99999998245E-14  0.12509000000E+03  0.12509000000E+03 0.  0.
        -11    1    3    3    0    0 -0.53526813197E+02  0.22032677669E+02  0.14214906189E+02  0.59603877177E+02  0.51100000000E-03 0.  1.
         23    2    1    0    0    0 -0.40174944404E+02  0.70832384515E+01 -0.20343974376E+00  0.84294904552E+02  0.73765785571E+02 0.  0.
         11    1    3    3    0    0  0.13351868792E+02 -0.14949439217E+02 -0.14418345933E+02  0.24691027376E+02  0.51100000000E-03 0. -1.
         22    1    1    0    0    0  0.40174944404E+02 -0.70832384515E+01  0.20343974376E+00  0.40795095448E+02  0.00000000000E+00 0.  1.
</event>
<event>
 5    1  0.1047411E-009  0.9118800E+02  0.7815553E-02  0.1125453E+00
         25   -1    0    0    0    0  0.00000000000E+00  0.00000000000E+00  0.99999998245E-14  0.12509000000E+03  0.12509000000E+03 0.  0.
        -11    1    3    3    0    0  0.42508897086E+02 -0.35710609454E+02  0.87535300196E+01  0.56203898861E+02  0.51100000000E-03 0.  1.
         23    2    1    0    0    0  0.67583690640E+01 -0.23795499258E+02 -0.10136296844E+02  0.98357139116E+02  0.94654534831E+02 0.  0.
         11    1    3    3    0    0 -0.35750528022E+02  0.11915110196E+02 -0.18889826863E+02  0.42153240255E+02  0.51100000000E-03 0. -1.
         22    1    1    0    0    0 -0.67583690640E+01  0.23795499258E+02  0.10136296844E+02  0.26732860884E+02  0.00000000000E+00 0. -1.
</event>
<event>
 5    1  0.1047411E-009  0.9118800E+02  0.7815553E-02  0.1125453E+00
         25   -1    0    0    0    0  0.00000000000E+00  0.00000000000E+00  0.99999998245E-14  0.12509000000E+03  0.12509000000E+03 0.  0.
        -11    1    3    3    0    0  0.37047223024E+02 -0.25170211739E+02 -0.32129213633E+02  0.55120982046E+02  0.51100000000E-03 0. -1.
         23    2    1    0    0    0  0.10687376740E+02  0.40167025838E+01 -0.28225754061E+02  0.94642551609E+02  0.89611190493E+02 0.  0.
         11    1    3    3    0    0 -0.26359846284E+02  0.29186914323E+02  0.39034595728E+01  0.39521569563E+02  0.51100000000E-03 0.  1.
         22    1    1    0    0    0 -0.10687376740E+02 -0.40167025838E+01  0.28225754061E+02  0.30447448391E+02  0.00000000000E+00 0. -1.
</event>
<event>
 5    1  0.1047411E-009  0.9118800E+02  0.7815553E-02  0.1125453E+00
         25   -1    0    0    0    0  0.00000000000E+00  0.00000000000E+00  0.99999998245E-14  0.12509000000E+03  0.12509000000E+03 0.  0.
        -11    1    3    3    0    0 -0.20308243127E+02  0.43958140797E+02 -0.93463738522E+01  0.49316301419E+02  0.51100000000E-03 0.  1.
         23    2    1    0    0    0 -0.28109276256E+02  0.21125344313E+01  0.87569752675E+01  0.95572567368E+02  0.90900147437E+02 0.  0.
         11    1    3    3    0    0 -0.78010331288E+01 -0.41845606365E+02  0.18103349120E+02  0.46256265949E+02  0.51100000000E-03 0. -1.
         22    1    1    0    0    0  0.28109276256E+02 -0.21125344313E+01 -0.87569752675E+01  0.29517432632E+02  0.00000000000E+00 0.  1.
</event>
<event>
 5    1  0.1047411E-009  0.9118800E+02  0.7815553E-02  0.1125453E+00
         25   -1    0    0    0    0  0.00000000000E+00  0.00000000000E+00  0.99999998245E-14  0.12509000000E+03  0.12509000000E+03 0.  0.
        -11    1    3    3    0    0 -0.36553673993E+02  0.17613797336E+02  0.12329903824E+02  0.42408058993E+02  0.51100000000E-03 0.  1.
         23    2    1    0    0    0  0.87188434341E+01 -0.15387623433E+01  0.29354209430E+02  0.94429673328E+02  0.89313535219E+02 0.  0.
         11    1    3    3    0    0  0.45272517427E+02 -0.19152559679E+02  0.17024305606E+02  0.52021614335E+02  0.51100000000E-03 0. -1.
         22    1    1    0    0    0 -0.87188434341E+01  0.15387623433E+01 -0.29354209430E+02  0.30660326672E+02  0.00000000000E+00 0.  1.
</event>
<event>
 5    1  0.1047411E-009  0.9118800E+02  0.7815553E-02  0.1125453E+00
         25   -1    0    0    0    0  0.00000000000E+00  0.00000000000E+00  0.99999998245E-14  0.12509000000E+03  0.12509000000E+03 0.  0.
        -11    1    3    3    0    0  0.48815374845E+02  0.15949080192E+02 -0.34968719099E+02  0.62129906614E+02  0.51100000000E-03 0. -1.
         23    2    1    0    0    0  0.24159543210E+02  0.11687078615E+02 -0.13761618447E+02  0.94929537852E+02  0.90010908671E+02 0.  0.
         11    1    3    3    0    0 -0.24655831634E+02 -0.42620015775E+01  0.21207100652E+02  0.32799631238E+02  0.51100000000E-03 0.  1.
         22    1    1    0    0    0 -0.24159543210E+02 -0.11687078615E+02  0.13761618447E+02  0.30160462148E+02  0.00000000000E+00 0. -1.
</event>
<event>
 5    1  0.1047411E-009  0.9118800E+02  0.7815553E-02  0.1125453E+00
         25   -1    0    0    0    0  0.00000000000E+00  0.00000000000E+00  0.99999998245E-14  0.12509000000E+03  0.12509000000E+03 0.  0.
        -11    1    3    3    0    0 -0.51897218029E+02 -0.24183171373E+02  0.17113356910E+02  0.59757961828E+02  0.51100000000E-03 0.  1.
         23    2    1    0    0    0 -0.24644365963E+02 -0.33997995672E+00  0.15438170151E+02  0.96007402838E+02  0.91496578854E+02 0.  0.
         11    1    3    3    0    0  0.27252852066E+02  0.23843191416E+02 -0.16751867597E+01  0.36249441010E+02  0.51100000000E-03 0. -1.
         22    1    1    0    0    0  0.24644365963E+02  0.33997995672E+00 -0.15438170151E+02  0.29082597162E+02  0.00000000000E+00 0.  1.
</event>
<event>
 5    1  0.1047411E-009  0.9118800E+02  0.7815553E-02  0.1125453E+00
         25   -1    0    0    0    0  0.00000000000E+00  0.00000000000E+00  0.99999998245E-14  0.12509000000E+03  0.12509000000E+03 0.  0.
        -11    1    3    3    0    0  0.20884376335E+02 -0.19191906529E+02  0.27656138292E+02  0.39615002671E+02  0.51100000000E-03 0. -1.
         23    2    1    0    0    0 -0.86575230959E+01  0.29804820195E+01  0.44101873356E+02  0.80047673099E+02  0.66172643561E+02 0.  0.
         11    1    3    3    0    0 -0.29541899431E+02  0.22172388548E+02  0.16445735063E+02  0.40432670428E+02  0.51100000000E-03 0.  1.
         22    1    1    0    0    0  0.86575230959E+01 -0.29804820195E+01 -0.44101873356E+02  0.45042326901E+02  0.00000000000E+00 0.  1.
</event>
<event>
 5    1  0.1047411E-009  0.9118800E+02  0.7815553E-02  0.1125453E+00
         25   -1    0    0    0    0  0.00000000000E+00  0.00000000000E+00  0.99999998245E-14  0.12509000000E+03  0.12509000000E+03 0.  0.
        -11    1    3    3    0    0 -0.32088555897E+02  0.37066106398E+02  0.38518538210E+02  0.62347810300E+02  0.51100000000E-03 0.  1.
         23    2    1    0    0    0 -0.15800735729E+02  0.13507213083E+02  0.18163386961E+02  0.97485350379E+02  0.93495330673E+02 0.  0.
         11    1    3    3    0    0  0.16287820169E+02 -0.23558893316E+02 -0.20355151250E+02  0.35137540078E+02  0.51100000000E-03 0. -1.
         22    1    1    0    0    0  0.15800735729E+02 -0.13507213083E+02 -0.18163386961E+02  0.27604649621E+02  0.00000000000E+00 0.  1.
</event>
<event>
 5    1  0.1047411E-009  0.9118800E+02  0.7815553E-02  0.1125453E+00
         25   -1    0    0    0    0  0.00000000000E+00  0.00000000000E+00  0.99999998245E-14  0.12509000000E+03  0.12509000000E+03 0.  0.
        -11    1    3    3    0    0  0.37413041392E+02  0.17942203470E+02 -0.38408980261E+01  0.41670263131E+02  0.51100000000E-03 0.  1.
         23    2    1    0    0    0  0.96203297214E+01 -0.27937145624E+02  0.97343027255E+00  0.95526806396E+02  0.90837152775E+02 0.  0.
         11    1    3    3    0    0 -0.27792711670E+02 -0.45879349094E+02  0.48143282987E+01  0.53856543265E+02  0.51100000000E-03 0. -1.
         22    1    1    0    0    0 -0.96203297214E+01  0.27937145624E+02 -0.97343027255E+00  0.29563193604E+02  0.00000000000E+00 0. -1.
</event>
<event>
 5    1  0.1047411E-009  0.9118800E+02  0.7815553E-02  0.1125453E+00
         25   -1    0    0    0    0  0.00000000000E+00  0.00000000000E+00  0.99999998245E-14  0.12509000000E+03  0.12509000000E+03 0.  0.
        -11    1    3    3    0    0  0.51504686912E+01 -0.18522172376E+02  0.29669454391E+02  0.35353567308E+02  0.51100000000E-03 0. -1.
         23    2    1    0    0    0  0.11519131681E+02  0.12783817368E+02 -0.22643298082E+02  0.96649969599E+02  0.92370889863E+02 0.  0.
         11    1    3    3    0    0  0.63686629901E+01  0.31305989744E+02 -0.52312752474E+02  0.61296402291E+02  0.51100000000E-03 0.  1.
         22    1    1    0    0    0 -0.11519131681E+02 -0.12783817368E+02  0.22643298082E+02  0.28440030401E+02  0.00000000000E+00 0.  1.
</event>
<event>
 5    1  0.1047411E-009  0.9118800E+02  0.7815553E-02  0.1125453E+00
         25   -1    0    0    0    0  0.00000000000E+00  0.00000000000E+00  0.99999998245E-14  0.12509000000E+03  0.12509000000E+03 0.  0.
        -11    1    3    3    0    0 -0.23179930732E+02 -0.64961756174E+01 -0.27828901706E+02  0.36796158180E+02  0.51100000000E-03 0.  1.
         23    2    1    0    0    0  0.27960990923E+02  0.10494394958E+02 -0.86442187789E+01  0.93998653017E+02  0.88707806374E+02 0.  0.
         11    1    3    3    0    0  0.51140921656E+02  0.16990570575E+02  0.19184682927E+02  0.57202494837E+02  0.51100000000E-03 0. -1.
         22    1    1    0    0    0 -0.27960990923E+02 -0.10494394958E+02  0.86442187789E+01  0.31091346983E+02  0.00000000000E+00 0. -1.
</event>
<event>
 5    1  0.1047411E-009  0.9118800E+02  0.7815553E-02  0.1125453E+00
         25   -1    0    0    0    0  0.00000000000E+00  0.00000000000E+00  0.99999998245E-14  0.12509000000E+03  0.12509000000E+03 0.  0.
        -11    1    3    3    0    0  0.44711251249E+02  0.18965646658E+02 -0.30950889089E+01  0.48665915352E+02  0.51100000000E-03 0.  1.
         23    2    1    0    0    0  0.52949468939E+01  0.18300955717E+02 -0.24916646605E+02  0.93724402273E+02  0.88320229056E+02 0.  0.
         11    1    3    3    0    0 -0.39416304355E+02 -0.66469094163E+00 -0.21821557696E+02  0.45058486921E+02  0.51100000000E-03 0. -1.
         22    1    1    0    0    0 -0.52949468939E+01 -0.18300955717E+02  0.24916646605E+02  0.31365597727E+02  0.00000000000E+00 0.  1.
</event>
<event>
 5    1  0.1047411E-009  0.9118800E+02  0.7815553E-02  0.1125453E+00
         25   -1    0    0    0    0  0.00000000000E+00  0.00000000000E+00  0.99999998245E-14  0.12509000000E+03  0.12509000000E+03 0.  0.
        -11    1    3    3    0    0  0.24942356621E+02  0.26128801500E+02  0.35908517346E+01  0.36300545975E+02  0.51100000000E-03 0.  1.
         23    2    1    0    0    0  0.34963851443E+01 -0.23081913808E+02 -0.19437353392E+02  0.94712209412E+02  0.89708374473E+02 0.  0.
         11    1    3    3    0    0 -0.21445971477E+02 -0.49210715309E+02 -0.23028205127E+02  0.58411663436E+02  0.51100000000E-03 0. -1.
         22    1    1    0    0    0 -0.34963851443E+01  0.23081913808E+02  0.19437353392E+02  0.30377790588E+02  0.00000000000E+00 0. -1.
</event>
<event>
 5    1  0.1047411E-009  0.9118800E+02  0.7815553E-02  0.1125453E+00
         25   -1    0    0    0    0  0.00000000000E+00  0.00000000000E+00  0.99999998245E-14  0.12509000000E+03  0.12509000000E+03 0.  0.
        -11    1    3    3    0    0 -0.15248474753E+01 -0.36790614124E+02  0.13845971127E+02  0.39339361512E+02  0.51100000000E-03 0.  1.
         23    2    1    0    0    0 -0.27553409055E+02  0.70339453007E+01 -0.90929359500E+01  0.95234544532E+02  0.90433789321E+02 0.  0.
         11    1    3    3    0    0 -0.26028561579E+02  0.43824559425E+02 -0.22938907077E+02  0.55895183020E+02  0.51100000000E-03 0. -1.
         22    1    1    0    0    0  0.27553409055E+02 -0.70339453007E+01  0.90929359500E+01  0.29855455468E+02  0.00000000000E+00 0. -1.
</event>
<event>
 5    1  0.1047411E-009  0.9118800E+02  0.7815553E-02  0.1125453E+00
         25   -1    0    0    0    0  0.00000000000E+00  0.00000000000E+00  0.99999998245E-14  0.12509000000E+03  0.12509000000E+03 0.  0.
        -11    1    3    3    0    0 -0.15457097956E+02  0.36043403220E+02 -0.60722364583E+01  0.39685272442E+02  0.51100000000E-03 0. -1.
         23    2    1    0    0    0 -0.21614247108E+02 -0.16546613282E+02  0.11592853651E+02  0.95503510771E+02  0.90805067175E+02 0.  0.
         11    1    3    3    0    0 -0.61571491517E+01 -0.52590016502E+02  0.17665090110E+02  0.55818238329E+02  0.51100000000E-03 0.  1.
         22    1    1    0    0    0  0.21614247108E+02  0.16546613282E+02 -0.11592853651E+02  0.29586489229E+02  0.00000000000E+00 0. -1.
</event>
<event>
 5    1  0.1047411E-009  0.9118800E+02  0.7815553E-02  0.1125453E+00
         25   -1    0    0    0    0  0.00000000000E+00  0.00000000000E+00  0.99999998245E-14  0.12509000000E+03  0.12509000000E+03 0.  0.
        -11    1    3    3    0    0 -0.42899516289E+01  0.12751413868E+02  0.47751207372E+02  0.49610281660E+02  0.51100000000E-03 0.  1.
         23    2    1    0    0    0 -0.94684657014E+01 -0.21668712161E+02  0.19148659860E+02  0.94662116342E+02  0.89638497123E+02 0.  0.
         11    1    3    3    0    0 -0.51785140725E+01 -0.34420126029E+02 -0.28602547512E+02  0.45051834682E+02  0.51100000000E-03 0. -1.
         22    1    1    0    0    0  0.94684657014E+01  0.21668712161E+02 -0.19148659860E+02  0.30427883658E+02  0.00000000000E+00 0.  1.
</event>
<event>
 5    1  0.1047411E-009  0.9118800E+02  0.7815553E-02  0.1125453E+00
         25   -1    0    0    0    0  0.00000000000E+00  0.00000000000E+00  0.99999998245E-14  0.12509000000E+03  0.12509000000E+03 0.  0.
        -11    1    3    3    0    0 -0.29112258428E+02 -0.11355460802E+02  0.35405372841E+02  0.47222987063E+02  0.51100000000E-03 0.  1.
         23    2    1    0    0    0 -0.10556094685E+02  0.25611698374E+02  0.10758785718E+02  0.95372299908E+02  0.90624135257E+02 0.  0.
         11    1    3    3    0    0  0.18556163743E+02  0.36967159176E+02 -0.24646587123E+02  0.48149312846E+02  0.51100000000E-03 0. -1.
         22    1    1    0    0    0  0.10556094685E+02 -0.25611698374E+02 -0.10758785718E+02  0.29717700092E+02  0.00000000000E+00 0.  1.
</event>
<event>
 5    1  0.1047411E-009  0.9118800E+02  0.7815553E-02  0.1125453E+00
         25   -1    0    0    0    0  0.00000000000E+00  0.00000000000E+00  0.99999998245E-14  0.12509000000E+03  0.12509000000E+03 0.  0.
        -11    1    3    3    0    0 -0.23078632488E+02 -0.34783244241E+02 -0.40343439141E+02  0.58052480046E+02  0.51100000000E-03 0.  1.
         23    2    1    0    0    0 -0.13597799491E+02 -0.10321247235E+01 -0.25600873554E+02  0.96083618647E+02  0.91600718410E+02 0.  0.
         11    1    3    3    0    0  0.94808329978E+01  0.33751119517E+02  0.14742565587E+02  0.38031138602E+02  0.51100000000E-03 0. -1.
         22    1    1    0    0    0  0.13597799491E+02  0.10321247235E+01  0.25600873554E+02  0.29006381353E+02  0.00000000000E+00 0.  1.
</event>
<event>
 5    1  0.1047411E-009  0.9118800E+02  0.7815553E-02  0.1125453E+00
         25   -1    0    0    0    0  0.00000000000E+00  0.00000000000E+00  0.99999998245E-14  0.12509000000E+03  0.12509000000E+03 0.  0.
        -11    1    3    3    0    0 -0.39693626840E+01  0.35420747197E+02 -0.21810590843E+02  0.41786206400E+02  0.51100000000E-03 0.  1.
         23    2    1    0    0    0  0.28669496720E+00 -0.18998220705E+02 -0.21533830921E+02  0.96372053380E+02  0.91993761824E+02 0.  0.
         11    1    3    3    0    0  0.42560576512E+01 -0.54418967902E+02  0.27675992231E+00  0.54585846980E+02  0.51100000000E-03 0. -1.
         22    1    1    0    0    0 -0.28669496720E+00  0.18998220705E+02  0.21533830921E+02  0.28717946620E+02  0.00000000000E+00 0. -1.
</event>
<event>
 5    1  0.1047411E-009  0.9118800E+02  0.7815553E-02  0.1125453E+00
         25   -1    0    0    0    0  0.00000000000E+00  0.00000000000E+00  0.99999998245E-14  0.12509000000E+03  0.12509000000E+03 0.  0.
        -11    1    3    3    0    0 -0.30027386470E+02  0.28291873080E+02  0.63218974766E+00  0.41261043185E+02  0.51100000000E-03 0.  1.
         23    2    1    0    0    0  0.17685743368E+01 -0.42474563384E+01 -0.29112156229E+02  0.95616513935E+02  0.90960603319E+02 0.  0.
         11    1    3    3    0    0  0.31795960806E+02 -0.32539329418E+02 -0.29744345977E+02  0.54355470750E+02  0.51100000000E-03 0. -1.
         22    1    1    0    0    0 -0.17685743368E+01  0.42474563384E+01  0.29112156229E+02  0.29473486065E+02  0.00000000000E+00 0. -1.
</event>
<event>
 5    1  0.1047411E-009  0.9118800E+02  0.7815553E-02  0.1125453E+00
         25   -1    0    0    0    0  0.00000000000E+00  0.00000000000E+00  0.99999998245E-14  0.12509000000E+03  0.12509000000E+03 0.  0.
        -11    1    3    3    0    0  0.34366771220E+02  0.31432542087E+02  0.27262644579E+02  0.53966021308E+02  0.51100000000E-03 0.  1.
         23    2    1    0    0    0  0.88592413496E+01 -0.17261162791E+01  0.27859554584E+02  0.95804843071E+02  0.91219227905E+02 0.  0.
         11    1    3    3    0    0 -0.25507529870E+02 -0.33158658366E+02  0.59691000535E+00  0.41838821763E+02  0.51100000000E-03 0. -1.
         22    1    1    0    0    0 -0.88592413496E+01  0.17261162791E+01 -0.27859554584E+02  0.29285156929E+02  0.00000000000E+00 0.  1.
</event>
<event>
 5    1  0.1047411E-009  0.9118800E+02  0.7815553E-02  0.1125453E+00
         25   -1    0    0    0    0  0.00000000000E+00  0.00000000000E+00  0.99999998245E-14  0.12509000000E+03  0.12509000000E+03 0.  0.
        -11    1    3    3    0    0  0.31412887354E+02 -0.25547129363E+01  0.45717612016E+02  0.55528335999E+02  0.51100000000E-03 0.  1.
         23    2    1    0    0    0 -0.54625359754E+01 -0.25013878849E+01  0.28024403472E+02  0.96428816658E+02  0.92070914253E+02 0.  0.
         11    1    3    3    0    0 -0.36875423329E+02  0.53325051428E-01 -0.17693208544E+02  0.40900480659E+02  0.51100000000E-03 0. -1.
         22    1    1    0    0    0  0.54625359754E+01  0.25013878849E+01 -0.28024403472E+02  0.28661183342E+02  0.00000000000E+00 0.  1.
</event>
<event>
 5    1  0.1047411E-009  0.9118800E+02  0.7815553E-02  0.1125453E+00
         25   -1    0    0    0    0  0.00000000000E+00  0.00000000000E+00  0.99999998245E-14  0.12509000000E+03  0.12509000000E+03 0.  0.
        -11    1    3    3    0    0 -0.34901534160E+02  0.44635051113E+02  0.18559637683E+01  0.56690823564E+02  0.51100000000E-03 0.  1.
         23    2    1    0    0    0 -0.27501173565E+02  0.70606271155E+01  0.82622560390E+01  0.95519205665E+02  0.90826685359E+02 0.  0.
         11    1    3    3    0    0  0.74003605947E+01 -0.37574423998E+02  0.64062922707E+01  0.38828382101E+02  0.51100000000E-03 0. -1.
         22    1    1    0    0    0  0.27501173565E+02 -0.70606271155E+01 -0.82622560390E+01  0.29570794335E+02  0.00000000000E+00 0.  1.
</event>
<event>
 5    1  0.1047411E-009  0.9118800E+02  0.7815553E-02  0.1125453E+00
         25   -1    0    0    0    0  0.00000000000E+00  0.00000000000E+00  0.99999998245E-14  0.12509000000E+03  0.12509000000E+03 0.  0.
        -11    1    3    3    0    0 -0.92056054373E+01 -0.29578612299E+02 -0.50447102598E+02  0.59199219909E+02  0.51100000000E-03 0.  1.
         23    2    1    0    0    0 -0.90155818725E+01 -0.23802860968E+02 -0.14120671724E+02  0.95982436091E+02  0.91462439073E+02 0.  0.
         11    1    3    3    0    0  0.19002356479E+00  0.57757513306E+01  0.36326430874E+02  0.36783216182E+02  0.51100000000E-03 0. -1.
         22    1    1    0    0    0  0.90155818725E+01  0.23802860968E+02  0.14120671724E+02  0.29107563909E+02  0.00000000000E+00 0.  1.
</event>
<event>
 5    1  0.1047411E-009  0.9118800E+02  0.7815553E-02  0.1125453E+00
         25   -1    0    0    0    0  0.00000000000E+00  0.00000000000E+00  0.99999998245E-14  0.12509000000E+03  0.12509000000E+03 0.  0.
        -11    1    3    3    0    0  0.11822096772E+02  0.23218484590E+02  0.20464134192E+02  0.33130662342E+02  0.51100000000E-03 0. -1.
         23    2    1    0    0    0 -0.89977170418E+01 -0.25637342419E+02 -0.12014318424E+02  0.95381817870E+02  0.90637272105E+02 0.  0.
         11    1    3    3    0    0 -0.20819813814E+02 -0.48855827009E+02 -0.32478452616E+02  0.62251155528E+02  0.51100000000E-03 0.  1.
         22    1    1    0    0    0  0.89977170418E+01  0.25637342419E+02  0.12014318424E+02  0.29708182130E+02  0.00000000000E+00 0.  1.
</event>
<event>
 5    1  0.1047411E-009  0.9118800E+02  0.7815553E-02  0.1125453E+00
         25   -1    0    0    0    0  0.00000000000E+00  0.00000000000E+00  0.99999998245E-14  0.12509000000E+03  0.12509000000E+03 0.  0.
        -11    1    3    3    0    0 -0.24047379224E+02 -0.12795302907E+02  0.48205966371E+02  0.55369769894E+02  0.51100000000E-03 0.  1.
         23    2    1    0    0    0  0.49934239780E+01 -0.19823788583E+02  0.21076226149E+02  0.95728048677E+02  0.91113857991E+02 0.  0.
         11    1    3    3    0    0  0.29040803202E+02 -0.70284856763E+01 -0.27129740222E+02  0.40358278783E+02  0.51100000000E-03 0. -1.
         22    1    1    0    0    0 -0.49934239780E+01  0.19823788583E+02 -0.21076226149E+02  0.29361951323E+02  0.00000000000E+00 0.  1.
</event>
<event>
 5    1  0.1047411E-009  0.9118800E+02  0.7815553E-02  0.1125453E+00
         25   -1    0    0    0    0  0.00000000000E+00  0.00000000000E+00  0.99999998245E-14  0.12509000000E+03  0.12509000000E+03 0.  0.
        -11    1    3    3    0    0 -0.33546536435E+02  0.10760318032E+02 -0.19716391574E+02  0.40371904190E+02  0.51100000000E-03 0.  1.
         23    2    1    0    0    0  0.87563029527E+01  0.26275861408E+02  0.11409221092E+02  0.95135633706E+02  0.90296870049E+02 0.  0.
         11    1    3    3    0    0  0.42302839388E+02  0.15515543376E+02  0.31125612666E+02  0.54763729517E+02  0.51100000000E-03 0. -1.
         22    1    1    0    0    0 -0.87563029527E+01 -0.26275861408E+02 -0.11409221092E+02  0.29954366294E+02  0.00000000000E+00 0. -1.
</event>
<event>
 5    1  0.1047411E-009  0.9118800E+02  0.7815553E-02  0.1125453E+00
         25   -1    0    0    0    0  0.00000000000E+00  0.00000000000E+00  0.99999998245E-14  0.12509000000E+03  0.12509000000E+03 0.  0.
        -11    1    3    3    0    0 -0.17875587712E+02 -0.44585961003E+02 -0.71883001139E+01  0.48570734125E+02  0.51100000000E-03 0.  1.
         23    2    1    0    0    0  0.21833957647E+02 -0.17067825206E+02 -0.27576487338E+00  0.97375231193E+02  0.93347882889E+02 0.  0.
         11    1    3    3    0    0  0.39709545359E+02  0.27518135798E+02  0.69125352406E+01  0.48804497068E+02  0.51100000000E-03 0. -1.
         22    1    1    0    0    0 -0.21833957647E+02  0.17067825206E+02  0.27576487338E+00  0.27714768807E+02  0.00000000000E+00 0.  1.
</event>
<event>
 5    1  0.1047411E-009  0.9118800E+02  0.7815553E-02  0.1125453E+00
         25   -1    0    0    0    0  0.00000000000E+00  0.00000000000E+00  0.99999998245E-14  0.12509000000E+03  0.12509000000E+03 0.  0.
        -11    1    3    3    0    0 -0.27789727304E+01 -0.63918061693E+01 -0.50868805521E+02  0.51344067339E+02  0.51100000000E-03 0.  1.
         23    2    1    0    0    0  0.14040031725E+02  0.18282478412E+02 -0.17325238182E+02  0.96253644720E+02  0.91832612596E+02 0.  0.
         11    1    3    3    0    0  0.16819004456E+02  0.24674284581E+02  0.33543567339E+02  0.44909577381E+02  0.51100000000E-03 0. -1.
         22    1    1    0    0    0 -0.14040031725E+02 -0.18282478412E+02  0.17325238182E+02  0.28836355280E+02  0.00000000000E+00 0. -1.
</event>
<event>
 5    1  0.1047411E-009  0.9118800E+02  0.7815553E-02  0.1125453E+00
         25   -1    0    0    0    0  0.00000000000E+00  0.00000000000E+00  0.99999998245E-14  0.12509000000E+03  0.12509000000E+03 0.  0.
        -11    1    3    3    0    0 -0.30734247872E+02 -0.35541579868E+02  0.38699953486E+02  0.60872689212E+02  0.51100000000E-03 0. -1.
         23    2    1    0    0    0 -0.42230522070E+01 -0.18579284646E+02  0.19929124113E+02  0.97518384599E+02  0.93539517633E+02 0.  0.
         11    1    3    3    0    0  0.26511195665E+02  0.16962295222E+02 -0.18770829373E+02  0.36645695387E+02  0.51100000000E-03 0.  1.
         22    1    1    0    0    0  0.42230522070E+01  0.18579284646E+02 -0.19929124113E+02  0.27571615401E+02  0.00000000000E+00 0. -1.
</event>
<event>
 5    1  0.1047411E-009  0.9118800E+02  0.7815553E-02  0.1125453E+00
         25   -1    0    0    0    0  0.00000000000E+00  0.00000000000E+00  0.99999998245E-14  0.12509000000E+03  0.12509000000E+03 0.  0.
        -11    1    3    3    0    0 -0.12853334090E+02 -0.51686782959E+02  0.10489819431E+02  0.54284141716E+02  0.51100000000E-03 0.  1.
         23    2    1    0    0    0 -0.16165420774E+02 -0.29643678154E+02 -0.14997888305E+02  0.88144024077E+02  0.80027269375E+02 0.  0.
         11    1    3    3    0    0 -0.33120866839E+01  0.22043104805E+02 -0.25487707735E+02  0.33859882361E+02  0.51100000000E-03 0. -1.
         22    1    1    0    0    0  0.16165420774E+02  0.29643678154E+02  0.14997888305E+02  0.36945975923E+02  0.00000000000E+00 0.  1.
</event>
<event>
 5    1  0.1047411E-009  0.9118800E+02  0.7815553E-02  0.1125453E+00
         25   -1    0    0    0    0  0.00000000000E+00  0.00000000000E+00  0.99999998245E-14  0.12509000000E+03  0.12509000000E+03 0.  0.
        -11    1    3    3    0    0  0.31619183072E+02 -0.27180439003E+02  0.46414881249E+02  0.62393030093E+02  0.51100000000E-03 0. -1.
         23    2    1    0    0    0  0.12412430140E+02 -0.12869940649E+02  0.23688744564E+02  0.95410707332E+02  0.90677134164E+02 0.  0.
         11    1    3    3    0    0 -0.19206752931E+02  0.14310498354E+02 -0.22726136686E+02  0.33017677239E+02  0.51100000000E-03 0.  1.
         22    1    1    0    0    0 -0.12412430140E+02  0.12869940649E+02 -0.23688744564E+02  0.29679292668E+02  0.00000000000E+00 0. -1.
</event>
<event>
 5    1  0.1047411E-009  0.9118800E+02  0.7815553E-02  0.1125453E+00
         25   -1    0    0    0    0  0.00000000000E+00  0.00000000000E+00  0.99999998245E-14  0.12509000000E+03  0.12509000000E+03 0.  0.
        -11    1    3    3    0    0 -0.25275573823E+02  0.14871780308E+02 -0.22214433384E+02  0.36790019468E+02  0.51100000000E-03 0.  1.
         23    2    1    0    0    0 -0.45033886112E+01  0.18628373667E+02  0.27941753442E+02  0.91207284645E+02  0.84680165165E+02 0.  0.
         11    1    3    3    0    0  0.20772185211E+02  0.37565933591E+01  0.50156186826E+02  0.54417265177E+02  0.51100000000E-03 0. -1.
         22    1    1    0    0    0  0.45033886112E+01 -0.18628373667E+02 -0.27941753442E+02  0.33882715355E+02  0.00000000000E+00 0. -1.
</event>
<event>
 5    1  0.1047411E-009  0.9118800E+02  0.7815553E-02  0.1125453E+00
         25   -1    0    0    0    0  0.00000000000E+00  0.00000000000E+00  0.99999998245E-14  0.12509000000E+03  0.12509000000E+03 0.  0.
        -11    1    3    3    0    0  0.16478104472E+02 -0.25439038507E+02 -0.47875316333E+02  0.56663202534E+02  0.51100000000E-03 0.  1.
         23    2    1    0    0    0  0.11373868815E+02  0.66575953732E+01 -0.26299934508E+02  0.95672742767E+02  0.91037896974E+02 0.  0.
         11    1    3    3    0    0 -0.51042356572E+01  0.32096633880E+02  0.21575381824E+02  0.39009540233E+02  0.51100000000E-03 0. -1.
         22    1    1    0    0    0 -0.11373868815E+02 -0.66575953732E+01  0.26299934508E+02  0.29417257233E+02  0.00000000000E+00 0. -1.
</event>
<event>
 5    1  0.1047411E-009  0.9118800E+02  0.7815553E-02  0.1125453E+00
         25   -1    0    0    0    0  0.00000000000E+00  0.00000000000E+00  0.99999998245E-14  0.12509000000E+03  0.12509000000E+03 0.  0.
        -11    1    3    3    0    0  0.33832203974E+02  0.46009760289E+02  0.17358366377E+02  0.59689437517E+02  0.51100000000E-03 0.  1.
         23    2    1    0    0    0  0.19128907517E+02  0.20267708785E+02 -0.49420999316E+01  0.96785945981E+02  0.92554847877E+02 0.  0.
         11    1    3    3    0    0 -0.14703296457E+02 -0.25742051504E+02 -0.22300466308E+02  0.37096508463E+02  0.51100000000E-03 0. -1.
         22    1    1    0    0    0 -0.19128907517E+02 -0.20267708785E+02  0.49420999316E+01  0.28304054019E+02  0.00000000000E+00 0.  1.
</event>
<event>
 5    1  0.1047411E-009  0.9118800E+02  0.7815553E-02  0.1125453E+00
         25   -1    0    0    0    0  0.00000000000E+00  0.00000000000E+00  0.99999998245E-14  0.12509000000E+03  0.12509000000E+03 0.  0.
        -11    1    3    3    0    0  0.32819258723E+02 -0.47112444596E+02 -0.14420691498E+02  0.59200021305E+02  0.51100000000E-03 0.  1.
         23    2    1    0    0    0  0.11655136228E+02 -0.18647207225E+02  0.85908376541E+01  0.10148146279E+03  0.98697133999E+02 0.  0.
         11    1    3    3    0    0 -0.21164122494E+02  0.28465237371E+02  0.23011529152E+02  0.42281441481E+02  0.51100000000E-03 0. -1.
         22    1    1    0    0    0 -0.11655136228E+02  0.18647207225E+02 -0.85908376541E+01  0.23608537214E+02  0.00000000000E+00 0.  1.
</event>
<event>
 5    1  0.1047411E-009  0.9118800E+02  0.7815553E-02  0.1125453E+00
         25   -1    0    0    0    0  0.00000000000E+00  0.00000000000E+00  0.99999998245E-14  0.12509000000E+03  0.12509000000E+03 0.  0.
        -11    1    3    3    0    0 -0.83112781304E+01  0.23494613163E+02 -0.42335620994E+02  0.49126153900E+02  0.51100000000E-03 0.  1.
         23    2    1    0    0    0  0.21440974190E+02 -0.38907780666E+01 -0.20912588593E+02  0.94887518482E+02  0.89952494540E+02 0.  0.
         11    1    3    3    0    0  0.29752252320E+02 -0.27385391230E+02  0.21423032400E+02  0.45761364582E+02  0.51100000000E-03 0. -1.
         22    1    1    0    0    0 -0.21440974190E+02  0.38907780666E+01  0.20912588593E+02  0.30202481518E+02  0.00000000000E+00 0.  1.
</event>
<event>
 5    1  0.1047411E-009  0.9118800E+02  0.7815553E-02  0.1125453E+00
         25   -1    0    0    0    0  0.00000000000E+00  0.00000000000E+00  0.99999998245E-14  0.12509000000E+03  0.12509000000E+03 0.  0.
        -11    1    3    3    0    0 -0.35152989080E+02 -0.76423516103E+00 -0.87288336893E+01  0.36228569313E+02  0.51100000000E-03 0.  1.
         23    2    1    0    0    0  0.24262589042E+02 -0.12949654888E+01 -0.15862620526E+02  0.96073230839E+02  0.91586531713E+02 0.  0.
         11    1    3    3    0    0  0.59415578122E+02 -0.53073032780E+00 -0.71337868362E+01  0.59844661526E+02  0.51100000000E-03 0. -1.
         22    1    1    0    0    0 -0.24262589042E+02  0.12949654888E+01  0.15862620526E+02  0.29016769161E+02  0.00000000000E+00 0. -1.
</event>
<event>
 5    1  0.1047411E-009  0.9118800E+02  0.7815553E-02  0.1125453E+00
         25   -1    0    0    0    0  0.00000000000E+00  0.00000000000E+00  0.99999998245E-14  0.12509000000E+03  0.12509000000E+03 0.  0.
        -11    1    3    3    0    0 -0.44948678350E+02  0.70494173251E+00 -0.22382641351E+02  0.50218156700E+02  0.51100000000E-03 0. -1.
         23    2    1    0    0    0 -0.15170317547E+02 -0.91103161418E+01  0.16995732002E+02  0.10055448898E+03  0.97515198576E+02 0.  0.
         11    1    3    3    0    0  0.29778360803E+02 -0.98152578743E+01  0.39378373353E+02  0.50336332281E+02  0.51100000000E-03 0.  1.
         22    1    1    0    0    0  0.15170317547E+02  0.91103161418E+01 -0.16995732002E+02  0.24535511019E+02  0.00000000000E+00 0. -1.
</event>
<event>
 5    1  0.1047411E-009  0.9118800E+02  0.7815553E-02  0.1125453E+00
         25   -1    0    0    0    0  0.00000000000E+00  0.00000000000E+00  0.99999998245E-14  0.12509000000E+03  0.12509000000E+03 0.  0.
        -11    1    3    3    0    0  0.29642461308E+02 -0.46921632033E+02  0.28264830882E+02  0.62283350344E+02  0.51100000000E-03 0.  1.
         23    2    1    0    0    0  0.14531734435E+02 -0.20920547534E+02  0.17323946543E+02  0.94284809875E+02  0.89110412604E+02 0.  0.
         11    1    3    3    0    0 -0.15110726873E+02  0.26001084499E+02 -0.10940884338E+02  0.32001459531E+02  0.51100000000E-03 0. -1.
         22    1    1    0    0    0 -0.14531734435E+02  0.20920547534E+02 -0.17323946543E+02  0.30805190125E+02  0.00000000000E+00 0.  1.
</event>
<event>
 5    1  0.1047411E-009  0.9118800E+02  0.7815553E-02  0.1125453E+00
         25   -1    0    0    0    0  0.00000000000E+00  0.00000000000E+00  0.99999998245E-14  0.12509000000E+03  0.12509000000E+03 0.  0.
        -11    1    3    3    0    0 -0.35512283716E+01  0.37034104136E+01  0.49123867829E+02  0.49391101044E+02  0.51100000000E-03 0. -1.
         23    2    1    0    0    0  0.21086364304E+02 -0.15623834812E+02  0.23756840567E+02  0.89690473908E+02  0.82409069054E+02 0.  0.
         11    1    3    3    0    0  0.24637592676E+02 -0.19327245226E+02 -0.25367027262E+02  0.40299372864E+02  0.51100000000E-03 0.  1.
         22    1    1    0    0    0 -0.21086364304E+02  0.15623834812E+02 -0.23756840567E+02  0.35399526092E+02  0.00000000000E+00 0. -1.
</event>
<event>
 5    1  0.1047411E-009  0.9118800E+02  0.7815553E-02  0.1125453E+00
         25   -1    0    0    0    0  0.00000000000E+00  0.00000000000E+00  0.99999998245E-14  0.12509000000E+03  0.12509000000E+03 0.  0.
        -11    1    3    3    0    0  0.36846638852E+02 -0.10937679896E+02  0.68602004069E+01  0.39043181045E+02  0.51100000000E-03 0.  1.
         23    2    1    0    0    0  0.14890368622E+00  0.23264690336E+02 -0.18604044288E+02  0.95301101856E+02  0.90525806057E+02 0.  0.
         11    1    3    3    0    0 -0.36697735166E+02  0.34202370233E+02 -0.25464244695E+02  0.56257920811E+02  0.51100000000E-03 0. -1.
         22    1    1    0    0    0 -0.14890368622E+00 -0.23264690336E+02  0.18604044288E+02  0.29788898144E+02  0.00000000000E+00 0.  1.
</event>
<event>
 5    1  0.1047411E-009  0.9118800E+02  0.7815553E-02  0.1125453E+00
         25   -1    0    0    0    0  0.00000000000E+00  0.00000000000E+00  0.99999998245E-14  0.12509000000E+03  0.12509000000E+03 0.  0.
        -11    1    3    3    0    0 -0.70030667076E+00  0.51078994986E+02  0.31051103874E+02  0.59780642438E+02  0.51100000000E-03 0.  1.
         23    2    1    0    0    0  0.24747147855E+01  0.33408605999E+02  0.52987994780E+01  0.91173389851E+02  0.84630080781E+02 0.  0.
         11    1    3    3    0    0  0.31750214563E+01 -0.17670388987E+02 -0.25752304396E+02  0.31392747413E+02  0.51100000000E-03 0. -1.
         22    1    1    0    0    0 -0.24747147855E+01 -0.33408605999E+02 -0.52987994780E+01  0.33916610149E+02  0.00000000000E+00 0.  1.
</event>
<event>
 5    1  0.1047411E-009  0.9118800E+02  0.7815553E-02  0.1125453E+00
         25   -1    0    0    0    0  0.00000000000E+00  0.00000000000E+00  0.99999998245E-14  0.12509000000E+03  0.12509000000E+03 0.  0.
        -11    1    3    3    0    0 -0.29967149674E+01  0.73901616802E+01 -0.33877302447E+02  0.34803252888E+02  0.51100000000E-03 0.  1.
         23    2    1    0    0    0  0.34935666601E+02 -0.14475417335E+02 -0.25763635221E+02  0.79331903365E+02  0.64805458750E+02 0.  0.
         11    1    3    3    0    0  0.37932381569E+02 -0.21865579015E+02  0.81136672260E+01  0.44528650477E+02  0.51100000000E-03 0. -1.
         22    1    1    0    0    0 -0.34935666601E+02  0.14475417335E+02  0.25763635221E+02  0.45758096635E+02  0.00000000000E+00 0. -1.
</event>
<event>
 5    1  0.1047411E-009  0.9118800E+02  0.7815553E-02  0.1125453E+00
         25   -1    0    0    0    0  0.00000000000E+00  0.00000000000E+00  0.99999998245E-14  0.12509000000E+03  0.12509000000E+03 0.  0.
        -11    1    3    3    0    0  0.13430644793E+02  0.31549538068E+02 -0.82585861161E+01  0.35269814527E+02  0.51100000000E-03 0. -1.
         23    2    1    0    0    0  0.31449870178E+01 -0.27709671171E+02  0.47369033643E+01  0.96802987552E+02  0.92577877086E+02 0.  0.
         11    1    3    3    0    0 -0.10285657775E+02 -0.59259209239E+02  0.12995489480E+02  0.61533173025E+02  0.51100000000E-03 0.  1.
         22    1    1    0    0    0 -0.31449870178E+01  0.27709671171E+02 -0.47369033643E+01  0.28287012448E+02  0.00000000000E+00 0.  1.
</event>
<event>
 5    1  0.1047411E-009  0.9118800E+02  0.7815553E-02  0.1125453E+00
         25   -1    0    0    0    0  0.00000000000E+00  0.00000000000E+00  0.99999998245E-14  0.12509000000E+03  0.12509000000E+03 0.  0.
        -11    1    3    3    0    0 -0.36896152204E+02 -0.20274526052E+02  0.41608795007E+02  0.59191842988E+02  0.51100000000E-03 0.  1.
         23    2    1    0    0    0 -0.55564771627E+01 -0.18042476766E+02  0.21418981220E+02  0.96538674938E+02  0.92220049859E+02 0.  0.
         11    1    3    3    0    0  0.31339675041E+02  0.22320492858E+01 -0.20189813787E+02  0.37346831950E+02  0.51100000000E-03 0. -1.
         22    1    1    0    0    0  0.55564771627E+01  0.18042476766E+02 -0.21418981220E+02  0.28551325062E+02  0.00000000000E+00 0.  1.
</event>
<event>
 5    1  0.1047411E-009  0.9118800E+02  0.7815553E-02  0.1125453E+00
         25   -1    0    0    0    0  0.00000000000E+00  0.00000000000E+00  0.99999998245E-14  0.12509000000E+03  0.12509000000E+03 0.  0.
        -11    1    3    3    0    0 -0.34085222515E+02 -0.14626345153E+02 -0.17732061561E+02  0.41111535777E+02  0.51100000000E-03 0.  1.
         23    2    1    0    0    0 -0.11318759055E+02  0.11609672470E+02  0.24447976990E+02  0.95753974702E+02  0.91149444819E+02 0.  0.
         11    1    3    3    0    0  0.22766463461E+02  0.26236017623E+02  0.42180038551E+02  0.54642438925E+02  0.51100000000E-03 0. -1.
         22    1    1    0    0    0  0.11318759055E+02 -0.11609672470E+02 -0.24447976990E+02  0.29336025298E+02  0.00000000000E+00 0. -1.
</event>
<event>
 5    1  0.1047411E-009  0.9118800E+02  0.7815553E-02  0.1125453E+00
         25   -1    0    0    0    0  0.00000000000E+00  0.00000000000E+00  0.99999998245E-14  0.12509000000E+03  0.12509000000E+03 0.  0.
        -11    1    3    3    0    0  0.34920773996E+02  0.14285606529E+02  0.34841647355E+02  0.51356395912E+02  0.51100000000E-03 0. -1.
         23    2    1    0    0    0 -0.15320627341E+01 -0.83748687882E+01  0.29231862441E+02  0.94643531811E+02  0.89612558765E+02 0.  0.
         11    1    3    3    0    0 -0.36452836730E+02 -0.22660475317E+02 -0.56097849143E+01  0.43287135899E+02  0.51100000000E-03 0.  1.
         22    1    1    0    0    0  0.15320627341E+01  0.83748687882E+01 -0.29231862441E+02  0.30446468189E+02  0.00000000000E+00 0. -1.
</event>
<event>
 5    1  0.1047411E-009  0.9118800E+02  0.7815553E-02  0.1125453E+00
         25   -1    0    0    0    0  0.00000000000E+00  0.00000000000E+00  0.99999998245E-14  0.12509000000E+03  0.12509000000E+03 0.  0.
        -11    1    3    3    0    0  0.12440423225E+02 -0.15833882190E+02  0.31407571228E+02  0.37308329980E+02  0.51100000000E-03 0.  1.
         23    2    1    0    0    0 -0.11059589481E+02  0.24784160306E+02 -0.59700158136E+01  0.97301329461E+02  0.93248798944E+02 0.  0.
         11    1    3    3    0    0 -0.23500012705E+02  0.40618042495E+02 -0.37377587042E+02  0.59992999480E+02  0.51100000000E-03 0. -1.
         22    1    1    0    0    0  0.11059589481E+02 -0.24784160306E+02  0.59700158136E+01  0.27788670539E+02  0.00000000000E+00 0. -1.
</event>
<event>
 5    1  0.1047411E-009  0.9118800E+02  0.7815553E-02  0.1125453E+00
         25   -1    0    0    0    0  0.00000000000E+00  0.00000000000E+00  0.99999998245E-14  0.12509000000E+03  0.12509000000E+03 0.  0.
        -11    1    3    3    0    0 -0.14806549079E+02  0.51157653693E+01  0.32021602685E+02  0.35648113411E+02  0.51100000000E-03 0.  1.
         23    2    1    0    0    0  0.14225544470E+02  0.20449960019E+02 -0.17201713644E+02  0.94816811656E+02  0.89854114208E+02 0.  0.
         11    1    3    3    0    0  0.29032093549E+02  0.15334194650E+02 -0.49223316329E+02  0.59168698245E+02  0.51100000000E-03 0. -1.
         22    1    1    0    0    0 -0.14225544470E+02 -0.20449960019E+02  0.17201713644E+02  0.30273188344E+02  0.00000000000E+00 0. -1.
</event>
<event>
 5    1  0.1047411E-009  0.9118800E+02  0.7815553E-02  0.1125453E+00
         25   -1    0    0    0    0  0.00000000000E+00  0.00000000000E+00  0.99999998245E-14  0.12509000000E+03  0.12509000000E+03 0.  0.
        -11    1    3    3    0    0 -0.10934928654E+02 -0.62947858698E+01 -0.38112016980E+02  0.40146267975E+02  0.51100000000E-03 0. -1.
         23    2    1    0    0    0 -0.85092834382E+01  0.27732480677E+02  0.55504253843E+01  0.95555179685E+02  0.90876216655E+02 0.  0.
         11    1    3    3    0    0  0.24256452160E+01  0.34027266547E+02  0.43662442364E+02  0.55408911709E+02  0.51100000000E-03 0.  1.
         22    1    1    0    0    0  0.85092834382E+01 -0.27732480677E+02 -0.55504253843E+01  0.29534820315E+02  0.00000000000E+00 0.  1.
</event>
<event>
 5    1  0.1047411E-009  0.9118800E+02  0.7815553E-02  0.1125453E+00
         25   -1    0    0    0    0  0.00000000000E+00  0.00000000000E+00  0.99999998245E-14  0.12509000000E+03  0.12509000000E+03 0.  0.
        -11    1    3    3    0    0  0.25721847329E+02 -0.21685332197E+02  0.48093474912E+01  0.33985245123E+02  0.51100000000E-03 0.  1.
         23    2    1    0    0    0 -0.79587681287E+01  0.29025714610E+02  0.12008734816E+01  0.94968974190E+02  0.90065697481E+02 0.  0.
         11    1    3    3    0    0 -0.33680615458E+02  0.50711046807E+02 -0.36084740095E+01  0.60983729066E+02  0.51100000000E-03 0. -1.
         22    1    1    0    0    0  0.79587681287E+01 -0.29025714610E+02 -0.12008734816E+01  0.30121025810E+02  0.00000000000E+00 0. -1.
</event>
<event>
 5    1  0.1047411E-009  0.9118800E+02  0.7815553E-02  0.1125453E+00
         25   -1    0    0    0    0  0.00000000000E+00  0.00000000000E+00  0.99999998245E-14  0.12509000000E+03  0.12509000000E+03 0.  0.
        -11    1    3    3    0    0  0.13443220610E+02 -0.30402505808E+02  0.14246344157E+02  0.36166156305E+02  0.51100000000E-03 0.  1.
         23    2    1    0    0    0 -0.15262454014E+02  0.22039005606E+02  0.11226447326E+02  0.96026390620E+02  0.91522534412E+02 0.  0.
         11    1    3    3    0    0 -0.28705674624E+02  0.52441511414E+02 -0.30198968315E+01  0.59860234315E+02  0.51100000000E-03 0. -1.
         22    1    1    0    0    0  0.15262454014E+02 -0.22039005606E+02 -0.11226447326E+02  0.29063609380E+02  0.00000000000E+00 0. -1.
</event>
<event>
 5    1  0.1047411E-009  0.9118800E+02  0.7815553E-02  0.1125453E+00
         25   -1    0    0    0    0  0.00000000000E+00  0.00000000000E+00  0.99999998245E-14  0.12509000000E+03  0.12509000000E+03 0.  0.
        -11    1    3    3    0    0 -0.35315957860E+02  0.30131357419E+02 -0.17692789305E+02  0.49680482818E+02  0.51100000000E-03 0.  1.
         23    2    1    0    0    0 -0.29794506572E+02 -0.83727674432E+01  0.34440839923E+01  0.93950353710E+02  0.88639671655E+02 0.  0.
         11    1    3    3    0    0  0.55214512873E+01 -0.38504124862E+02  0.21136873297E+02  0.44269870891E+02  0.51100000000E-03 0. -1.
         22    1    1    0    0    0  0.29794506572E+02  0.83727674432E+01 -0.34440839923E+01  0.31139646290E+02  0.00000000000E+00 0.  1.
</event>
<event>
 5    1  0.1047411E-009  0.9118800E+02  0.7815553E-02  0.1125453E+00
         25   -1    0    0    0    0  0.00000000000E+00  0.00000000000E+00  0.99999998245E-14  0.12509000000E+03  0.12509000000E+03 0.  0.
        -11    1    3    3    0    0 -0.92551764988E+01  0.84016893155E+01  0.32561607395E+02  0.34878431039E+02  0.51100000000E-03 0.  1.
         23    2    1    0    0    0 -0.12796274524E+02 -0.13309036563E+02 -0.23560232439E+02  0.95157414938E+02  0.90327038971E+02 0.  0.
         11    1    3    3    0    0 -0.35410980249E+01 -0.21710725878E+02 -0.56121839833E+02  0.60278983899E+02  0.51100000000E-03 0. -1.
         22    1    1    0    0    0  0.12796274524E+02  0.13309036563E+02  0.23560232439E+02  0.29932585062E+02  0.00000000000E+00 0. -1.
</event>
<event>
 5    1  0.1047411E-009  0.9118800E+02  0.7815553E-02  0.1125453E+00
         25   -1    0    0    0    0  0.00000000000E+00  0.00000000000E+00  0.99999998245E-14  0.12509000000E+03  0.12509000000E+03 0.  0.
        -11    1    3    3    0    0 -0.43725754371E+02 -0.17623042544E+02  0.38852345366E+02  0.61090244430E+02  0.51100000000E-03 0.  1.
         23    2    1    0    0    0 -0.24479989603E+02 -0.12468768079E+02  0.10639231286E+02  0.95629292087E+02  0.90978174274E+02 0.  0.
         11    1    3    3    0    0  0.19245764767E+02  0.51542744654E+01 -0.28213114080E+02  0.34539047657E+02  0.51100000000E-03 0. -1.
         22    1    1    0    0    0  0.24479989603E+02  0.12468768079E+02 -0.10639231286E+02  0.29460707913E+02  0.00000000000E+00 0.  1.
</event>
<event>
 5    1  0.1047411E-009  0.9118800E+02  0.7815553E-02  0.1125453E+00
         25   -1    0    0    0    0  0.00000000000E+00  0.00000000000E+00  0.99999998245E-14  0.12509000000E+03  0.12509000000E+03 0.  0.
        -11    1    3    3    0    0 -0.14810012172E+01 -0.53659810079E+02 -0.89071058245E+01  0.54414199588E+02  0.51100000000E-03 0.  1.
         23    2    1    0    0    0 -0.22720963858E+02 -0.35481468931E+02 -0.62311718002E+01  0.82498870194E+02  0.70654506192E+02 0.  0.
         11    1    3    3    0    0 -0.21239962641E+02  0.18178341149E+02  0.26759340243E+01  0.28084670606E+02  0.51100000000E-03 0. -1.
         22    1    1    0    0    0  0.22720963858E+02  0.35481468931E+02  0.62311718002E+01  0.42591129806E+02  0.00000000000E+00 0.  1.
</event>
<event>
 5    1  0.1047411E-009  0.9118800E+02  0.7815553E-02  0.1125453E+00
         25   -1    0    0    0    0  0.00000000000E+00  0.00000000000E+00  0.99999998245E-14  0.12509000000E+03  0.12509000000E+03 0.  0.
        -11    1    3    3    0    0 -0.43075519370E+02  0.21659682306E+02 -0.48655368369E+01  0.48459422774E+02  0.51100000000E-03 0. -1.
         23    2    1    0    0    0  0.21835938179E+01  0.27526205536E+02 -0.12583618312E+02  0.94745189521E+02  0.89754350392E+02 0.  0.
         11    1    3    3    0    0  0.45259113188E+02  0.58665232299E+01 -0.77180814751E+01  0.46285766747E+02  0.51100000000E-03 0.  1.
         22    1    1    0    0    0 -0.21835938179E+01 -0.27526205536E+02  0.12583618312E+02  0.30344810479E+02  0.00000000000E+00 0. -1.
</event>
<event>
 5    1  0.1047411E-009  0.9118800E+02  0.7815553E-02  0.1125453E+00
         25   -1    0    0    0    0  0.00000000000E+00  0.00000000000E+00  0.99999998245E-14  0.12509000000E+03  0.12509000000E+03 0.  0.
        -11    1    3    3    0    0  0.41910372557E+02 -0.15929209919E+02 -0.45141135360E+01  0.45062137963E+02  0.51100000000E-03 0.  1.
         23    2    1    0    0    0  0.17446630898E+02  0.25175793807E+02  0.55958278081E+01  0.93952902955E+02  0.88643269126E+02 0.  0.
         11    1    3    3    0    0 -0.24463741659E+02  0.41105003726E+02  0.10109941344E+02  0.48890764992E+02  0.51100000000E-03 0. -1.
         22    1    1    0    0    0 -0.17446630898E+02 -0.25175793807E+02 -0.55958278081E+01  0.31137097045E+02  0.00000000000E+00 0.  1.
</event>
<event>
 5    1  0.1047411E-009  0.9118800E+02  0.7815553E-02  0.1125453E+00
         25   -1    0    0    0    0  0.00000000000E+00  0.00000000000E+00  0.99999998245E-14  0.12509000000E+03  0.12509000000E+03 0.  0.
        -11    1    3    3    0    0  0.31976976694E+02 -0.23372395369E+02  0.21077508362E+02  0.44867106691E+02  0.51100000000E-03 0. -1.
         23    2    1    0    0    0 -0.20760388059E+02 -0.35423177881E+01  0.55003469015E+01  0.10332315494E+03  0.10100435042E+03 0.  0.
         11    1    3    3    0    0 -0.52737364753E+02  0.19830077581E+02 -0.15577161461E+02  0.58456048253E+02  0.51100000000E-03 0.  1.
         22    1    1    0    0    0  0.20760388059E+02  0.35423177881E+01 -0.55003469015E+01  0.21766845056E+02  0.00000000000E+00 0.  1.
</event>
<event>
 5    1  0.1047411E-009  0.9118800E+02  0.7815553E-02  0.1125453E+00
         25   -1    0    0    0    0  0.00000000000E+00  0.00000000000E+00  0.99999998245E-14  0.12509000000E+03  0.12509000000E+03 0.  0.
        -11    1    3    3    0    0 -0.39159297367E+02 -0.18880445326E+02 -0.27655686701E+02  0.51524351458E+02  0.51100000000E-03 0. -1.
         23    2    1    0    0    0 -0.49050699501E+01 -0.29898160861E+02 -0.41375023527E+01  0.94510944099E+02  0.89427288311E+02 0.  0.
         11    1    3    3    0    0  0.34254227417E+02 -0.11017715535E+02  0.23518184348E+02  0.42986592641E+02  0.51100000000E-03 0.  1.
         22    1    1    0    0    0  0.49050699501E+01  0.29898160861E+02  0.41375023527E+01  0.30579055901E+02  0.00000000000E+00 0. -1.
</event>
<event>
 5    1  0.1047411E-009  0.9118800E+02  0.7815553E-02  0.1125453E+00
         25   -1    0    0    0    0  0.00000000000E+00  0.00000000000E+00  0.99999998245E-14  0.12509000000E+03  0.12509000000E+03 0.  0.
        -11    1    3    3    0    0  0.44453638228E+02 -0.14156870092E+02  0.33700389285E+02  0.57552229850E+02  0.51100000000E-03 0.  1.
         23    2    1    0    0    0  0.16755550492E+02 -0.23769117410E+02  0.14540567734E+02  0.92576194858E+02  0.86678742086E+02 0.  0.
         11    1    3    3    0    0 -0.27698087736E+02 -0.96122473184E+01 -0.19159821550E+02  0.35023965008E+02  0.51100000000E-03 0. -1.
         22    1    1    0    0    0 -0.16755550492E+02  0.23769117410E+02 -0.14540567734E+02  0.32513805142E+02  0.00000000000E+00 0.  1.
</event>
<event>
 5    1  0.1047411E-009  0.9118800E+02  0.7815553E-02  0.1125453E+00
         25   -1    0    0    0    0  0.00000000000E+00  0.00000000000E+00  0.99999998245E-14  0.12509000000E+03  0.12509000000E+03 0.  0.
        -11    1    3    3    0    0  0.15526427806E+02  0.39190651711E+02  0.40898683898E+02  0.58733972170E+02  0.51100000000E-03 0. -1.
         23    2    1    0    0    0 -0.29619758942E+01  0.27318662508E+02  0.33149183090E+02  0.82032469161E+02  0.69823885846E+02 0.  0.
         11    1    3    3    0    0 -0.18488403700E+02 -0.11871989203E+02 -0.77495008086E+01  0.23298496991E+02  0.51100000000E-03 0.  1.
         22    1    1    0    0    0  0.29619758942E+01 -0.27318662508E+02 -0.33149183090E+02  0.43057530839E+02  0.00000000000E+00 0. -1.
</event>
<event>
 5    1  0.1047411E-009  0.9118800E+02  0.7815553E-02  0.1125453E+00
         25   -1    0    0    0    0  0.00000000000E+00  0.00000000000E+00  0.99999998245E-14  0.12509000000E+03  0.12509000000E+03 0.  0.
        -11    1    3    3    0    0  0.58771724528E+01 -0.12024471545E+02  0.32177937088E+02  0.34850376002E+02  0.51100000000E-03 0. -1.
         23    2    1    0    0    0 -0.28825959723E+02 -0.13157918416E+02 -0.12145954674E+02  0.91154900384E+02  0.84602747462E+02 0.  0.
         11    1    3    3    0    0 -0.34703132175E+02 -0.11334468714E+01 -0.44323891763E+02  0.56304524382E+02  0.51100000000E-03 0.  1.
         22    1    1    0    0    0  0.28825959723E+02  0.13157918416E+02  0.12145954674E+02  0.33935099616E+02  0.00000000000E+00 0.  1.
</event>
<event>
 5    1  0.1047411E-009  0.9118800E+02  0.7815553E-02  0.1125453E+00
         25   -1    0    0    0    0  0.00000000000E+00  0.00000000000E+00  0.99999998245E-14  0.12509000000E+03  0.12509000000E+03 0.  0.
        -11    1    3    3    0    0 -0.25621241102E+02  0.14169175702E+02  0.35203816272E+02  0.45787795492E+02  0.51100000000E-03 0.  1.
         23    2    1    0    0    0  0.21312924316E+02  0.79156931105E+01  0.17731549904E+02  0.96257608453E+02  0.91838011644E+02 0.  0.
         11    1    3    3    0    0  0.46934165418E+02 -0.62534825913E+01 -0.17472266368E+02  0.50469812961E+02  0.51100000000E-03 0. -1.
         22    1    1    0    0    0 -0.21312924316E+02 -0.79156931105E+01 -0.17731549904E+02  0.28832391547E+02  0.00000000000E+00 0.  1.
</event>
<event>
 4    1  0.1047411E-009  0.9118800E+02  0.7815553E-02  0.1125453E+00
         25   -1    0    0    0    0  0.00000000000E+00  0.00000000000E+00  0.99999998245E-14  0.12509000000E+03  0.12509000000E+03 0.  0.
        -11    1    1    0    0    0 -0.44197094649E+02 -0.17739126753E+02 -0.26576491665E+02  0.54537782343E+02  0.51100000000E-03 0.  1.
         11    1    1    0    0    0 -0.52475714690E+01 -0.28672608184E+01  0.14438000083E+02  0.15627349026E+02  0.51100000000E-03 0. -1.
         22    1    1    0    0    0  0.49444666118E+02  0.20606387572E+02  0.12138491582E+02  0.54924868631E+02  0.00000000000E+00 0.  1.
</event>
<event>
 5    1  0.1047411E-009  0.9118800E+02  0.7815553E-02  0.1125453E+00
         25   -1    0    0    0    0  0.00000000000E+00  0.00000000000E+00  0.99999998245E-14  0.12509000000E+03  0.12509000000E+03 0.  0.
        -11    1    3    3    0    0  0.38727758549E+02  0.20275097732E+02  0.72527268575E+01  0.44311634109E+02  0.51100000000E-03 0. -1.
         23    2    1    0    0    0 -0.65153705449E+00  0.15847874190E+02 -0.25052543285E+02  0.95438532213E+02  0.90715510741E+02 0.  0.
         11    1    3    3    0    0 -0.39379295603E+02 -0.44272235421E+01 -0.32305270143E+02  0.51126898104E+02  0.51100000000E-03 0.  1.
         22    1    1    0    0    0  0.65153705449E+00 -0.15847874190E+02  0.25052543285E+02  0.29651467787E+02  0.00000000000E+00 0. -1.
</event>
<event>
 5    1  0.1047411E-009  0.9118800E+02  0.7815553E-02  0.1125453E+00
         25   -1    0    0    0    0  0.00000000000E+00  0.00000000000E+00  0.99999998245E-14  0.12509000000E+03  0.12509000000E+03 0.  0.
        -11    1    3    3    0    0  0.75674852291E+01  0.31156771864E+02  0.28567536340E+02  0.42943164747E+02  0.51100000000E-03 0. -1.
         23    2    1    0    0    0 -0.24329342288E+02  0.13253835196E+02 -0.95625492871E+01  0.95780899154E+02  0.91186387418E+02 0.  0.
         11    1    3    3    0    0 -0.31896827517E+02 -0.17902936669E+02 -0.38130085627E+02  0.52837734406E+02  0.51100000000E-03 0.  1.
         22    1    1    0    0    0  0.24329342288E+02 -0.13253835196E+02  0.95625492871E+01  0.29309100846E+02  0.00000000000E+00 0.  1.
</event>
<event>
 5    1  0.1047411E-009  0.9118800E+02  0.7815553E-02  0.1125453E+00
         25   -1    0    0    0    0  0.00000000000E+00  0.00000000000E+00  0.99999998245E-14  0.12509000000E+03  0.12509000000E+03 0.  0.
        -11    1    3    3    0    0  0.29326902641E+02  0.40496582884E+02 -0.14869853211E+02  0.52164671748E+02  0.51100000000E-03 0.  1.
         23    2    1    0    0    0 -0.20950937823E+01  0.26786597056E+02  0.11942365335E+02  0.95687087056E+02  0.91057604513E+02 0.  0.
         11    1    3    3    0    0 -0.31421996423E+02 -0.13709985828E+02  0.26812218546E+02  0.43522415308E+02  0.51100000000E-03 0. -1.
         22    1    1    0    0    0  0.20950937823E+01 -0.26786597056E+02 -0.11942365335E+02  0.29402912944E+02  0.00000000000E+00 0.  1.
</event>
<event>
 5    1  0.1047411E-009  0.9118800E+02  0.7815553E-02  0.1125453E+00
         25   -1    0    0    0    0  0.00000000000E+00  0.00000000000E+00  0.99999998245E-14  0.12509000000E+03  0.12509000000E+03 0.  0.
        -11    1    3    3    0    0 -0.98859722379E+01  0.45471498674E+02  0.79096625420E+01  0.47201190668E+02  0.51100000000E-03 0.  1.
         23    2    1    0    0    0  0.24329086794E+02  0.10143550316E+02  0.11108841868E+02  0.96485761767E+02  0.92148248919E+02 0.  0.
         11    1    3    3    0    0  0.34215059032E+02 -0.35327948358E+02  0.31991793260E+01  0.49284571098E+02  0.51100000000E-03 0. -1.
         22    1    1    0    0    0 -0.24329086794E+02 -0.10143550316E+02 -0.11108841868E+02  0.28604238233E+02  0.00000000000E+00 0. -1.
</event>
<event>
 5    1  0.1047411E-009  0.9118800E+02  0.7815553E-02  0.1125453E+00
         25   -1    0    0    0    0  0.00000000000E+00  0.00000000000E+00  0.99999998245E-14  0.12509000000E+03  0.12509000000E+03 0.  0.
        -11    1    3    3    0    0  0.36550753791E+02 -0.10426967211E+02  0.45533364549E+02  0.59312448401E+02  0.51100000000E-03 0. -1.
         23    2    1    0    0    0  0.52459482424E+01 -0.20989419924E+01  0.28739111578E+02  0.95800717579E+02  0.91213570393E+02 0.  0.
         11    1    3    3    0    0 -0.31304805548E+02  0.83280252186E+01 -0.16794252972E+02  0.36488269178E+02  0.51100000000E-03 0.  1.
         22    1    1    0    0    0 -0.52459482424E+01  0.20989419924E+01 -0.28739111578E+02  0.29289282421E+02  0.00000000000E+00 0. -1.
</event>
<event>
 5    1  0.1047411E-009  0.9118800E+02  0.7815553E-02  0.1125453E+00
         25   -1    0    0    0    0  0.00000000000E+00  0.00000000000E+00  0.99999998245E-14  0.12509000000E+03  0.12509000000E+03 0.  0.
        -11    1    3    3    0    0  0.22872417193E+02 -0.34925084516E+02  0.12647692212E+02  0.43621933878E+02  0.51100000000E-03 0.  1.
         23    2    1    0    0    0 -0.24718956063E+02 -0.14762125466E+02  0.48313816405E+01  0.95896004288E+02  0.91344152811E+02 0.  0.
         11    1    3    3    0    0 -0.47591373255E+02  0.20162959050E+02 -0.78163105720E+01  0.52274070410E+02  0.51100000000E-03 0. -1.
         22    1    1    0    0    0  0.24718956063E+02  0.14762125466E+02 -0.48313816405E+01  0.29193995712E+02  0.00000000000E+00 0.  1.
</event>
<event>
 5    1  0.1047411E-009  0.9118800E+02  0.7815553E-02  0.1125453E+00
         25   -1    0    0    0    0  0.00000000000E+00  0.00000000000E+00  0.99999998245E-14  0.12509000000E+03  0.12509000000E+03 0.  0.
        -11    1    3    3    0    0  0.13685641204E+02 -0.54384766677E+02 -0.16176127080E+02  0.58366657513E+02  0.51100000000E-03 0. -1.
         23    2    1    0    0    0  0.14955462272E+02 -0.18138148341E+02 -0.19166083564E+02  0.94758547081E+02  0.89772964798E+02 0.  0.
         11    1    3    3    0    0  0.12698210687E+01  0.36246618335E+02 -0.29899564839E+01  0.36391889568E+02  0.51100000000E-03 0.  1.
         22    1    1    0    0    0 -0.14955462272E+02  0.18138148341E+02  0.19166083564E+02  0.30331452919E+02  0.00000000000E+00 0. -1.
</event>
<event>
 5    1  0.1047411E-009  0.9118800E+02  0.7815553E-02  0.1125453E+00
         25   -1    0    0    0    0  0.00000000000E+00  0.00000000000E+00  0.99999998245E-14  0.12509000000E+03  0.12509000000E+03 0.  0.
        -11    1    3    3    0    0  0.19384615815E+02  0.29667139870E+02  0.26808549415E+02  0.44436480963E+02  0.51100000000E-03 0.  1.
         23    2    1    0    0    0 -0.21238691697E+02 -0.40842188827E+01  0.15588152056E+02  0.98430042135E+02  0.94750830293E+02 0.  0.
         11    1    3    3    0    0 -0.40623307511E+02 -0.33751358753E+02 -0.11220397359E+02  0.53993561172E+02  0.51100000000E-03 0. -1.
         22    1    1    0    0    0  0.21238691697E+02  0.40842188827E+01 -0.15588152056E+02  0.26659957865E+02  0.00000000000E+00 0. -1.
</event>
<event>
 5    1  0.1047411E-009  0.9118800E+02  0.7815553E-02  0.1125453E+00
         25   -1    0    0    0    0  0.00000000000E+00  0.00000000000E+00  0.99999998245E-14  0.12509000000E+03  0.12509000000E+03 0.  0.
        -11    1    3    3    0    0 -0.39240568448E+02 -0.29584886461E+02 -0.11675934162E+01  0.49157410364E+02  0.51100000000E-03 0.  1.
         23    2    1    0    0    0 -0.12395815257E+02 -0.11692561863E+02 -0.28794464860E+02  0.91631167902E+02  0.85304029715E+02 0.  0.
         11    1    3    3    0    0  0.26844753190E+02  0.17892324599E+02 -0.27626871444E+02  0.42473757538E+02  0.51100000000E-03 0. -1.
         22    1    1    0    0    0  0.12395815257E+02  0.11692561863E+02  0.28794464860E+02  0.33458832098E+02  0.00000000000E+00 0. -1.
</event>
<event>
 5    1  0.1047411E-009  0.9118800E+02  0.7815553E-02  0.1125453E+00
         25   -1    0    0    0    0  0.00000000000E+00  0.00000000000E+00  0.99999998245E-14  0.12509000000E+03  0.12509000000E+03 0.  0.
        -11    1    3    3    0    0  0.37154772631E+02  0.34050756401E+02 -0.11710689806E+02  0.51740423237E+02  0.51100000000E-03 0.  1.
         23    2    1    0    0    0  0.19509541922E+02  0.10308252016E+02  0.20144346618E+02  0.95212299515E+02  0.90403014289E+02 0.  0.
         11    1    3    3    0    0 -0.17645230710E+02 -0.23742504385E+02  0.31855036424E+02  0.43471876277E+02  0.51100000000E-03 0. -1.
         22    1    1    0    0    0 -0.19509541922E+02 -0.10308252016E+02 -0.20144346618E+02  0.29877700485E+02  0.00000000000E+00 0. -1.
</event>
<event>
 5    1  0.1047411E-009  0.9118800E+02  0.7815553E-02  0.1125453E+00
         25   -1    0    0    0    0  0.00000000000E+00  0.00000000000E+00  0.99999998245E-14  0.12509000000E+03  0.12509000000E+03 0.  0.
        -11    1    3    3    0    0  0.31915538763E+02  0.12944702615E+02  0.41691724819E+02  0.54077415424E+02  0.51100000000E-03 0. -1.
         23    2    1    0    0    0  0.86085202238E+01 -0.15788214333E+02  0.24036062314E+02  0.95071561935E+02  0.90208066518E+02 0.  0.
         11    1    3    3    0    0 -0.23307018539E+02 -0.28732916948E+02 -0.17655662504E+02  0.40994146512E+02  0.51100000000E-03 0.  1.
         22    1    1    0    0    0 -0.86085202238E+01  0.15788214333E+02 -0.24036062314E+02  0.30018438065E+02  0.00000000000E+00 0. -1.
</event>
<event>
 5    1  0.1047411E-009  0.9118800E+02  0.7815553E-02  0.1125453E+00
         25   -1    0    0    0    0  0.00000000000E+00  0.00000000000E+00  0.99999998245E-14  0.12509000000E+03  0.12509000000E+03 0.  0.
        -11    1    3    3    0    0 -0.44978353130E+02  0.97186118255E+01  0.18178042748E+02  0.49476710729E+02  0.51100000000E-03 0.  1.
         23    2    1    0    0    0 -0.18227777738E+02 -0.24089033886E+02  0.57926835440E+01  0.94331446434E+02  0.89175855303E+02 0.  0.
         11    1    3    3    0    0  0.26750575392E+02 -0.33807645711E+02 -0.12385359204E+02  0.44854735706E+02  0.51100000000E-03 0. -1.
         22    1    1    0    0    0  0.18227777738E+02  0.24089033886E+02 -0.57926835440E+01  0.30758553566E+02  0.00000000000E+00 0.  1.
</event>
<event>
 5    1  0.1047411E-009  0.9118800E+02  0.7815553E-02  0.1125453E+00
         25   -1    0    0    0    0  0.00000000000E+00  0.00000000000E+00  0.99999998245E-14  0.12509000000E+03  0.12509000000E+03 0.  0.
        -11    1    3    3    0    0  0.30829734253E+02  0.56777731776E+01  0.46533556441E+02  0.56107766821E+02  0.51100000000E-03 0.  1.
         23    2    1    0    0    0  0.24724559435E+02  0.13864534763E+02  0.84884140928E+01  0.95499759426E+02  0.90799899302E+02 0.  0.
         11    1    3    3    0    0 -0.61051748180E+01  0.81867615851E+01 -0.38045142348E+02  0.39391992605E+02  0.51100000000E-03 0. -1.
         22    1    1    0    0    0 -0.24724559435E+02 -0.13864534763E+02 -0.84884140928E+01  0.29590240574E+02  0.00000000000E+00 0.  1.
</event>
<event>
 5    1  0.1047411E-009  0.9118800E+02  0.7815553E-02  0.1125453E+00
         25   -1    0    0    0    0  0.00000000000E+00  0.00000000000E+00  0.99999998245E-14  0.12509000000E+03  0.12509000000E+03 0.  0.
        -11    1    3    3    0    0 -0.18909907454E+02  0.50645772713E+02 -0.21583743824E+02  0.58210281664E+02  0.51100000000E-03 0. -1.
         23    2    1    0    0    0  0.81345904092E+01  0.22698998299E+02 -0.11439355349E+02  0.98401520544E+02  0.94713168618E+02 0.  0.
         11    1    3    3    0    0  0.27044497864E+02 -0.27946774415E+02  0.10144388476E+02  0.40191238880E+02  0.51100000000E-03 0.  1.
         22    1    1    0    0    0 -0.81345904092E+01 -0.22698998299E+02  0.11439355349E+02  0.26688479456E+02  0.00000000000E+00 0. -1.
</event>
<event>
 5    1  0.1047411E-009  0.9118800E+02  0.7815553E-02  0.1125453E+00
         25   -1    0    0    0    0  0.00000000000E+00  0.00000000000E+00  0.99999998245E-14  0.12509000000E+03  0.12509000000E+03 0.  0.
        -11    1    3    3    0    0  0.18819627740E+02 -0.18464466615E+02 -0.34625566180E+02  0.43520624412E+02  0.51100000000E-03 0.  1.
         23    2    1    0    0    0  0.31077774385E+02  0.42772481400E+01  0.74057123225E+01  0.92856981411E+02  0.87083015045E+02 0.  0.
         11    1    3    3    0    0  0.12258146644E+02  0.22741714755E+02  0.42031278502E+02  0.49336356999E+02  0.51100000000E-03 0. -1.
         22    1    1    0    0    0 -0.31077774385E+02 -0.42772481400E+01 -0.74057123225E+01  0.32233018589E+02  0.00000000000E+00 0.  1.
</event>
<event>
 5    1  0.1047411E-009  0.9118800E+02  0.7815553E-02  0.1125453E+00
         25   -1    0    0    0    0  0.00000000000E+00  0.00000000000E+00  0.99999998245E-14  0.12509000000E+03  0.12509000000E+03 0.  0.
        -11    1    3    3    0    0 -0.25737048931E+02 -0.29014864073E+01  0.21331357465E+02  0.33553556035E+02  0.51100000000E-03 0. -1.
         23    2    1    0    0    0  0.20749079627E+02  0.14966002976E+02 -0.15213319967E+02  0.95325076771E+02  0.90558928917E+02 0.  0.
         11    1    3    3    0    0  0.46486128557E+02  0.17867489383E+02 -0.36544677432E+02  0.61771520736E+02  0.51100000000E-03 0.  1.
         22    1    1    0    0    0 -0.20749079627E+02 -0.14966002976E+02  0.15213319967E+02  0.29764923229E+02  0.00000000000E+00 0.  1.
</event>
<event>
 5    1  0.1047411E-009  0.9118800E+02  0.7815553E-02  0.1125453E+00
         25   -1    0    0    0    0  0.00000000000E+00  0.00000000000E+00  0.99999998245E-14  0.12509000000E+03  0.12509000000E+03 0.  0.
        -11    1    3    3    0    0  0.26935713257E+02  0.13024628644E+02 -0.50131310194E+02  0.58380834715E+02  0.51100000000E-03 0. -1.
         23    2    1    0    0    0  0.39343535913E+01 -0.64058439427E+01 -0.28912398937E+02  0.95216252544E+02  0.90408483902E+02 0.  0.
         11    1    3    3    0    0 -0.23001359665E+02 -0.19430472587E+02  0.21218911258E+02  0.36835417829E+02  0.51100000000E-03 0.  1.
         22    1    1    0    0    0 -0.39343535913E+01  0.64058439427E+01  0.28912398937E+02  0.29873747456E+02  0.00000000000E+00 0. -1.
</event>
<event>
 5    1  0.1047411E-009  0.9118800E+02  0.7815553E-02  0.1125453E+00
         25   -1    0    0    0    0  0.00000000000E+00  0.00000000000E+00  0.99999998245E-14  0.12509000000E+03  0.12509000000E+03 0.  0.
        -11    1    3    3    0    0 -0.52444284653E+01 -0.13555334418E+02  0.58104487938E+02  0.59894763042E+02  0.51100000000E-03 0. -1.
         23    2    1    0    0    0 -0.88639126530E+01  0.48756470920E+01  0.27321466351E+02  0.95955769177E+02  0.91425960387E+02 0.  0.
         11    1    3    3    0    0 -0.36194841877E+01  0.18430981510E+02 -0.30783021587E+02  0.36061006135E+02  0.51100000000E-03 0.  1.
         22    1    1    0    0    0  0.88639126530E+01 -0.48756470920E+01 -0.27321466351E+02  0.29134230823E+02  0.00000000000E+00 0. -1.
</event>
<event>
 5    1  0.1047411E-009  0.9118800E+02  0.7815553E-02  0.1125453E+00
         25   -1    0    0    0    0  0.00000000000E+00  0.00000000000E+00  0.99999998245E-14  0.12509000000E+03  0.12509000000E+03 0.  0.
        -11    1    3    3    0    0 -0.37849106054E+02  0.22717754795E+01 -0.10642407305E+02  0.39382440585E+02  0.51100000000E-03 0. -1.
         23    2    1    0    0    0  0.78157644863E+01  0.69328465825E+01  0.25323060306E+02  0.97696425580E+02  0.93777308831E+02 0.  0.
         11    1    3    3    0    0  0.45664870540E+02  0.46610711030E+01  0.35965467611E+02  0.58313984995E+02  0.51100000000E-03 0.  1.
         22    1    1    0    0    0 -0.78157644863E+01 -0.69328465825E+01 -0.25323060306E+02  0.27393574420E+02  0.00000000000E+00 0.  1.
</event>
<event>
 5    1  0.1047411E-009  0.9118800E+02  0.7815553E-02  0.1125453E+00
         25   -1    0    0    0    0  0.00000000000E+00  0.00000000000E+00  0.99999998245E-14  0.12509000000E+03  0.12509000000E+03 0.  0.
        -11    1    3    3    0    0 -0.37409088729E+02 -0.74924177282E+01 -0.36165253253E+02  0.52569019261E+02  0.51100000000E-03 0.  1.
         23    2    1    0    0    0 -0.10102697174E+02 -0.26280381270E+02 -0.86824191410E+01  0.95626338787E+02  0.90974113559E+02 0.  0.
         11    1    3    3    0    0  0.27306391554E+02 -0.18787963542E+02  0.27482834112E+02  0.43057319527E+02  0.51100000000E-03 0. -1.
         22    1    1    0    0    0  0.10102697174E+02  0.26280381270E+02  0.86824191410E+01  0.29463661213E+02  0.00000000000E+00 0.  1.
</event>
<event>
 5    1  0.1047411E-009  0.9118800E+02  0.7815553E-02  0.1125453E+00
         25   -1    0    0    0    0  0.00000000000E+00  0.00000000000E+00  0.99999998245E-14  0.12509000000E+03  0.12509000000E+03 0.  0.
        -11    1    3    3    0    0 -0.24447702509E+02  0.25402604993E+02  0.48567324262E+01  0.35588907661E+02  0.51100000000E-03 0.  1.
         23    2    1    0    0    0  0.24025052155E+02 -0.21258656552E+01 -0.17124051401E+02  0.95510352060E+02  0.90814491016E+02 0.  0.
         11    1    3    3    0    0  0.48472754664E+02 -0.27528470648E+02 -0.21980783827E+02  0.59921444399E+02  0.51100000000E-03 0. -1.
         22    1    1    0    0    0 -0.24025052155E+02  0.21258656552E+01  0.17124051401E+02  0.29579647940E+02  0.00000000000E+00 0. -1.
</event>
<event>
 5    1  0.1047411E-009  0.9118800E+02  0.7815553E-02  0.1125453E+00
         25   -1    0    0    0    0  0.00000000000E+00  0.00000000000E+00  0.99999998245E-14  0.12509000000E+03  0.12509000000E+03 0.  0.
        -11    1    3    3    0    0  0.47019404553E+02  0.59956201185E+01 -0.12655237852E+01  0.47417016100E+02  0.51100000000E-03 0. -1.
         23    2    1    0    0    0  0.75570680976E+01  0.33863314866E+01  0.27532224576E+02  0.96339349412E+02  0.91949281323E+02 0.  0.
         11    1    3    3    0    0 -0.39462336456E+02 -0.26092886319E+01  0.28797748361E+02  0.48922333311E+02  0.51100000000E-03 0.  1.
         22    1    1    0    0    0 -0.75570680976E+01 -0.33863314866E+01 -0.27532224576E+02  0.28750650588E+02  0.00000000000E+00 0.  1.
</event>
<event>
 5    1  0.1047411E-009  0.9118800E+02  0.7815553E-02  0.1125453E+00
         25   -1    0    0    0    0  0.00000000000E+00  0.00000000000E+00  0.99999998245E-14  0.12509000000E+03  0.12509000000E+03 0.  0.
        -11    1    3    3    0    0  0.21924143725E+01  0.21485965725E+02  0.36422903822E+02  0.42344791025E+02  0.51100000000E-03 0. -1.
         23    2    1    0    0    0 -0.97837782113E+01  0.17307580474E+02 -0.18027000963E+02  0.98252574235E+02  0.94516246869E+02 0.  0.
         11    1    3    3    0    0 -0.11976192584E+02 -0.41783852504E+01 -0.54449904785E+02  0.55907783210E+02  0.51100000000E-03 0.  1.
         22    1    1    0    0    0  0.97837782113E+01 -0.17307580474E+02  0.18027000963E+02  0.26837425765E+02  0.00000000000E+00 0.  1.
</event>
<event>
 5    1  0.1047411E-009  0.9118800E+02  0.7815553E-02  0.1125453E+00
         25   -1    0    0    0    0  0.00000000000E+00  0.00000000000E+00  0.99999998245E-14  0.12509000000E+03  0.12509000000E+03 0.  0.
        -11    1    3    3    0    0 -0.18479196865E+02  0.92787602262E+00  0.36798964027E+02  0.41188656502E+02  0.51100000000E-03 0. -1.
         23    2    1    0    0    0  0.21545970044E+01  0.23344698922E+02 -0.12027255774E+02  0.98740955663E+02  0.95160412923E+02 0.  0.
         11    1    3    3    0    0  0.20633793870E+02  0.22416822900E+02 -0.48826219801E+02  0.57552299161E+02  0.51100000000E-03 0.  1.
         22    1    1    0    0    0 -0.21545970044E+01 -0.23344698922E+02  0.12027255774E+02  0.26349044337E+02  0.00000000000E+00 0.  1.
</event>
<event>
 5    1  0.1047411E-009  0.9118800E+02  0.7815553E-02  0.1125453E+00
         25   -1    0    0    0    0  0.00000000000E+00  0.00000000000E+00  0.99999998245E-14  0.12509000000E+03  0.12509000000E+03 0.  0.
        -11    1    3    3    0    0 -0.77238200445E+01 -0.22399440102E+02  0.23302135069E+02  0.33232240550E+02  0.51100000000E-03 0.  1.
         23    2    1    0    0    0  0.16953637331E+00  0.27204901487E+02 -0.12735332659E+02  0.95051289884E+02  0.90179951226E+02 0.  0.
         11    1    3    3    0    0  0.78933564178E+01  0.49604341589E+02 -0.36037467728E+02  0.61819049334E+02  0.51100000000E-03 0. -1.
         22    1    1    0    0    0 -0.16953637331E+00 -0.27204901487E+02  0.12735332659E+02  0.30038710116E+02  0.00000000000E+00 0. -1.
</event>
<event>
 5    1  0.1047411E-009  0.9118800E+02  0.7815553E-02  0.1125453E+00
         25   -1    0    0    0    0  0.00000000000E+00  0.00000000000E+00  0.99999998245E-14  0.12509000000E+03  0.12509000000E+03 0.  0.
        -11    1    3    3    0    0  0.19655901460E+02 -0.23057984343E+02 -0.20226836100E+02  0.36430070039E+02  0.51100000000E-03 0. -1.
         23    2    1    0    0    0 -0.20503181000E+02  0.14834800746E+02  0.81413010793E+01  0.98505558543E+02  0.94850474624E+02 0.  0.
         11    1    3    3    0    0 -0.40159082460E+02  0.37892785089E+02  0.28368137179E+02  0.62075488505E+02  0.51100000000E-03 0.  1.
         22    1    1    0    0    0  0.20503181000E+02 -0.14834800746E+02 -0.81413010793E+01  0.26584441457E+02  0.00000000000E+00 0.  1.
</event>
<event>
 5    1  0.1047411E-009  0.9118800E+02  0.7815553E-02  0.1125453E+00
         25   -1    0    0    0    0  0.00000000000E+00  0.00000000000E+00  0.99999998245E-14  0.12509000000E+03  0.12509000000E+03 0.  0.
        -11    1    3    3    0    0  0.16169926460E+02  0.44971224827E+02  0.30834156116E+02  0.56873744098E+02  0.51100000000E-03 0.  1.
         23    2    1    0    0    0  0.17132057697E+02  0.36526084596E+02  0.45596759081E+01  0.84488855912E+02  0.74093953006E+02 0.  0.
         11    1    3    3    0    0  0.96213123698E+00 -0.84451402305E+01 -0.26274480207E+02  0.27615111813E+02  0.51100000000E-03 0. -1.
         22    1    1    0    0    0 -0.17132057697E+02 -0.36526084596E+02 -0.45596759081E+01  0.40601144088E+02  0.00000000000E+00 0.  1.
</event>
<event>
 5    1  0.1047411E-009  0.9118800E+02  0.7815553E-02  0.1125453E+00
         25   -1    0    0    0    0  0.00000000000E+00  0.00000000000E+00  0.99999998245E-14  0.12509000000E+03  0.12509000000E+03 0.  0.
        -11    1    3    3    0    0  0.21387585184E+02  0.28334105181E+02  0.83896772980E+01  0.36477897443E+02  0.51100000000E-03 0. -1.
         23    2    1    0    0    0 -0.29126260885E+02  0.77556720423E+00 -0.49237531251E+01  0.95540314342E+02  0.90855752389E+02 0.  0.
         11    1    3    3    0    0 -0.50513846069E+02 -0.27558537977E+02 -0.13313430423E+02  0.59062416900E+02  0.51100000000E-03 0.  1.
         22    1    1    0    0    0  0.29126260885E+02 -0.77556720423E+00  0.49237531251E+01  0.29549685658E+02  0.00000000000E+00 0.  1.
</event>
<event>
 5    1  0.1047411E-009  0.9118800E+02  0.7815553E-02  0.1125453E+00
         25   -1    0    0    0    0  0.00000000000E+00  0.00000000000E+00  0.99999998245E-14  0.12509000000E+03  0.12509000000E+03 0.  0.
        -11    1    3    3    0    0 -0.37814899419E+02 -0.34313102532E+01 -0.48519864140E+02  0.61611019506E+02  0.51100000000E-03 0.  1.
         23    2    1    0    0    0 -0.14003975205E+02 -0.50717124639E+01 -0.29173234845E+02  0.92334676460E+02  0.86329492393E+02 0.  0.
         11    1    3    3    0    0  0.23810924214E+02 -0.16404022108E+01  0.19346629295E+02  0.30723656954E+02  0.51100000000E-03 0. -1.
         22    1    1    0    0    0  0.14003975205E+02  0.50717124639E+01  0.29173234845E+02  0.32755323540E+02  0.00000000000E+00 0.  1.
</event>
<event>
 5    1  0.1047411E-009  0.9118800E+02  0.7815553E-02  0.1125453E+00
         25   -1    0    0    0    0  0.00000000000E+00  0.00000000000E+00  0.99999998245E-14  0.12509000000E+03  0.12509000000E+03 0.  0.
        -11    1    3    3    0    0 -0.37918992283E+02 -0.46379506539E+02  0.11587435503E+02  0.61017843819E+02  0.51100000000E-03 0. -1.
         23    2    1    0    0    0 -0.10083977819E+02 -0.18444831966E+02  0.12811931986E+02  0.10047203834E+03  0.97409375590E+02 0.  0.
         11    1    3    3    0    0  0.27835014464E+02  0.27934674573E+02  0.12244964829E+01  0.39454194524E+02  0.51100000000E-03 0.  1.
         22    1    1    0    0    0  0.10083977819E+02  0.18444831966E+02 -0.12811931986E+02  0.24617961657E+02  0.00000000000E+00 0. -1.
</event>
<event>
 5    1  0.1047411E-009  0.9118800E+02  0.7815553E-02  0.1125453E+00
         25   -1    0    0    0    0  0.00000000000E+00  0.00000000000E+00  0.99999998245E-14  0.12509000000E+03  0.12509000000E+03 0.  0.
        -11    1    3    3    0    0 -0.37783834807E+02 -0.30167320730E+02  0.19372005657E+02  0.52086082749E+02  0.51100000000E-03 0.  1.
         23    2    1    0    0    0 -0.70540219440E+01 -0.26728293962E+02 -0.10915191794E+02  0.95369597317E+02  0.90620404749E+02 0.  0.
         11    1    3    3    0    0  0.30729812863E+02  0.34390267681E+01 -0.30287197451E+02  0.43283514568E+02  0.51100000000E-03 0. -1.
         22    1    1    0    0    0  0.70540219440E+01  0.26728293962E+02  0.10915191794E+02  0.29720402683E+02  0.00000000000E+00 0.  1.
</event>
<event>
 5    1  0.1047411E-009  0.9118800E+02  0.7815553E-02  0.1125453E+00
         25   -1    0    0    0    0  0.00000000000E+00  0.00000000000E+00  0.99999998245E-14  0.12509000000E+03  0.12509000000E+03 0.  0.
        -11    1    3    3    0    0  0.38400570447E+02  0.46269081876E+02 -0.72218680085E+01  0.60560607049E+02  0.51100000000E-03 0.  1.
         23    2    1    0    0    0  0.25406751693E+02  0.13666728687E+02 -0.56534660995E+01  0.95691969734E+02  0.91064311824E+02 0.  0.
         11    1    3    3    0    0 -0.12993818754E+02 -0.32602353189E+02  0.15684019090E+01  0.35131362685E+02  0.51100000000E-03 0. -1.
         22    1    1    0    0    0 -0.25406751693E+02 -0.13666728687E+02  0.56534660995E+01  0.29398030266E+02  0.00000000000E+00 0.  1.
</event>
<event>
 5    1  0.1047411E-009  0.9118800E+02  0.7815553E-02  0.1125453E+00
         25   -1    0    0    0    0  0.00000000000E+00  0.00000000000E+00  0.99999998245E-14  0.12509000000E+03  0.12509000000E+03 0.  0.
        -11    1    3    3    0    0 -0.59867287047E+00  0.37785405648E+02 -0.10624757657E+02  0.39255327851E+02  0.51100000000E-03 0. -1.
         23    2    1    0    0    0 -0.25684692806E+02 -0.91659945025E+01 -0.17131306657E+02  0.92884401612E+02  0.87122393765E+02 0.  0.
         11    1    3    3    0    0 -0.25086019935E+02 -0.46951400150E+02 -0.65065490003E+01  0.53629073761E+02  0.51100000000E-03 0.  1.
         22    1    1    0    0    0  0.25684692806E+02  0.91659945025E+01  0.17131306657E+02  0.32205598388E+02  0.00000000000E+00 0.  1.
</event>
<event>
 5    1  0.1047411E-009  0.9118800E+02  0.7815553E-02  0.1125453E+00
         25   -1    0    0    0    0  0.00000000000E+00  0.00000000000E+00  0.99999998245E-14  0.12509000000E+03  0.12509000000E+03 0.  0.
        -11    1    3    3    0    0 -0.33944925729E+01 -0.12971255324E+02 -0.59587362753E+02  0.61077244900E+02  0.51100000000E-03 0. -1.
         23    2    1    0    0    0 -0.64149183979E+01 -0.12455111955E+02 -0.20644212400E+02  0.10014076159E+03  0.96983027553E+02 0.  0.
         11    1    3    3    0    0 -0.30204258250E+01  0.51614336960E+00  0.38943150352E+02  0.39063516685E+02  0.51100000000E-03 0.  1.
         22    1    1    0    0    0  0.64149183979E+01  0.12455111955E+02  0.20644212400E+02  0.24949238415E+02  0.00000000000E+00 0. -1.
</event>
<event>
 5    1  0.1047411E-009  0.9118800E+02  0.7815553E-02  0.1125453E+00
         25   -1    0    0    0    0  0.00000000000E+00  0.00000000000E+00  0.99999998245E-14  0.12509000000E+03  0.12509000000E+03 0.  0.
        -11    1    3    3    0    0  0.25750206410E+02  0.13819835602E+02 -0.45695294317E+02  0.54241321049E+02  0.51100000000E-03 0. -1.
         23    2    1    0    0    0 -0.11285540646E+02  0.81544555750E+01 -0.23460907230E+02  0.97808637471E+02  0.93926869544E+02 0.  0.
         11    1    3    3    0    0 -0.37035747056E+02 -0.56653800267E+01  0.22234387087E+02  0.43567316422E+02  0.51100000000E-03 0.  1.
         22    1    1    0    0    0  0.11285540646E+02 -0.81544555750E+01  0.23460907230E+02  0.27281362529E+02  0.00000000000E+00 0. -1.
</event>
<event>
 5    1  0.1047411E-009  0.9118800E+02  0.7815553E-02  0.1125453E+00
         25   -1    0    0    0    0  0.00000000000E+00  0.00000000000E+00  0.99999998245E-14  0.12509000000E+03  0.12509000000E+03 0.  0.
        -11    1    3    3    0    0 -0.29106691868E+02 -0.50211804850E+02 -0.19630472652E+02  0.61268101934E+02  0.51100000000E-03 0. -1.
         23    2    1    0    0    0 -0.45883562552E+01 -0.22719741976E+02 -0.28845108963E+01  0.10173277217E+03  0.99015134412E+02 0.  0.
         11    1    3    3    0    0  0.24518335612E+02  0.27492062874E+02  0.16745961756E+02  0.40464670240E+02  0.51100000000E-03 0.  1.
         22    1    1    0    0    0  0.45883562552E+01  0.22719741976E+02  0.28845108963E+01  0.23357227826E+02  0.00000000000E+00 0. -1.
</event>
<event>
 5    1  0.1047411E-009  0.9118800E+02  0.7815553E-02  0.1125453E+00
         25   -1    0    0    0    0  0.00000000000E+00  0.00000000000E+00  0.99999998245E-14  0.12509000000E+03  0.12509000000E+03 0.  0.
        -11    1    3    3    0    0  0.37562463888E+02  0.19361698776E+02  0.27442053730E+02  0.50387303817E+02  0.51100000000E-03 0. -1.
         23    2    1    0    0    0  0.27605359709E+02 -0.92242205031E+01 -0.58699425230E+01  0.95398278027E+02  0.90659986194E+02 0.  0.
         11    1    3    3    0    0 -0.99571041792E+01 -0.28585919279E+02 -0.33311996253E+02  0.45010974209E+02  0.51100000000E-03 0.  1.
         22    1    1    0    0    0 -0.27605359709E+02  0.92242205031E+01  0.58699425230E+01  0.29691721973E+02  0.00000000000E+00 0.  1.
</event>
<event>
 5    1  0.1047411E-009  0.9118800E+02  0.7815553E-02  0.1125453E+00
         25   -1    0    0    0    0  0.00000000000E+00  0.00000000000E+00  0.99999998245E-14  0.12509000000E+03  0.12509000000E+03 0.  0.
        -11    1    3    3    0    0  0.58528576271E+01  0.55373450322E+02 -0.20718783595E+02  0.59411639743E+02  0.51100000000E-03 0.  1.
         23    2    1    0    0    0 -0.19016669977E+01  0.28726661484E+02  0.32969277036E+01  0.96112299096E+02  0.91639876080E+02 0.  0.
         11    1    3    3    0    0 -0.77545246248E+01 -0.26646788838E+02  0.24015711299E+02  0.36700659354E+02  0.51100000000E-03 0. -1.
         22    1    1    0    0    0  0.19016669977E+01 -0.28726661484E+02 -0.32969277036E+01  0.28977700904E+02  0.00000000000E+00 0. -1.
</event>
<event>
 5    1  0.1047411E-009  0.9118800E+02  0.7815553E-02  0.1125453E+00
         25   -1    0    0    0    0  0.00000000000E+00  0.00000000000E+00  0.99999998245E-14  0.12509000000E+03  0.12509000000E+03 0.  0.
        -11    1    3    3    0    0 -0.49049365271E+02 -0.17666891863E+02  0.78827016201E+01  0.52726618389E+02  0.51100000000E-03 0.  1.
         23    2    1    0    0    0 -0.15892990556E+02 -0.84963804151E+01  0.27411981267E+02  0.92284629312E+02  0.86256944424E+02 0.  0.
         11    1    3    3    0    0  0.33156374715E+02  0.91705114481E+01  0.19529279647E+02  0.39558010924E+02  0.51100000000E-03 0. -1.
         22    1    1    0    0    0  0.15892990556E+02  0.84963804151E+01 -0.27411981267E+02  0.32805370688E+02  0.00000000000E+00 0.  1.
</event>
<event>
 5    1  0.1047411E-009  0.9118800E+02  0.7815553E-02  0.1125453E+00
         25   -1    0    0    0    0  0.00000000000E+00  0.00000000000E+00  0.99999998245E-14  0.12509000000E+03  0.12509000000E+03 0.  0.
        -11    1    3    3    0    0 -0.34546572162E+02  0.17746357897E+02 -0.16415459796E+02  0.42164750531E+02  0.51100000000E-03 0.  1.
         23    2    1    0    0    0 -0.12615062405E+02  0.33972781797E+01  0.28257698554E+02  0.93958362939E+02  0.88650973712E+02 0.  0.
         11    1    3    3    0    0  0.21931509758E+02 -0.14349079717E+02  0.44673158350E+02  0.51793612408E+02  0.51100000000E-03 0. -1.
         22    1    1    0    0    0  0.12615062405E+02 -0.33972781797E+01 -0.28257698554E+02  0.31131637061E+02  0.00000000000E+00 0. -1.
</event>
<event>
 5    1  0.1047411E-009  0.9118800E+02  0.7815553E-02  0.1125453E+00
         25   -1    0    0    0    0  0.00000000000E+00  0.00000000000E+00  0.99999998245E-14  0.12509000000E+03  0.12509000000E+03 0.  0.
        -11    1    3    3    0    0 -0.37950280125E+02 -0.41574767612E+02  0.23279269292E+02  0.60914771957E+02  0.51100000000E-03 0.  1.
         23    2    1    0    0    0 -0.21394225818E+02 -0.11123837845E+02  0.15459255314E+02  0.96446654497E+02  0.92095146029E+02 0.  0.
         11    1    3    3    0    0  0.16556054307E+02  0.30450929767E+02 -0.78200139779E+01  0.35531882540E+02  0.51100000000E-03 0. -1.
         22    1    1    0    0    0  0.21394225818E+02  0.11123837845E+02 -0.15459255314E+02  0.28643345503E+02  0.00000000000E+00 0.  1.
</event>
<event>
 5    1  0.1047411E-009  0.9118800E+02  0.7815553E-02  0.1125453E+00
         25   -1    0    0    0    0  0.00000000000E+00  0.00000000000E+00  0.99999998245E-14  0.12509000000E+03  0.12509000000E+03 0.  0.
        -11    1    3    3    0    0  0.44752030596E+02 -0.30501284251E+02  0.23404829947E+02  0.58998802094E+02  0.51100000000E-03 0. -1.
         23    2    1    0    0    0  0.12102579003E+02 -0.14458560657E+02  0.22960689283E+02  0.95379469087E+02  0.90634030454E+02 0.  0.
         11    1    3    3    0    0 -0.32649451594E+02  0.16042723594E+02 -0.44414066430E+00  0.36380666993E+02  0.51100000000E-03 0.  1.
         22    1    1    0    0    0 -0.12102579003E+02  0.14458560657E+02 -0.22960689283E+02  0.29710530913E+02  0.00000000000E+00 0. -1.
</event>
<event>
 5    1  0.1047411E-009  0.9118800E+02  0.7815553E-02  0.1125453E+00
         25   -1    0    0    0    0  0.00000000000E+00  0.00000000000E+00  0.99999998245E-14  0.12509000000E+03  0.12509000000E+03 0.  0.
        -11    1    3    3    0    0  0.53917108185E+02  0.55811975114E+01  0.59038673712E+01  0.54525773456E+02  0.51100000000E-03 0.  1.
         23    2    1    0    0    0  0.20121582381E+02  0.24287896649E+02  0.36914874400E+00  0.93547706616E+02  0.88069615312E+02 0.  0.
         11    1    3    3    0    0 -0.33795525805E+02  0.18706699137E+02 -0.55347186272E+01  0.39021933160E+02  0.51100000000E-03 0. -1.
         22    1    1    0    0    0 -0.20121582381E+02 -0.24287896649E+02 -0.36914874400E+00  0.31542293384E+02  0.00000000000E+00 0.  1.
</event>
<event>
 5    1  0.1047411E-009  0.9118800E+02  0.7815553E-02  0.1125453E+00
         25   -1    0    0    0    0  0.00000000000E+00  0.00000000000E+00  0.99999998245E-14  0.12509000000E+03  0.12509000000E+03 0.  0.
        -11    1    3    3    0    0  0.11095462644E+02  0.72827872626E+01 -0.38071708368E+02  0.40318770566E+02  0.51100000000E-03 0. -1.
         23    2    1    0    0    0 -0.12958847030E+02  0.28006565025E+02  0.50000335237E+01  0.93828206448E+02  0.88467127167E+02 0.  0.
         11    1    3    3    0    0 -0.24054309674E+02  0.20723777762E+02  0.43071741892E+02  0.53509435883E+02  0.51100000000E-03 0.  1.
         22    1    1    0    0    0  0.12958847030E+02 -0.28006565025E+02 -0.50000335237E+01  0.31261793552E+02  0.00000000000E+00 0.  1.
</event>
<event>
 5    1  0.1047411E-009  0.9118800E+02  0.7815553E-02  0.1125453E+00
         25   -1    0    0    0    0  0.00000000000E+00  0.00000000000E+00  0.99999998245E-14  0.12509000000E+03  0.12509000000E+03 0.  0.
        -11    1    3    3    0    0  0.31709723832E+02  0.87976364728E+01  0.37264560955E+02  0.49714711067E+02  0.51100000000E-03 0. -1.
         23    2    1    0    0    0 -0.11699815595E+02  0.14943072569E+02  0.21756697540E+02  0.96218993946E+02  0.91785400829E+02 0.  0.
         11    1    3    3    0    0 -0.43409539427E+02  0.61454360963E+01 -0.15507863415E+02  0.46504282879E+02  0.51100000000E-03 0.  1.
         22    1    1    0    0    0  0.11699815595E+02 -0.14943072569E+02 -0.21756697540E+02  0.28871006054E+02  0.00000000000E+00 0.  1.
</event>
<event>
 5    1  0.1047411E-009  0.9118800E+02  0.7815553E-02  0.1125453E+00
         25   -1    0    0    0    0  0.00000000000E+00  0.00000000000E+00  0.99999998245E-14  0.12509000000E+03  0.12509000000E+03 0.  0.
        -11    1    3    3    0    0  0.19300865746E+02 -0.32893996305E+02 -0.84477101660E+01  0.39062798399E+02  0.51100000000E-03 0.  1.
         23    2    1    0    0    0 -0.28233065503E+02 -0.16661243298E+01 -0.69961630829E+01  0.95955342702E+02  0.91425376877E+02 0.  0.
         11    1    3    3    0    0 -0.47533931249E+02  0.31227871975E+02  0.14515470831E+01  0.56892544303E+02  0.51100000000E-03 0. -1.
         22    1    1    0    0    0  0.28233065503E+02  0.16661243298E+01  0.69961630829E+01  0.29134657298E+02  0.00000000000E+00 0. -1.
</event>
<event>
 5    1  0.1047411E-009  0.9118800E+02  0.7815553E-02  0.1125453E+00
         25   -1    0    0    0    0  0.00000000000E+00  0.00000000000E+00  0.99999998245E-14  0.12509000000E+03  0.12509000000E+03 0.  0.
        -11    1    3    3    0    0  0.40750577877E+02  0.42630718954E+02 -0.80027939394E+00  0.58979896941E+02  0.51100000000E-03 0.  1.
         23    2    1    0    0    0  0.27251737691E+02  0.84358153404E+01  0.47827961103E+01  0.96164313729E+02  0.91710849460E+02 0.  0.
         11    1    3    3    0    0 -0.13498840187E+02 -0.34194903613E+02  0.55830755042E+01  0.37184416788E+02  0.51100000000E-03 0. -1.
         22    1    1    0    0    0 -0.27251737691E+02 -0.84358153404E+01 -0.47827961103E+01  0.28925686271E+02  0.00000000000E+00 0.  1.
</event>
<event>
 5    1  0.1047411E-009  0.9118800E+02  0.7815553E-02  0.1125453E+00
         25   -1    0    0    0    0  0.00000000000E+00  0.00000000000E+00  0.99999998245E-14  0.12509000000E+03  0.12509000000E+03 0.  0.
        -11    1    3    3    0    0  0.19994699854E+00  0.29981973633E+02  0.37204981332E+02  0.47782521468E+02  0.51100000000E-03 0.  1.
         23    2    1    0    0    0 -0.28337552026E+02  0.61136406835E+01  0.81806432817E+01  0.94968307123E+02  0.90064771005E+02 0.  0.
         11    1    3    3    0    0 -0.28537499025E+02 -0.23868332949E+02 -0.29024338050E+02  0.47185785655E+02  0.51100000000E-03 0. -1.
         22    1    1    0    0    0  0.28337552026E+02 -0.61136406835E+01 -0.81806432817E+01  0.30121692877E+02  0.00000000000E+00 0. -1.
</event>
<event>
 5    1  0.1047411E-009  0.9118800E+02  0.7815553E-02  0.1125453E+00
         25   -1    0    0    0    0  0.00000000000E+00  0.00000000000E+00  0.99999998245E-14  0.12509000000E+03  0.12509000000E+03 0.  0.
        -11    1    3    3    0    0 -0.26638830950E+02  0.32520538303E+02 -0.11125270390E+02  0.43485450066E+02  0.51100000000E-03 0. -1.
         23    2    1    0    0    0 -0.14212655586E+02 -0.59092404513E+01  0.23710176873E+02  0.96821798980E+02  0.92603291350E+02 0.  0.
         11    1    3    3    0    0  0.12426175364E+02 -0.38429778754E+02  0.34835447263E+02  0.53336348915E+02  0.51100000000E-03 0.  1.
         22    1    1    0    0    0  0.14212655586E+02  0.59092404513E+01 -0.23710176873E+02  0.28268201020E+02  0.00000000000E+00 0.  1.
</event>
<event>
 5    1  0.1047411E-009  0.9118800E+02  0.7815553E-02  0.1125453E+00
         25   -1    0    0    0    0  0.00000000000E+00  0.00000000000E+00  0.99999998245E-14  0.12509000000E+03  0.12509000000E+03 0.  0.
        -11    1    3    3    0    0 -0.11120724431E+02 -0.37926597590E+02 -0.35525516983E+02  0.53142823352E+02  0.51100000000E-03 0.  1.
         23    2    1    0    0    0 -0.13932819963E+01  0.36967050008E+01 -0.28326117160E+02  0.96489724198E+02  0.92153627708E+02 0.  0.
         11    1    3    3    0    0  0.97274424350E+01  0.41623302591E+02  0.71993998227E+01  0.43346900846E+02  0.51100000000E-03 0. -1.
         22    1    1    0    0    0  0.13932819963E+01 -0.36967050008E+01  0.28326117160E+02  0.28600275802E+02  0.00000000000E+00 0. -1.
</event>
<event>
 5    1  0.1047411E-009  0.9118800E+02  0.7815553E-02  0.1125453E+00
         25   -1    0    0    0    0  0.00000000000E+00  0.00000000000E+00  0.99999998245E-14  0.12509000000E+03  0.12509000000E+03 0.  0.
        -11    1    3    3    0    0  0.33746454307E+02  0.41584932494E+02 -0.28747278099E+02  0.60782693156E+02  0.51100000000E-03 0. -1.
         23    2    1    0    0    0  0.20201890876E+02  0.21918781904E+02 -0.42722242482E+01  0.94976858431E+02  0.90076647042E+02 0.  0.
         11    1    3    3    0    0 -0.13544563431E+02 -0.19666150591E+02  0.24475053851E+02  0.34194165275E+02  0.51100000000E-03 0.  1.
         22    1    1    0    0    0 -0.20201890876E+02 -0.21918781904E+02  0.42722242482E+01  0.30113141569E+02  0.00000000000E+00 0. -1.
</event>
<event>
 5    1  0.1047411E-009  0.9118800E+02  0.7815553E-02  0.1125453E+00
         25   -1    0    0    0    0  0.00000000000E+00  0.00000000000E+00  0.99999998245E-14  0.12509000000E+03  0.12509000000E+03 0.  0.
        -11    1    3    3    0    0 -0.36052403712E+02  0.17359602189E+02  0.34969059952E+02  0.53141008230E+02  0.51100000000E-03 0.  1.
         23    2    1    0    0    0 -0.14134626725E+02  0.25737197348E+02 -0.56298816497E+00  0.95721514243E+02  0.91104886441E+02 0.  0.
         11    1    3    3    0    0  0.21917776987E+02  0.83775951586E+01 -0.35532048117E+02  0.42580506013E+02  0.51100000000E-03 0. -1.
         22    1    1    0    0    0  0.14134626725E+02 -0.25737197348E+02  0.56298816497E+00  0.29368485757E+02  0.00000000000E+00 0.  1.
</event>
<event>
 5    1  0.1047411E-009  0.9118800E+02  0.7815553E-02  0.1125453E+00
         25   -1    0    0    0    0  0.00000000000E+00  0.00000000000E+00  0.99999998245E-14  0.12509000000E+03  0.12509000000E+03 0.  0.
        -11    1    3    3    0    0 -0.32445222042E+02 -0.17320683873E+02 -0.16642657683E+02  0.40369252881E+02  0.51100000000E-03 0.  1.
         23    2    1    0    0    0  0.74879465765E+01  0.23835854200E+02  0.87593446558E-01  0.10010550557E+03  0.96937543208E+02 0.  0.
         11    1    3    3    0    0  0.39933168618E+02  0.41156538073E+02  0.16730251130E+02  0.59736252688E+02  0.51100000000E-03 0. -1.
         22    1    1    0    0    0 -0.74879465765E+01 -0.23835854200E+02 -0.87593446558E-01  0.24984494431E+02  0.00000000000E+00 0. -1.
</event>
<event>
 5    1  0.1047411E-009  0.9118800E+02  0.7815553E-02  0.1125453E+00
         25   -1    0    0    0    0  0.00000000000E+00  0.00000000000E+00  0.99999998245E-14  0.12509000000E+03  0.12509000000E+03 0.  0.
        -11    1    3    3    0    0 -0.77596067149E+01 -0.16700676891E+02  0.29860382756E+02  0.35082282759E+02  0.51100000000E-03 0. -1.
         23    2    1    0    0    0  0.19724038325E+02  0.14389170797E+02 -0.15193156208E+02  0.96333819454E+02  0.91941757928E+02 0.  0.
         11    1    3    3    0    0  0.27483645039E+02  0.31089847688E+02 -0.45053538965E+02  0.61251536694E+02  0.51100000000E-03 0.  1.
         22    1    1    0    0    0 -0.19724038325E+02 -0.14389170797E+02  0.15193156208E+02  0.28756180546E+02  0.00000000000E+00 0.  1.
</event>
<event>
 5    1  0.1047411E-009  0.9118800E+02  0.7815553E-02  0.1125453E+00
         25   -1    0    0    0    0  0.00000000000E+00  0.00000000000E+00  0.99999998245E-14  0.12509000000E+03  0.12509000000E+03 0.  0.
        -11    1    3    3    0    0 -0.12321933901E+02 -0.56236326543E+02 -0.14642025762E+02  0.59403227158E+02  0.51100000000E-03 0.  1.
         23    2    1    0    0    0 -0.19116446892E+02 -0.22077177165E+02 -0.69560970432E+01  0.95069547315E+02  0.90205272835E+02 0.  0.
         11    1    3    3    0    0 -0.67945129904E+01  0.34159149378E+02  0.76859287193E+01  0.35666320157E+02  0.51100000000E-03 0. -1.
         22    1    1    0    0    0  0.19116446892E+02  0.22077177165E+02  0.69560970432E+01  0.30020452685E+02  0.00000000000E+00 0.  1.
</event>
<event>
 5    1  0.1047411E-009  0.9118800E+02  0.7815553E-02  0.1125453E+00
         25   -1    0    0    0    0  0.00000000000E+00  0.00000000000E+00  0.99999998245E-14  0.12509000000E+03  0.12509000000E+03 0.  0.
        -11    1    3    3    0    0  0.18370100416E+02  0.12613487653E+02  0.23280592612E+02  0.32226489922E+02  0.51100000000E-03 0. -1.
         23    2    1    0    0    0 -0.17392874063E+02  0.22904746955E+01 -0.25840019655E+02  0.93857565605E+02  0.88508630444E+02 0.  0.
         11    1    3    3    0    0 -0.35762974478E+02 -0.10323012957E+02 -0.49120612267E+02  0.61631075683E+02  0.51100000000E-03 0.  1.
         22    1    1    0    0    0  0.17392874063E+02 -0.22904746955E+01  0.25840019655E+02  0.31232434395E+02  0.00000000000E+00 0.  1.
</event>
<event>
 5    1  0.1047411E-009  0.9118800E+02  0.7815553E-02  0.1125453E+00
         25   -1    0    0    0    0  0.00000000000E+00  0.00000000000E+00  0.99999998245E-14  0.12509000000E+03  0.12509000000E+03 0.  0.
        -11    1    3    3    0    0 -0.25271148234E+02 -0.21003517214E+02 -0.22806359487E+02  0.39998858755E+02  0.51100000000E-03 0. -1.
         23    2    1    0    0    0  0.20661594171E+02  0.11326841719E+02  0.20814432487E+01  0.10143558766E+03  0.98638974151E+02 0.  0.
         11    1    3    3    0    0  0.45932742405E+02  0.32330358933E+02  0.24887802735E+02  0.61436728908E+02  0.51100000000E-03 0.  1.
         22    1    1    0    0    0 -0.20661594171E+02 -0.11326841719E+02 -0.20814432487E+01  0.23654412337E+02  0.00000000000E+00 0.  1.
</event>
<event>
 5    1  0.1047411E-009  0.9118800E+02  0.7815553E-02  0.1125453E+00
         25   -1    0    0    0    0  0.00000000000E+00  0.00000000000E+00  0.99999998245E-14  0.12509000000E+03  0.12509000000E+03 0.  0.
        -11    1    3    3    0    0  0.11939666212E+02  0.23109650200E+02  0.25851688386E+02  0.36673169406E+02  0.51100000000E-03 0.  1.
         23    2    1    0    0    0 -0.52975751859E+01  0.16311129171E+01 -0.27672969976E+02  0.96867347760E+02  0.92664798940E+02 0.  0.
         11    1    3    3    0    0 -0.17237241398E+02 -0.21478537283E+02 -0.53524658361E+02  0.60194178354E+02  0.51100000000E-03 0. -1.
         22    1    1    0    0    0  0.52975751859E+01 -0.16311129171E+01  0.27672969976E+02  0.28222652240E+02  0.00000000000E+00 0. -1.
</event>
<event>
 5    1  0.1047411E-009  0.9118800E+02  0.7815553E-02  0.1125453E+00
         25   -1    0    0    0    0  0.00000000000E+00  0.00000000000E+00  0.99999998245E-14  0.12509000000E+03  0.12509000000E+03 0.  0.
        -11    1    3    3    0    0  0.14845151896E+01 -0.24475530342E+02  0.27899696066E+02  0.37143618722E+02  0.51100000000E-03 0.  1.
         23    2    1    0    0    0 -0.11622143145E+02  0.81707061513E+01 -0.22424081844E+02  0.98544301726E+02  0.94901555866E+02 0.  0.
         11    1    3    3    0    0 -0.13106658334E+02  0.32646236494E+02 -0.50323777911E+02  0.61400683004E+02  0.51100000000E-03 0. -1.
         22    1    1    0    0    0  0.11622143145E+02 -0.81707061513E+01  0.22424081844E+02  0.26545698274E+02  0.00000000000E+00 0. -1.
</event>
<event>
 5    1  0.1047411E-009  0.9118800E+02  0.7815553E-02  0.1125453E+00
         25   -1    0    0    0    0  0.00000000000E+00  0.00000000000E+00  0.99999998245E-14  0.12509000000E+03  0.12509000000E+03 0.  0.
        -11    1    3    3    0    0  0.23356689839E+02 -0.36533405329E+02  0.23566192628E+02  0.49351698050E+02  0.51100000000E-03 0.  1.
         23    2    1    0    0    0  0.13235599400E+02 -0.19105172314E+02 -0.18096974193E+02  0.95633435781E+02  0.90983871449E+02 0.  0.
         11    1    3    3    0    0 -0.10121090439E+02  0.17428233014E+02 -0.41663166821E+02  0.46281737732E+02  0.51100000000E-03 0. -1.
         22    1    1    0    0    0 -0.13235599400E+02  0.19105172314E+02  0.18096974193E+02  0.29456564219E+02  0.00000000000E+00 0.  1.
</event>
<event>
 5    1  0.1047411E-009  0.9118800E+02  0.7815553E-02  0.1125453E+00
         25   -1    0    0    0    0  0.00000000000E+00  0.00000000000E+00  0.99999998245E-14  0.12509000000E+03  0.12509000000E+03 0.  0.
        -11    1    3    3    0    0  0.17437031355E+02  0.10735327953E+02 -0.29364834261E+02  0.35799313124E+02  0.51100000000E-03 0.  1.
         23    2    1    0    0    0  0.21066035526E+01 -0.25430238136E+02  0.15345472269E+02  0.95313863425E+02  0.90543438479E+02 0.  0.
         11    1    3    3    0    0 -0.15330427803E+02 -0.36165566089E+02  0.44710306530E+02  0.59514550300E+02  0.51100000000E-03 0. -1.
         22    1    1    0    0    0 -0.21066035526E+01  0.25430238136E+02 -0.15345472269E+02  0.29776136575E+02  0.00000000000E+00 0. -1.
</event>
<event>
 5    1  0.1047411E-009  0.9118800E+02  0.7815553E-02  0.1125453E+00
         25   -1    0    0    0    0  0.00000000000E+00  0.00000000000E+00  0.99999998245E-14  0.12509000000E+03  0.12509000000E+03 0.  0.
        -11    1    3    3    0    0  0.17837832424E+02 -0.50013631192E+02  0.32659930784E+02  0.62339575308E+02  0.51100000000E-03 0.  1.
         23    2    1    0    0    0  0.46315853412E+01 -0.23566223326E+02  0.14962425915E+02  0.96793486896E+02  0.92565039035E+02 0.  0.
         11    1    3    3    0    0 -0.13206247082E+02  0.26447407866E+02 -0.17697504869E+02  0.34453911587E+02  0.51100000000E-03 0. -1.
         22    1    1    0    0    0 -0.46315853412E+01  0.23566223326E+02 -0.14962425915E+02  0.28296513104E+02  0.00000000000E+00 0.  1.
</event>
<event>
 5    1  0.1047411E-009  0.9118800E+02  0.7815553E-02  0.1125453E+00
         25   -1    0    0    0    0  0.00000000000E+00  0.00000000000E+00  0.99999998245E-14  0.12509000000E+03  0.12509000000E+03 0.  0.
        -11    1    3    3    0    0 -0.29447787650E+01 -0.28855684252E+02 -0.27985215956E+02  0.40305018894E+02  0.51100000000E-03 0.  1.
         23    2    1    0    0    0 -0.29416818629E+01  0.25218958981E+02 -0.43037538783E+01  0.99337880054E+02  0.95941871631E+02 0.  0.
         11    1    3    3    0    0  0.30969021181E-02  0.54074643233E+02  0.23681462078E+02  0.59032861160E+02  0.51100000000E-03 0. -1.
         22    1    1    0    0    0  0.29416818629E+01 -0.25218958981E+02  0.43037538783E+01  0.25752119946E+02  0.00000000000E+00 0. -1.
</event>
<event>
 5    1  0.1047411E-009  0.9118800E+02  0.7815553E-02  0.1125453E+00
         25   -1    0    0    0    0  0.00000000000E+00  0.00000000000E+00  0.99999998245E-14  0.12509000000E+03  0.12509000000E+03 0.  0.
        -11    1    3    3    0    0 -0.45809354112E+02 -0.25293108461E+02 -0.23436759260E+02  0.57336898631E+02  0.51100000000E-03 0.  1.
         23    2    1    0    0    0 -0.15683306450E+02 -0.19921983916E+02  0.51550637699E+01  0.99216727559E+02  0.95783781511E+02 0.  0.
         11    1    3    3    0    0  0.30126047661E+02  0.53711245452E+01  0.28591823030E+02  0.41879828928E+02  0.51100000000E-03 0. -1.
         22    1    1    0    0    0  0.15683306450E+02  0.19921983916E+02 -0.51550637699E+01  0.25873272441E+02  0.00000000000E+00 0.  1.
</event>
<event>
 5    1  0.1047411E-009  0.9118800E+02  0.7815553E-02  0.1125453E+00
         25   -1    0    0    0    0  0.00000000000E+00  0.00000000000E+00  0.99999998245E-14  0.12509000000E+03  0.12509000000E+03 0.  0.
        -11    1    3    3    0    0  0.11723456669E+02 -0.37035290337E+02 -0.38948627275E+02  0.55009524025E+02  0.51100000000E-03 0.  1.
         23    2    1    0    0    0 -0.68506729469E+01 -0.23854474372E+02 -0.40229016662E+02  0.77821178891E+02  0.61820663496E+02 0.  0.
         11    1    3    3    0    0 -0.18574129616E+02  0.13180815965E+02 -0.12803893873E+01  0.22811654866E+02  0.51100000000E-03 0. -1.
         22    1    1    0    0    0  0.68506729469E+01  0.23854474372E+02  0.40229016662E+02  0.47268821109E+02  0.00000000000E+00 0.  1.
</event>
<event>
 5    1  0.1047411E-009  0.9118800E+02  0.7815553E-02  0.1125453E+00
         25   -1    0    0    0    0  0.00000000000E+00  0.00000000000E+00  0.99999998245E-14  0.12509000000E+03  0.12509000000E+03 0.  0.
        -11    1    3    3    0    0  0.31513769343E+02 -0.26204107645E+02  0.28866722583E+02  0.50130435752E+02  0.51100000000E-03 0. -1.
         23    2    1    0    0    0  0.27495898771E+02  0.12359548978E+01 -0.81515020632E+01  0.96384616887E+02  0.92010843670E+02 0.  0.
         11    1    3    3    0    0 -0.40178705721E+01  0.27440062543E+02 -0.37018224646E+02  0.46254181136E+02  0.51100000000E-03 0.  1.
         22    1    1    0    0    0 -0.27495898771E+02 -0.12359548978E+01  0.81515020632E+01  0.28705383113E+02  0.00000000000E+00 0.  1.
</event>
<event>
 5    1  0.1047411E-009  0.9118800E+02  0.7815553E-02  0.1125453E+00
         25   -1    0    0    0    0  0.00000000000E+00  0.00000000000E+00  0.99999998245E-14  0.12509000000E+03  0.12509000000E+03 0.  0.
        -11    1    3    3    0    0 -0.19935376562E+02  0.99493573235E+01  0.36023906850E+02  0.42357181384E+02  0.51100000000E-03 0.  1.
         23    2    1    0    0    0 -0.25563661596E+02  0.28090318216E+01 -0.15756317688E+02  0.94929545742E+02  0.90010919636E+02 0.  0.
         11    1    3    3    0    0 -0.56282850338E+01 -0.71403255019E+01 -0.51780224538E+02  0.52572364358E+02  0.51100000000E-03 0. -1.
         22    1    1    0    0    0  0.25563661596E+02 -0.28090318216E+01  0.15756317688E+02  0.30160454258E+02  0.00000000000E+00 0. -1.
</event>
<event>
 5    1  0.1047411E-009  0.9118800E+02  0.7815553E-02  0.1125453E+00
         25   -1    0    0    0    0  0.00000000000E+00  0.00000000000E+00  0.99999998245E-14  0.12509000000E+03  0.12509000000E+03 0.  0.
        -11    1    3    3    0    0  0.44755848738E+02 -0.42923025456E+02  0.65906182311E+01  0.62361112558E+02  0.51100000000E-03 0.  1.
         23    2    1    0    0    0  0.18469555084E+02 -0.21332822859E+02  0.83851398706E+00  0.96860283355E+02  0.92655262073E+02 0.  0.
         11    1    3    3    0    0 -0.26286293654E+02  0.21590202597E+02 -0.57521042440E+01  0.34499170798E+02  0.51100000000E-03 0. -1.
         22    1    1    0    0    0 -0.18469555084E+02  0.21332822859E+02 -0.83851398706E+00  0.28229716645E+02  0.00000000000E+00 0.  1.
</event>
<event>
 5    1  0.1047411E-009  0.9118800E+02  0.7815553E-02  0.1125453E+00
         25   -1    0    0    0    0  0.00000000000E+00  0.00000000000E+00  0.99999998245E-14  0.12509000000E+03  0.12509000000E+03 0.  0.
        -11    1    3    3    0    0 -0.44682740013E+02  0.11354787822E+02  0.85504901264E+01  0.46889117535E+02  0.51100000000E-03 0.  1.
         23    2    1    0    0    0 -0.76411884106E+01 -0.13476406398E+02  0.26039642612E+02  0.94790424474E+02  0.89817371899E+02 0.  0.
         11    1    3    3    0    0  0.37041551602E+02 -0.24831194219E+02  0.17489152486E+02  0.47901306938E+02  0.51100000000E-03 0. -1.
         22    1    1    0    0    0  0.76411884106E+01  0.13476406398E+02 -0.26039642612E+02  0.30299575526E+02  0.00000000000E+00 0. -1.
</event>
<event>
 5    1  0.1047411E-009  0.9118800E+02  0.7815553E-02  0.1125453E+00
         25   -1    0    0    0    0  0.00000000000E+00  0.00000000000E+00  0.99999998245E-14  0.12509000000E+03  0.12509000000E+03 0.  0.
        -11    1    3    3    0    0 -0.92256022594E+00 -0.29450529048E+02  0.19080556582E+02  0.35103453083E+02  0.51100000000E-03 0. -1.
         23    2    1    0    0    0  0.17390100121E+02  0.16804114911E+02 -0.16103864644E+02  0.96036113570E+02  0.91535822458E+02 0.  0.
         11    1    3    3    0    0  0.18312660347E+02  0.46254643960E+02 -0.35184421226E+02  0.60932660488E+02  0.51100000000E-03 0.  1.
         22    1    1    0    0    0 -0.17390100121E+02 -0.16804114911E+02  0.16103864644E+02  0.29053886430E+02  0.00000000000E+00 0.  1.
</event>
<event>
 5    1  0.1047411E-009  0.9118800E+02  0.7815553E-02  0.1125453E+00
         25   -1    0    0    0    0  0.00000000000E+00  0.00000000000E+00  0.99999998245E-14  0.12509000000E+03  0.12509000000E+03 0.  0.
        -11    1    3    3    0    0  0.34405603262E+02  0.42176595693E+02 -0.21713599129E+02  0.58601118995E+02  0.51100000000E-03 0. -1.
         23    2    1    0    0    0  0.20630701212E+02  0.11627871487E+02 -0.22919255036E+02  0.92133582124E+02  0.86037616633E+02 0.  0.
         11    1    3    3    0    0 -0.13774902050E+02 -0.30548724206E+02 -0.12056559066E+01  0.33532463130E+02  0.51100000000E-03 0.  1.
         22    1    1    0    0    0 -0.20630701212E+02 -0.11627871487E+02  0.22919255036E+02  0.32956417876E+02  0.00000000000E+00 0. -1.
</event>
<event>
 5    1  0.1047411E-009  0.9118800E+02  0.7815553E-02  0.1125453E+00
         25   -1    0    0    0    0  0.00000000000E+00  0.00000000000E+00  0.99999998245E-14  0.12509000000E+03  0.12509000000E+03 0.  0.
        -11    1    3    3    0    0 -0.68039999212E+01 -0.12171222602E+02 -0.59476118087E+02  0.61088801736E+02  0.51100000000E-03 0.  1.
         23    2    1    0    0    0 -0.12284609586E+02 -0.34124749007E+01 -0.25845129166E+02  0.96271129113E+02  0.91856425913E+02 0.  0.
         11    1    3    3    0    0 -0.54806096643E+01  0.87587477016E+01  0.33630988921E+02  0.35182327377E+02  0.51100000000E-03 0. -1.
         22    1    1    0    0    0  0.12284609586E+02  0.34124749007E+01  0.25845129166E+02  0.28818870887E+02  0.00000000000E+00 0.  1.
</event>
<event>
 5    1  0.1047411E-009  0.9118800E+02  0.7815553E-02  0.1125453E+00
         25   -1    0    0    0    0  0.00000000000E+00  0.00000000000E+00  0.99999998245E-14  0.12509000000E+03  0.12509000000E+03 0.  0.
        -11    1    3    3    0    0 -0.16114899504E+02 -0.18779123375E+01 -0.41057094575E+02  0.44146365150E+02  0.51100000000E-03 0.  1.
         23    2    1    0    0    0  0.12927928928E+02 -0.25673703898E+02 -0.55678093339E+01  0.95810810821E+02  0.91227411183E+02 0.  0.
         11    1    3    3    0    0  0.29042828432E+02 -0.23795791561E+02  0.35489285241E+02  0.51664445671E+02  0.51100000000E-03 0. -1.
         22    1    1    0    0    0 -0.12927928928E+02  0.25673703898E+02  0.55678093339E+01  0.29279189179E+02  0.00000000000E+00 0. -1.
</event>
<event>
 5    1  0.1047411E-009  0.9118800E+02  0.7815553E-02  0.1125453E+00
         25   -1    0    0    0    0  0.00000000000E+00  0.00000000000E+00  0.99999998245E-14  0.12509000000E+03  0.12509000000E+03 0.  0.
        -11    1    3    3    0    0  0.46430465920E+02 -0.34338970422E+02  0.16280464965E+02  0.60000054958E+02  0.51100000000E-03 0. -1.
         23    2    1    0    0    0  0.27705596963E+02 -0.49750054700E+01  0.85158975991E+01  0.95681305802E+02  0.91049662193E+02 0.  0.
         11    1    3    3    0    0 -0.18724868957E+02  0.29363964952E+02 -0.77645673658E+01  0.35681250844E+02  0.51100000000E-03 0.  1.
         22    1    1    0    0    0 -0.27705596963E+02  0.49750054700E+01 -0.85158975991E+01  0.29408694198E+02  0.00000000000E+00 0. -1.
</event>
<event>
 5    1  0.1047411E-009  0.9118800E+02  0.7815553E-02  0.1125453E+00
         25   -1    0    0    0    0  0.00000000000E+00  0.00000000000E+00  0.99999998245E-14  0.12509000000E+03  0.12509000000E+03 0.  0.
        -11    1    3    3    0    0  0.19962499327E+02 -0.11001612767E+01  0.38785822871E+02  0.43635441905E+02  0.51100000000E-03 0.  1.
         23    2    1    0    0    0 -0.17963809044E+02 -0.20460739053E+02  0.64358487213E+01  0.97112143993E+02  0.92994666967E+02 0.  0.
         11    1    3    3    0    0 -0.37926308371E+02 -0.19360577776E+02 -0.32349974149E+02  0.53476702088E+02  0.51100000000E-03 0. -1.
         22    1    1    0    0    0  0.17963809044E+02  0.20460739053E+02 -0.64358487213E+01  0.27977856007E+02  0.00000000000E+00 0. -1.
</event>
<event>
 5    1  0.1047411E-009  0.9118800E+02  0.7815553E-02  0.1125453E+00
         25   -1    0    0    0    0  0.00000000000E+00  0.00000000000E+00  0.99999998245E-14  0.12509000000E+03  0.12509000000E+03 0.  0.
        -11    1    3    3    0    0 -0.26895053335E+02 -0.16926928767E+02  0.29189076057E+02  0.43149356573E+02  0.51100000000E-03 0.  1.
         23    2    1    0    0    0  0.91674340614E+01 -0.17053269211E+02 -0.15295922670E+02  0.10041569984E+03  0.97337000600E+02 0.  0.
         11    1    3    3    0    0  0.36062487396E+02 -0.12634044466E+00 -0.44484998727E+02  0.57266343267E+02  0.51100000000E-03 0. -1.
         22    1    1    0    0    0 -0.91674340614E+01  0.17053269211E+02  0.15295922670E+02  0.24674300160E+02  0.00000000000E+00 0. -1.
</event>
<event>
 5    1  0.1047411E-009  0.9118800E+02  0.7815553E-02  0.1125453E+00
         25   -1    0    0    0    0  0.00000000000E+00  0.00000000000E+00  0.99999998245E-14  0.12509000000E+03  0.12509000000E+03 0.  0.
        -11    1    3    3    0    0  0.38822547889E+02 -0.32505788376E+02  0.20579304990E+02  0.54656420452E+02  0.51100000000E-03 0. -1.
         23    2    1    0    0    0  0.20480788456E+02  0.30928071839E+01  0.22190329934E+02  0.94734788015E+02  0.89739852717E+02 0.  0.
         11    1    3    3    0    0 -0.18341759433E+02  0.35598595560E+02  0.16110249446E+01  0.40078367563E+02  0.51100000000E-03 0.  1.
         22    1    1    0    0    0 -0.20480788456E+02 -0.30928071839E+01 -0.22190329934E+02  0.30355211985E+02  0.00000000000E+00 0. -1.
</event>
<event>
 5    1  0.1047411E-009  0.9118800E+02  0.7815553E-02  0.1125453E+00
         25   -1    0    0    0    0  0.00000000000E+00  0.00000000000E+00  0.99999998245E-14  0.12509000000E+03  0.12509000000E+03 0.  0.
        -11    1    3    3    0    0 -0.31967477124E+02  0.23763894486E+02  0.43167005579E+02  0.58736978521E+02  0.51100000000E-03 0. -1.
         23    2    1    0    0    0 -0.16240798039E+02  0.27542784218E+02  0.37344082541E+02  0.75927524632E+02  0.57862250323E+02 0.  0.
         11    1    3    3    0    0  0.15726679085E+02  0.37788897323E+01 -0.58229230376E+01  0.17190546112E+02  0.51100000000E-03 0.  1.
         22    1    1    0    0    0  0.16240798039E+02 -0.27542784218E+02 -0.37344082541E+02  0.49162475368E+02  0.00000000000E+00 0. -1.
</event>
<event>
 5    1  0.1047411E-009  0.9118800E+02  0.7815553E-02  0.1125453E+00
         25   -1    0    0    0    0  0.00000000000E+00  0.00000000000E+00  0.99999998245E-14  0.12509000000E+03  0.12509000000E+03 0.  0.
        -11    1    3    3    0    0 -0.61683764957E+00 -0.56728011399E+02  0.15106623687E+02  0.58708243420E+02  0.51100000000E-03 0.  1.
         23    2    1    0    0    0 -0.71563483169E+01 -0.20784687818E+02  0.19754002047E+02  0.95536029610E+02  0.90849852988E+02 0.  0.
         11    1    3    3    0    0 -0.65395106673E+01  0.35943323581E+02  0.46473783605E+01  0.36827786191E+02  0.51100000000E-03 0. -1.
         22    1    1    0    0    0  0.71563483169E+01  0.20784687818E+02 -0.19754002047E+02  0.29553970390E+02  0.00000000000E+00 0.  1.
</event>
<event>
 5    1  0.1047411E-009  0.9118800E+02  0.7815553E-02  0.1125453E+00
         25   -1    0    0    0    0  0.00000000000E+00  0.00000000000E+00  0.99999998245E-14  0.12509000000E+03  0.12509000000E+03 0.  0.
        -11    1    3    3    0    0  0.32919255201E+02  0.17360633260E+02 -0.24652818621E+02  0.44641129202E+02  0.51100000000E-03 0. -1.
         23    2    1    0    0    0  0.20740581368E+02 -0.14336269466E+02  0.14129239725E+02  0.96187824427E+02  0.91742911525E+02 0.  0.
         11    1    3    3    0    0 -0.12178673834E+02 -0.31696902726E+02  0.38782058346E+02  0.51546695225E+02  0.51100000000E-03 0.  1.
         22    1    1    0    0    0 -0.20740581368E+02  0.14336269466E+02 -0.14129239725E+02  0.28902175573E+02  0.00000000000E+00 0.  1.
</event>
<event>
 5    1  0.1047411E-009  0.9118800E+02  0.7815553E-02  0.1125453E+00
         25   -1    0    0    0    0  0.00000000000E+00  0.00000000000E+00  0.99999998245E-14  0.12509000000E+03  0.12509000000E+03 0.  0.
        -11    1    3    3    0    0  0.33163339197E+02  0.27399169775E+02 -0.16186404770E+02  0.45962172171E+02  0.51100000000E-03 0. -1.
         23    2    1    0    0    0 -0.79312788189E+01  0.69973779599E-01 -0.27393804102E+02  0.96571048701E+02  0.92263952137E+02 0.  0.
         11    1    3    3    0    0 -0.41094618016E+02 -0.27329195995E+02 -0.11207399332E+02  0.50608876530E+02  0.51100000000E-03 0.  1.
         22    1    1    0    0    0  0.79312788189E+01 -0.69973779599E-01  0.27393804102E+02  0.28518951299E+02  0.00000000000E+00 0. -1.
</event>
<event>
 5    1  0.1047411E-009  0.9118800E+02  0.7815553E-02  0.1125453E+00
         25   -1    0    0    0    0  0.00000000000E+00  0.00000000000E+00  0.99999998245E-14  0.12509000000E+03  0.12509000000E+03 0.  0.
        -11    1    3    3    0    0  0.29701081368E+02 -0.12644736924E+02 -0.24745527603E+02  0.40674128668E+02  0.51100000000E-03 0.  1.
         23    2    1    0    0    0 -0.23314194203E+01  0.28202862410E+02 -0.13255997995E+02  0.93840064840E+02  0.88483893008E+02 0.  0.
         11    1    3    3    0    0 -0.32032500788E+02  0.40847599335E+02  0.11489529609E+02  0.53165936172E+02  0.51100000000E-03 0. -1.
         22    1    1    0    0    0  0.23314194203E+01 -0.28202862410E+02  0.13255997995E+02  0.31249935160E+02  0.00000000000E+00 0. -1.
</event>
<event>
 5    1  0.1047411E-009  0.9118800E+02  0.7815553E-02  0.1125453E+00
         25   -1    0    0    0    0  0.00000000000E+00  0.00000000000E+00  0.99999998245E-14  0.12509000000E+03  0.12509000000E+03 0.  0.
        -11    1    3    3    0    0 -0.34535525044E+02 -0.13963688956E+02 -0.19516036274E+02  0.42054283628E+02  0.51100000000E-03 0.  1.
         23    2    1    0    0    0  0.12974345232E+02  0.98163562454E+01 -0.24783313787E+02  0.95443632155E+02  0.90722542912E+02 0.  0.
         11    1    3    3    0    0  0.47509870276E+02  0.23780045202E+02 -0.52672775137E+01  0.53389348527E+02  0.51100000000E-03 0. -1.
         22    1    1    0    0    0 -0.12974345232E+02 -0.98163562454E+01  0.24783313787E+02  0.29646367845E+02  0.00000000000E+00 0. -1.
</event>
<event>
 5    1  0.1047411E-009  0.9118800E+02  0.7815553E-02  0.1125453E+00
         25   -1    0    0    0    0  0.00000000000E+00  0.00000000000E+00  0.99999998245E-14  0.12509000000E+03  0.12509000000E+03 0.  0.
        -11    1    3    3    0    0 -0.19631746586E+02 -0.10109058322E+02 -0.23089500352E+02  0.31948764623E+02  0.51100000000E-03 0. -1.
         23    2    1    0    0    0 -0.11115313586E+01  0.24964047825E+02  0.21855657218E+02  0.91891973881E+02  0.85685622630E+02 0.  0.
         11    1    3    3    0    0  0.18520215228E+02  0.35073106147E+02  0.44945157570E+02  0.59943209258E+02  0.51100000000E-03 0.  1.
         22    1    1    0    0    0  0.11115313586E+01 -0.24964047825E+02 -0.21855657218E+02  0.33198026119E+02  0.00000000000E+00 0.  1.
</event>
<event>
 5    1  0.1047411E-009  0.9118800E+02  0.7815553E-02  0.1125453E+00
         25   -1    0    0    0    0  0.00000000000E+00  0.00000000000E+00  0.99999998245E-14  0.12509000000E+03  0.12509000000E+03 0.  0.
        -11    1    3    3    0    0 -0.37944193825E+00 -0.50017840300E+02 -0.49891081566E+01  0.50267479795E+02  0.51100000000E-03 0.  1.
         23    2    1    0    0    0 -0.25744433897E+02 -0.13872567732E+02 -0.86965390978E+01  0.94580103172E+02  0.89523975066E+02 0.  0.
         11    1    3    3    0    0 -0.25364991959E+02  0.36145272568E+02 -0.37074309413E+01  0.44312623377E+02  0.51100000000E-03 0. -1.
         22    1    1    0    0    0  0.25744433897E+02  0.13872567732E+02  0.86965390978E+01  0.30509896828E+02  0.00000000000E+00 0.  1.
</event>
<event>
 5    1  0.1047411E-009  0.9118800E+02  0.7815553E-02  0.1125453E+00
         25   -1    0    0    0    0  0.00000000000E+00  0.00000000000E+00  0.99999998245E-14  0.12509000000E+03  0.12509000000E+03 0.  0.
        -11    1    3    3    0    0  0.10157487751E+02 -0.38876477572E+01 -0.57879731464E+02  0.58892713276E+02  0.51100000000E-03 0.  1.
         23    2    1    0    0    0  0.46967598607E+01  0.13258601639E+02 -0.27484884347E+02  0.94214946346E+02  0.89012286662E+02 0.  0.
         11    1    3    3    0    0 -0.54607278906E+01  0.17146249397E+02  0.30394847117E+02  0.35322233069E+02  0.51100000000E-03 0. -1.
         22    1    1    0    0    0 -0.46967598607E+01 -0.13258601639E+02  0.27484884347E+02  0.30875053654E+02  0.00000000000E+00 0.  1.
</event>
<event>
 5    1  0.1047411E-009  0.9118800E+02  0.7815553E-02  0.1125453E+00
         25   -1    0    0    0    0  0.00000000000E+00  0.00000000000E+00  0.99999998245E-14  0.12509000000E+03  0.12509000000E+03 0.  0.
        -11    1    3    3    0    0  0.25160655444E+01  0.60676468862E+02  0.74260317041E+01  0.61180964413E+02  0.51100000000E-03 0. -1.
         23    2    1    0    0    0 -0.76183396725E+01  0.29379194935E+02  0.62686548552E+01  0.94098513619E+02  0.88848511733E+02 0.  0.
         11    1    3    3    0    0 -0.10134405217E+02 -0.31297273926E+02 -0.11573768489E+01  0.32917549206E+02  0.51100000000E-03 0.  1.
         22    1    1    0    0    0  0.76183396725E+01 -0.29379194935E+02 -0.62686548552E+01  0.30991486381E+02  0.00000000000E+00 0. -1.
</event>
<event>
 5    1  0.1047411E-009  0.9118800E+02  0.7815553E-02  0.1125453E+00
         25   -1    0    0    0    0  0.00000000000E+00  0.00000000000E+00  0.99999998245E-14  0.12509000000E+03  0.12509000000E+03 0.  0.
        -11    1    3    3    0    0 -0.23625805907E+02 -0.34041761602E+02  0.19348634517E+02  0.45731716517E+02  0.51100000000E-03 0. -1.
         23    2    1    0    0    0  0.12436122054E+02  0.90576875325E+00  0.25870942788E+02  0.96370960505E+02  0.91992275758E+02 0.  0.
         11    1    3    3    0    0  0.36061927961E+02  0.34947530355E+02  0.65223082709E+01  0.50639243988E+02  0.51100000000E-03 0.  1.
         22    1    1    0    0    0 -0.12436122054E+02 -0.90576875325E+00 -0.25870942788E+02  0.28719039495E+02  0.00000000000E+00 0.  1.
</event>
<event>
 5    1  0.1047411E-009  0.9118800E+02  0.7815553E-02  0.1125453E+00
         25   -1    0    0    0    0  0.00000000000E+00  0.00000000000E+00  0.99999998245E-14  0.12509000000E+03  0.12509000000E+03 0.  0.
        -11    1    3    3    0    0 -0.28262248343E+02 -0.42864664518E+02 -0.33626939520E+02  0.61375118797E+02  0.51100000000E-03 0. -1.
         23    2    1    0    0    0 -0.15115649994E+02 -0.13244964596E+02 -0.20625226044E+02  0.96292223849E+02  0.91885148215E+02 0.  0.
         11    1    3    3    0    0  0.13146598349E+02  0.29619699922E+02  0.13001713476E+02  0.34917105052E+02  0.51100000000E-03 0.  1.
         22    1    1    0    0    0  0.15115649994E+02  0.13244964596E+02  0.20625226044E+02  0.28797776151E+02  0.00000000000E+00 0. -1.
</event>
<event>
 5    1  0.1047411E-009  0.9118800E+02  0.7815553E-02  0.1125453E+00
         25   -1    0    0    0    0  0.00000000000E+00  0.00000000000E+00  0.99999998245E-14  0.12509000000E+03  0.12509000000E+03 0.  0.
        -11    1    3    3    0    0  0.43936622879E+02 -0.16374048673E+01 -0.19198574122E+02  0.47975964538E+02  0.51100000000E-03 0. -1.
         23    2    1    0    0    0  0.75532743570E+01 -0.27741272618E+02 -0.97170980653E+00  0.96322407471E+02  0.91926230212E+02 0.  0.
         11    1    3    3    0    0 -0.36383348522E+02 -0.26103867751E+02  0.18226864316E+02  0.48346442933E+02  0.51100000000E-03 0.  1.
         22    1    1    0    0    0 -0.75532743570E+01  0.27741272618E+02  0.97170980653E+00  0.28767592529E+02  0.00000000000E+00 0.  1.
</event>
<event>
 5    1  0.1047411E-009  0.9118800E+02  0.7815553E-02  0.1125453E+00
         25   -1    0    0    0    0  0.00000000000E+00  0.00000000000E+00  0.99999998245E-14  0.12509000000E+03  0.12509000000E+03 0.  0.
        -11    1    3    3    0    0 -0.13376118927E+02  0.38968523527E+02 -0.11581491258E+02  0.42797164900E+02  0.51100000000E-03 0.  1.
         23    2    1    0    0    0  0.19402401621E+02 -0.22424772547E+01 -0.21132911539E+02  0.96313588775E+02  0.91914229255E+02 0.  0.
         11    1    3    3    0    0  0.32778520548E+02 -0.41211000782E+02 -0.95514202814E+01  0.53516423875E+02  0.51100000000E-03 0. -1.
         22    1    1    0    0    0 -0.19402401621E+02  0.22424772547E+01  0.21132911539E+02  0.28776411225E+02  0.00000000000E+00 0. -1.
</event>
<event>
 5    1  0.1047411E-009  0.9118800E+02  0.7815553E-02  0.1125453E+00
         25   -1    0    0    0    0  0.00000000000E+00  0.00000000000E+00  0.99999998245E-14  0.12509000000E+03  0.12509000000E+03 0.  0.
        -11    1    3    3    0    0  0.99028989371E+01  0.51382378479E+01 -0.32973882525E+02  0.34810139681E+02  0.51100000000E-03 0.  1.
         23    2    1    0    0    0 -0.49940882369E+01  0.86595954529E+01  0.26786033113E+02  0.96499423220E+02  0.92166792290E+02 0.  0.
         11    1    3    3    0    0 -0.14896987174E+02  0.35213576050E+01  0.59759915638E+02  0.61689283539E+02  0.51100000000E-03 0. -1.
         22    1    1    0    0    0  0.49940882369E+01 -0.86595954529E+01 -0.26786033113E+02  0.28590576780E+02  0.00000000000E+00 0. -1.
</event>
<event>
 5    1  0.1047411E-009  0.9118800E+02  0.7815553E-02  0.1125453E+00
         25   -1    0    0    0    0  0.00000000000E+00  0.00000000000E+00  0.99999998245E-14  0.12509000000E+03  0.12509000000E+03 0.  0.
        -11    1    3    3    0    0 -0.33218521373E+02 -0.45729908313E+02  0.21012011819E+02  0.60300906440E+02  0.51100000000E-03 0. -1.
         23    2    1    0    0    0 -0.56450837899E+01 -0.27862121954E+02  0.94592673595E+01  0.95129316600E+02  0.90288118416E+02 0.  0.
         11    1    3    3    0    0  0.27573437583E+02  0.17867786359E+02 -0.11552744459E+02  0.34828410161E+02  0.51100000000E-03 0.  1.
         22    1    1    0    0    0  0.56450837899E+01  0.27862121954E+02 -0.94592673595E+01  0.29960683400E+02  0.00000000000E+00 0. -1.
</event>
<event>
 5    1  0.1047411E-009  0.9118800E+02  0.7815553E-02  0.1125453E+00
         25   -1    0    0    0    0  0.00000000000E+00  0.00000000000E+00  0.99999998245E-14  0.12509000000E+03  0.12509000000E+03 0.  0.
        -11    1    3    3    0    0 -0.37216170051E+02 -0.28164061794E+02  0.36363788156E+02  0.59165723010E+02  0.51100000000E-03 0. -1.
         23    2    1    0    0    0 -0.16961294253E+02 -0.12445468982E+02  0.34254887346E+02  0.84890839461E+02  0.74769526657E+02 0.  0.
         11    1    3    3    0    0  0.20254875797E+02  0.15718592812E+02 -0.21089008099E+01  0.25725116452E+02  0.51100000000E-03 0.  1.
         22    1    1    0    0    0  0.16961294253E+02  0.12445468982E+02 -0.34254887346E+02  0.40199160539E+02  0.00000000000E+00 0. -1.
</event>
<event>
 5    1  0.1047411E-009  0.9118800E+02  0.7815553E-02  0.1125453E+00
         25   -1    0    0    0    0  0.00000000000E+00  0.00000000000E+00  0.99999998245E-14  0.12509000000E+03  0.12509000000E+03 0.  0.
        -11    1    3    3    0    0  0.34245341787E+02 -0.11271095487E+02  0.16038235600E+02  0.39458915710E+02  0.51100000000E-03 0. -1.
         23    2    1    0    0    0 -0.20208308085E+02 -0.13276875052E+02  0.19453347471E+02  0.94056407643E+02  0.88789210854E+02 0.  0.
         11    1    3    3    0    0 -0.54453649872E+02 -0.20057795642E+01  0.34151118712E+01  0.54597491933E+02  0.51100000000E-03 0.  1.
         22    1    1    0    0    0  0.20208308085E+02  0.13276875052E+02 -0.19453347471E+02  0.31033592357E+02  0.00000000000E+00 0.  1.
</event>
<event>
 5    1  0.1047411E-009  0.9118800E+02  0.7815553E-02  0.1125453E+00
         25   -1    0    0    0    0  0.00000000000E+00  0.00000000000E+00  0.99999998245E-14  0.12509000000E+03  0.12509000000E+03 0.  0.
        -11    1    3    3    0    0 -0.46609084944E+02  0.57180801802E+01  0.25915929202E+02  0.53635236803E+02  0.51100000000E-03 0.  1.
         23    2    1    0    0    0 -0.27659854585E+02 -0.64827154035E-01 -0.10832897055E+02  0.95384387452E+02  0.90640818359E+02 0.  0.
         11    1    3    3    0    0  0.18949230359E+02 -0.57829073342E+01 -0.36748826257E+02  0.41749150649E+02  0.51100000000E-03 0. -1.
         22    1    1    0    0    0  0.27659854585E+02  0.64827154035E-01  0.10832897055E+02  0.29705612548E+02  0.00000000000E+00 0.  1.
</event>
<event>
 5    1  0.1047411E-009  0.9118800E+02  0.7815553E-02  0.1125453E+00
         25   -1    0    0    0    0  0.00000000000E+00  0.00000000000E+00  0.99999998245E-14  0.12509000000E+03  0.12509000000E+03 0.  0.
        -11    1    3    3    0    0  0.26834206595E+02 -0.23738849584E+02 -0.47038677234E+02  0.59129051906E+02  0.51100000000E-03 0.  1.
         23    2    1    0    0    0  0.24251876071E+02 -0.33058640263E+01 -0.18099981061E+02  0.94648391233E+02  0.89619341766E+02 0.  0.
         11    1    3    3    0    0 -0.25823305239E+01  0.20432985558E+02  0.28938696173E+02  0.35519339326E+02  0.51100000000E-03 0. -1.
         22    1    1    0    0    0 -0.24251876071E+02  0.33058640263E+01  0.18099981061E+02  0.30441608767E+02  0.00000000000E+00 0.  1.
</event>
<event>
 5    1  0.1047411E-009  0.9118800E+02  0.7815553E-02  0.1125453E+00
         25   -1    0    0    0    0  0.00000000000E+00  0.00000000000E+00  0.99999998245E-14  0.12509000000E+03  0.12509000000E+03 0.  0.
        -11    1    3    3    0    0  0.17356986747E+02 -0.25510024057E+01 -0.31362166247E+02  0.35935470975E+02  0.51100000000E-03 0. -1.
         23    2    1    0    0    0 -0.25868492021E+02  0.98040285900E+01  0.86355946028E+01  0.96109466013E+02  0.91636008791E+02 0.  0.
         11    1    3    3    0    0 -0.43225478768E+02  0.12355030996E+02  0.39997760850E+02  0.60173995038E+02  0.51100000000E-03 0.  1.
         22    1    1    0    0    0  0.25868492021E+02 -0.98040285900E+01 -0.86355946028E+01  0.28980533987E+02  0.00000000000E+00 0.  1.
</event>
<event>
 5    1  0.1047411E-009  0.9118800E+02  0.7815553E-02  0.1125453E+00
         25   -1    0    0    0    0  0.00000000000E+00  0.00000000000E+00  0.99999998245E-14  0.12509000000E+03  0.12509000000E+03 0.  0.
        -11    1    3    3    0    0  0.14809823064E+02 -0.17793631068E+02 -0.34090994482E+02  0.41208495129E+02  0.51100000000E-03 0.  1.
         23    2    1    0    0    0 -0.20429598444E+02  0.17401691139E+02 -0.12037910679E+02  0.95677440767E+02  0.91044352000E+02 0.  0.
         11    1    3    3    0    0 -0.35239421508E+02  0.35195322208E+02  0.22053083802E+02  0.54468945638E+02  0.51100000000E-03 0. -1.
         22    1    1    0    0    0  0.20429598444E+02 -0.17401691139E+02  0.12037910679E+02  0.29412559233E+02  0.00000000000E+00 0. -1.
</event>
<event>
 5    1  0.1047411E-009  0.9118800E+02  0.7815553E-02  0.1125453E+00
         25   -1    0    0    0    0  0.00000000000E+00  0.00000000000E+00  0.99999998245E-14  0.12509000000E+03  0.12509000000E+03 0.  0.
        -11    1    3    3    0    0 -0.51146062882E+02 -0.15340478778E+01  0.13208460248E+02  0.52846347779E+02  0.51100000000E-03 0.  1.
         23    2    1    0    0    0 -0.37862314718E+02 -0.25022861003E+01  0.31707443618E+02  0.75641255907E+02  0.57240032345E+02 0.  0.
         11    1    3    3    0    0  0.13283748164E+02 -0.96823822245E+00  0.18498983371E+02  0.22794908128E+02  0.51100000000E-03 0. -1.
         22    1    1    0    0    0  0.37862314718E+02  0.25022861003E+01 -0.31707443618E+02  0.49448744093E+02  0.00000000000E+00 0.  1.
</event>
<event>
 5    1  0.1047411E-009  0.9118800E+02  0.7815553E-02  0.1125453E+00
         25   -1    0    0    0    0  0.00000000000E+00  0.00000000000E+00  0.99999998245E-14  0.12509000000E+03  0.12509000000E+03 0.  0.
        -11    1    3    3    0    0 -0.24125603574E+02  0.21630924079E+02 -0.78276170728E+01  0.33334864835E+02  0.51100000000E-03 0. -1.
         23    2    1    0    0    0  0.27705732830E+02 -0.10908295904E+02  0.16756246386E+01  0.95267084832E+02  0.90478788583E+02 0.  0.
         11    1    3    3    0    0  0.51831336403E+02 -0.32539219983E+02  0.95032417114E+01  0.61932219997E+02  0.51100000000E-03 0.  1.
         22    1    1    0    0    0 -0.27705732830E+02  0.10908295904E+02 -0.16756246386E+01  0.29822915168E+02  0.00000000000E+00 0.  1.
</event>
<event>
 5    1  0.1047411E-009  0.9118800E+02  0.7815553E-02  0.1125453E+00
         25   -1    0    0    0    0  0.00000000000E+00  0.00000000000E+00  0.99999998245E-14  0.12509000000E+03  0.12509000000E+03 0.  0.
        -11    1    3    3    0    0  0.39205036433E+00  0.18949702900E+02 -0.32478268399E+02  0.37604293132E+02  0.51100000000E-03 0.  1.
         23    2    1    0    0    0 -0.68989093261E+01  0.99483915482E+01  0.25570941011E+02  0.96797978713E+02  0.92571108962E+02 0.  0.
         11    1    3    3    0    0 -0.72909596905E+01 -0.90013113517E+01  0.58049209410E+02  0.59193685581E+02  0.51100000000E-03 0. -1.
         22    1    1    0    0    0  0.68989093261E+01 -0.99483915482E+01 -0.25570941011E+02  0.28292021287E+02  0.00000000000E+00 0. -1.
</event>
<event>
 5    1  0.1047411E-009  0.9118800E+02  0.7815553E-02  0.1125453E+00
         25   -1    0    0    0    0  0.00000000000E+00  0.00000000000E+00  0.99999998245E-14  0.12509000000E+03  0.12509000000E+03 0.  0.
        -11    1    3    3    0    0 -0.14097919930E+02 -0.19444566707E+02  0.28222090306E+02  0.37058452508E+02  0.51100000000E-03 0.  1.
         23    2    1    0    0    0  0.33616879034E+01  0.28864090961E+02 -0.72785660230E+00  0.96021693070E+02  0.91516113730E+02 0.  0.
         11    1    3    3    0    0  0.17459607834E+02  0.48308657668E+02 -0.28949946908E+02  0.58963240562E+02  0.51100000000E-03 0. -1.
         22    1    1    0    0    0 -0.33616879034E+01 -0.28864090961E+02  0.72785660230E+00  0.29068306930E+02  0.00000000000E+00 0. -1.
</event>
<event>
 5    1  0.1047411E-009  0.9118800E+02  0.7815553E-02  0.1125453E+00
         25   -1    0    0    0    0  0.00000000000E+00  0.00000000000E+00  0.99999998245E-14  0.12509000000E+03  0.12509000000E+03 0.  0.
        -11    1    3    3    0    0 -0.36728528866E+02 -0.57084459755E+01  0.10573198214E+02  0.38644064342E+02  0.51100000000E-03 0.  1.
         23    2    1    0    0    0  0.17887875277E+02 -0.22375337610E+02  0.48888526468E+01  0.96029155290E+02  0.91526312995E+02 0.  0.
         11    1    3    3    0    0  0.54616404143E+02 -0.16666891634E+02 -0.56843455675E+01  0.57385090948E+02  0.51100000000E-03 0. -1.
         22    1    1    0    0    0 -0.17887875277E+02  0.22375337610E+02 -0.48888526468E+01  0.29060844710E+02  0.00000000000E+00 0. -1.
</event>
<event>
 5    1  0.1047411E-009  0.9118800E+02  0.7815553E-02  0.1125453E+00
         25   -1    0    0    0    0  0.00000000000E+00  0.00000000000E+00  0.99999998245E-14  0.12509000000E+03  0.12509000000E+03 0.  0.
        -11    1    3    3    0    0 -0.10801443338E+02 -0.22851246156E+00 -0.33193603242E+02  0.34907573570E+02  0.51100000000E-03 0.  1.
         23    2    1    0    0    0  0.34251021206E+01  0.10282736708E+02  0.26124331220E+02  0.96806671334E+02  0.92582854429E+02 0.  0.
         11    1    3    3    0    0  0.14226545459E+02  0.10511249170E+02  0.59317934462E+02  0.61899097763E+02  0.51100000000E-03 0. -1.
         22    1    1    0    0    0 -0.34251021206E+01 -0.10282736708E+02 -0.26124331220E+02  0.28283328666E+02  0.00000000000E+00 0. -1.
</event>
<event>
 5    1  0.1047411E-009  0.9118800E+02  0.7815553E-02  0.1125453E+00
         25   -1    0    0    0    0  0.00000000000E+00  0.00000000000E+00  0.99999998245E-14  0.12509000000E+03  0.12509000000E+03 0.  0.
        -11    1    3    3    0    0 -0.21814477538E+02  0.25263423781E+02  0.37967421104E+02  0.50553309258E+02  0.51100000000E-03 0. -1.
         23    2    1    0    0    0 -0.25553435379E+02 -0.97848914359E+01  0.86707102877E+01  0.96386282872E+02  0.92013108570E+02 0.  0.
         11    1    3    3    0    0 -0.37389578417E+01 -0.35048315217E+02 -0.29296710817E+02  0.45832973613E+02  0.51100000000E-03 0.  1.
         22    1    1    0    0    0  0.25553435379E+02  0.97848914359E+01 -0.86707102877E+01  0.28703717128E+02  0.00000000000E+00 0. -1.
</event>
<event>
 5    1  0.1047411E-009  0.9118800E+02  0.7815553E-02  0.1125453E+00
         25   -1    0    0    0    0  0.00000000000E+00  0.00000000000E+00  0.99999998245E-14  0.12509000000E+03  0.12509000000E+03 0.  0.
        -11    1    3    3    0    0 -0.29463915426E+02  0.36983331133E+02 -0.10612171921E+02  0.48461399971E+02  0.51100000000E-03 0.  1.
         23    2    1    0    0    0  0.41549122522E+01  0.29860461542E+02  0.15091333763E+02  0.91375628969E+02  0.84928480237E+02 0.  0.
         11    1    3    3    0    0  0.33618827679E+02 -0.71228695920E+01  0.25703505685E+02  0.42914228998E+02  0.51100000000E-03 0. -1.
         22    1    1    0    0    0 -0.41549122522E+01 -0.29860461542E+02 -0.15091333763E+02  0.33714371031E+02  0.00000000000E+00 0. -1.
</event>
<event>
 5    1  0.1047411E-009  0.9118800E+02  0.7815553E-02  0.1125453E+00
         25   -1    0    0    0    0  0.00000000000E+00  0.00000000000E+00  0.99999998245E-14  0.12509000000E+03  0.12509000000E+03 0.  0.
        -11    1    3    3    0    0  0.38123751268E+02  0.40652681590E+02 -0.17432193753E+02  0.58394711323E+02  0.51100000000E-03 0. -1.
         23    2    1    0    0    0  0.13548975532E+02  0.20288479015E+02 -0.23875486855E+02  0.90954446815E+02  0.84305844424E+02 0.  0.
         11    1    3    3    0    0 -0.24574775736E+02 -0.20364202575E+02 -0.64432931020E+01  0.32559735491E+02  0.51100000000E-03 0.  1.
         22    1    1    0    0    0 -0.13548975532E+02 -0.20288479015E+02  0.23875486855E+02  0.34135553185E+02  0.00000000000E+00 0. -1.
</event>
<event>
 5    1  0.1047411E-009  0.9118800E+02  0.7815553E-02  0.1125453E+00
         25   -1    0    0    0    0  0.00000000000E+00  0.00000000000E+00  0.99999998245E-14  0.12509000000E+03  0.12509000000E+03 0.  0.
        -11    1    3    3    0    0 -0.37885275042E+02  0.48574407772E+01  0.12624617194E+02  0.40227723717E+02  0.51100000000E-03 0.  1.
         23    2    1    0    0    0  0.17780418342E+02  0.84076728443E+01  0.20640165375E+02  0.96579499027E+02  0.92275408243E+02 0.  0.
         11    1    3    3    0    0  0.55665693384E+02  0.35502320670E+01  0.80155481808E+01  0.56351775309E+02  0.51100000000E-03 0. -1.
         22    1    1    0    0    0 -0.17780418342E+02 -0.84076728443E+01 -0.20640165375E+02  0.28510500973E+02  0.00000000000E+00 0. -1.
</event>
<event>
 5    1  0.1047411E-009  0.9118800E+02  0.7815553E-02  0.1125453E+00
         25   -1    0    0    0    0  0.00000000000E+00  0.00000000000E+00  0.99999998245E-14  0.12509000000E+03  0.12509000000E+03 0.  0.
        -11    1    3    3    0    0 -0.19600126273E+01 -0.26866461932E+02  0.30773584557E+02  0.40898189850E+02  0.51100000000E-03 0. -1.
         23    2    1    0    0    0  0.28123985220E+01 -0.16587695145E+02 -0.23413999601E+02  0.96258132336E+02  0.91838725207E+02 0.  0.
         11    1    3    3    0    0  0.47724111493E+01  0.10278766786E+02 -0.54187584159E+02  0.55359942486E+02  0.51100000000E-03 0.  1.
         22    1    1    0    0    0 -0.28123985220E+01  0.16587695145E+02  0.23413999601E+02  0.28831867664E+02  0.00000000000E+00 0.  1.
</event>
<event>
 5    1  0.1047411E-009  0.9118800E+02  0.7815553E-02  0.1125453E+00
         25   -1    0    0    0    0  0.00000000000E+00  0.00000000000E+00  0.99999998245E-14  0.12509000000E+03  0.12509000000E+03 0.  0.
        -11    1    3    3    0    0 -0.27362288725E+02  0.74444867528E+01  0.30494337199E+02  0.41641563717E+02  0.51100000000E-03 0.  1.
         23    2    1    0    0    0  0.87202238701E+00 -0.29208078419E+02  0.23986350934E+01  0.95770625548E+02  0.91172292938E+02 0.  0.
         11    1    3    3    0    0  0.28234311112E+02 -0.36652565171E+02 -0.28095702106E+02  0.54129061831E+02  0.51100000000E-03 0. -1.
         22    1    1    0    0    0 -0.87202238701E+00  0.29208078419E+02 -0.23986350934E+01  0.29319374452E+02  0.00000000000E+00 0. -1.
</event>
<event>
 5    1  0.1047411E-009  0.9118800E+02  0.7815553E-02  0.1125453E+00
         25   -1    0    0    0    0  0.00000000000E+00  0.00000000000E+00  0.99999998245E-14  0.12509000000E+03  0.12509000000E+03 0.  0.
        -11    1    3    3    0    0 -0.21241672905E+02 -0.47439764980E+01 -0.29301759343E+02  0.36500781933E+02  0.51100000000E-03 0. -1.
         23    2    1    0    0    0  0.24830258029E+02 -0.16344992289E+02  0.47934724849E+01  0.94978907938E+02  0.90079493159E+02 0.  0.
         11    1    3    3    0    0  0.46071930934E+02 -0.11601015791E+02  0.34095231828E+02  0.58478126005E+02  0.51100000000E-03 0.  1.
         22    1    1    0    0    0 -0.24830258029E+02  0.16344992289E+02 -0.47934724849E+01  0.30111092062E+02  0.00000000000E+00 0.  1.
</event>
<event>
 5    1  0.1047411E-009  0.9118800E+02  0.7815553E-02  0.1125453E+00
         25   -1    0    0    0    0  0.00000000000E+00  0.00000000000E+00  0.99999998245E-14  0.12509000000E+03  0.12509000000E+03 0.  0.
        -11    1    3    3    0    0 -0.36319567737E+02 -0.86771744997E+01  0.62037822004E+01  0.37853550319E+02  0.51100000000E-03 0. -1.
         23    2    1    0    0    0  0.84955194198E+01  0.23357067016E+02  0.18265873469E+02  0.94245736945E+02  0.89055546536E+02 0.  0.
         11    1    3    3    0    0  0.44815087157E+02  0.32034241516E+02  0.12062091269E+02  0.56392186626E+02  0.51100000000E-03 0.  1.
         22    1    1    0    0    0 -0.84955194198E+01 -0.23357067016E+02 -0.18265873469E+02  0.30844263055E+02  0.00000000000E+00 0.  1.
</event>
<event>
 5    1  0.1047411E-009  0.9118800E+02  0.7815553E-02  0.1125453E+00
         25   -1    0    0    0    0  0.00000000000E+00  0.00000000000E+00  0.99999998245E-14  0.12509000000E+03  0.12509000000E+03 0.  0.
        -11    1    3    3    0    0 -0.20078529240E+02  0.51678361516E+02 -0.14719294262E+02  0.57362513973E+02  0.51100000000E-03 0. -1.
         23    2    1    0    0    0 -0.82666878157E+01  0.26604307460E+02  0.10965508935E+02  0.95150566320E+02  0.90317554118E+02 0.  0.
         11    1    3    3    0    0  0.11811841424E+02 -0.25074054056E+02  0.25684803197E+02  0.37788052347E+02  0.51100000000E-03 0.  1.
         22    1    1    0    0    0  0.82666878157E+01 -0.26604307460E+02 -0.10965508935E+02  0.29939433680E+02  0.00000000000E+00 0. -1.
</event>
<event>
 5    1  0.1047411E-009  0.9118800E+02  0.7815553E-02  0.1125453E+00
         25   -1    0    0    0    0  0.00000000000E+00  0.00000000000E+00  0.99999998245E-14  0.12509000000E+03  0.12509000000E+03 0.  0.
        -11    1    3    3    0    0 -0.20395462763E+02 -0.22528510473E+02  0.44109416325E+02  0.53564440576E+02  0.51100000000E-03 0. -1.
         23    2    1    0    0    0 -0.26717809611E+02 -0.12379935972E+02  0.40549293557E+01  0.95365487940E+02  0.90614732096E+02 0.  0.
         11    1    3    3    0    0 -0.63223468483E+01  0.10148574500E+02 -0.40054486970E+02  0.41801047364E+02  0.51100000000E-03 0.  1.
         22    1    1    0    0    0  0.26717809611E+02  0.12379935972E+02 -0.40549293557E+01  0.29724512060E+02  0.00000000000E+00 0. -1.
</event>
<event>
 5    1  0.1047411E-009  0.9118800E+02  0.7815553E-02  0.1125453E+00
         25   -1    0    0    0    0  0.00000000000E+00  0.00000000000E+00  0.99999998245E-14  0.12509000000E+03  0.12509000000E+03 0.  0.
        -11    1    3    3    0    0 -0.27196467524E+02 -0.60560587592E+01 -0.14482398540E+02  0.31401649021E+02  0.51100000000E-03 0. -1.
         23    2    1    0    0    0  0.21208593044E+02 -0.25188113661E+02  0.12303539397E+02  0.89938576552E+02  0.82784811299E+02 0.  0.
         11    1    3    3    0    0  0.48405060568E+02 -0.19132054902E+02  0.26785937937E+02  0.58536927531E+02  0.51100000000E-03 0.  1.
         22    1    1    0    0    0 -0.21208593044E+02  0.25188113661E+02 -0.12303539397E+02  0.35151423448E+02  0.00000000000E+00 0.  1.
</event>
<event>
 5    1  0.1047411E-009  0.9118800E+02  0.7815553E-02  0.1125453E+00
         25   -1    0    0    0    0  0.00000000000E+00  0.00000000000E+00  0.99999998245E-14  0.12509000000E+03  0.12509000000E+03 0.  0.
        -11    1    3    3    0    0  0.17732119859E+01  0.21329563641E+02  0.26235401651E+02  0.33858394320E+02  0.51100000000E-03 0. -1.
         23    2    1    0    0    0  0.97419225631E+01 -0.22360953336E+02 -0.16619863587E+02  0.95574967305E+02  0.90903449991E+02 0.  0.
         11    1    3    3    0    0  0.79687105772E+01 -0.43690516977E+02 -0.42855265239E+02  0.61716572985E+02  0.51100000000E-03 0.  1.
         22    1    1    0    0    0 -0.97419225631E+01  0.22360953336E+02  0.16619863587E+02  0.29515032695E+02  0.00000000000E+00 0.  1.
</event>
<event>
 5    1  0.1047411E-009  0.9118800E+02  0.7815553E-02  0.1125453E+00
         25   -1    0    0    0    0  0.00000000000E+00  0.00000000000E+00  0.99999998245E-14  0.12509000000E+03  0.12509000000E+03 0.  0.
        -11    1    3    3    0    0 -0.15446896035E+02 -0.50706306742E+01 -0.29031048871E+02  0.33273408171E+02  0.51100000000E-03 0.  1.
         23    2    1    0    0    0  0.19709593869E+02  0.14498608577E+02  0.17663935515E+02  0.94912320185E+02  0.89986977746E+02 0.  0.
         11    1    3    3    0    0  0.35156489903E+02  0.19569239251E+02  0.46694984386E+02  0.61638912014E+02  0.51100000000E-03 0. -1.
         22    1    1    0    0    0 -0.19709593869E+02 -0.14498608577E+02 -0.17663935515E+02  0.30177679815E+02  0.00000000000E+00 0. -1.
</event>
<event>
 5    1  0.1047411E-009  0.9118800E+02  0.7815553E-02  0.1125453E+00
         25   -1    0    0    0    0  0.00000000000E+00  0.00000000000E+00  0.99999998245E-14  0.12509000000E+03  0.12509000000E+03 0.  0.
        -11    1    3    3    0    0 -0.51794280104E+02 -0.17386586996E+02 -0.21755459016E+02  0.58806809606E+02  0.51100000000E-03 0. -1.
         23    2    1    0    0    0 -0.14469372371E+02 -0.13697484228E+02 -0.20744002822E+02  0.96327220856E+02  0.91932779865E+02 0.  0.
         11    1    3    3    0    0  0.37324907732E+02  0.36891027678E+01  0.10114561942E+01  0.37520411250E+02  0.51100000000E-03 0.  1.
         22    1    1    0    0    0  0.14469372371E+02  0.13697484228E+02  0.20744002822E+02  0.28762779144E+02  0.00000000000E+00 0. -1.
</event>
<event>
 5    1  0.1047411E-009  0.9118800E+02  0.7815553E-02  0.1125453E+00
         25   -1    0    0    0    0  0.00000000000E+00  0.00000000000E+00  0.99999998245E-14  0.12509000000E+03  0.12509000000E+03 0.  0.
        -11    1    3    3    0    0 -0.34190462228E+02  0.41600974595E+02 -0.26707507903E+02  0.60107568353E+02  0.51100000000E-03 0. -1.
         23    2    1    0    0    0 -0.22426836140E+02  0.17690878649E+02 -0.19855484674E+01  0.96456582996E+02  0.92108630615E+02 0.  0.
         11    1    3    3    0    0  0.11763626088E+02 -0.23910095947E+02  0.24721959435E+02  0.36349014643E+02  0.51100000000E-03 0.  1.
         22    1    1    0    0    0  0.22426836140E+02 -0.17690878649E+02  0.19855484674E+01  0.28633417004E+02  0.00000000000E+00 0. -1.
</event>
<event>
 5    1  0.1047411E-009  0.9118800E+02  0.7815553E-02  0.1125453E+00
         25   -1    0    0    0    0  0.00000000000E+00  0.00000000000E+00  0.99999998245E-14  0.12509000000E+03  0.12509000000E+03 0.  0.
        -11    1    3    3    0    0 -0.62311014489E+01 -0.47916890405E+02 -0.39040589516E+02  0.62121032198E+02  0.51100000000E-03 0.  1.
         23    2    1    0    0    0  0.88266263031E-02 -0.26726443420E+02 -0.16503864872E+02  0.93678530574E+02  0.88255235987E+02 0.  0.
         11    1    3    3    0    0  0.62399280753E+01  0.21190446986E+02  0.22536724643E+02  0.31557498376E+02  0.51100000000E-03 0. -1.
         22    1    1    0    0    0 -0.88266263031E-02  0.26726443420E+02  0.16503864872E+02  0.31411469426E+02  0.00000000000E+00 0.  1.
</event>
<event>
 5    1  0.1047411E-009  0.9118800E+02  0.7815553E-02  0.1125453E+00
         25   -1    0    0    0    0  0.00000000000E+00  0.00000000000E+00  0.99999998245E-14  0.12509000000E+03  0.12509000000E+03 0.  0.
        -11    1    3    3    0    0  0.19389843421E+01  0.29827530866E+02  0.24936164535E+02  0.38926257974E+02  0.51100000000E-03 0. -1.
         23    2    1    0    0    0 -0.11890560771E+02  0.81005981568E+01 -0.25643759058E+02  0.95685791040E+02  0.91055824099E+02 0.  0.
         11    1    3    3    0    0 -0.13829545113E+02 -0.21726932710E+02 -0.50579923593E+02  0.56759533066E+02  0.51100000000E-03 0.  1.
         22    1    1    0    0    0  0.11890560771E+02 -0.81005981568E+01  0.25643759058E+02  0.29404208960E+02  0.00000000000E+00 0.  1.
</event>
<event>
 5    1  0.1047411E-009  0.9118800E+02  0.7815553E-02  0.1125453E+00
         25   -1    0    0    0    0  0.00000000000E+00  0.00000000000E+00  0.99999998245E-14  0.12509000000E+03  0.12509000000E+03 0.  0.
        -11    1    3    3    0    0 -0.54957074272E+02  0.16761077211E+02 -0.15001997066E+02  0.59382435434E+02  0.51100000000E-03 0. -1.
         23    2    1    0    0    0 -0.27020118566E+02  0.10699248219E+02  0.66909026539E+01  0.95268382034E+02  0.90480581991E+02 0.  0.
         11    1    3    3    0    0  0.27936955707E+02 -0.60618289915E+01  0.21692899720E+02  0.35885946600E+02  0.51100000000E-03 0.  1.
         22    1    1    0    0    0  0.27020118566E+02 -0.10699248219E+02 -0.66909026539E+01  0.29821617966E+02  0.00000000000E+00 0. -1.
</event>
<event>
 5    1  0.1047411E-009  0.9118800E+02  0.7815553E-02  0.1125453E+00
         25   -1    0    0    0    0  0.00000000000E+00  0.00000000000E+00  0.99999998245E-14  0.12509000000E+03  0.12509000000E+03 0.  0.
        -11    1    3    3    0    0  0.24943062195E+02 -0.58973177037E+01  0.51559618169E+02  0.57578893127E+02  0.51100000000E-03 0.  1.
         23    2    1    0    0    0 -0.13578604130E+01 -0.76346475666E+01  0.36163942005E+02  0.88104025230E+02  0.79964723047E+02 0.  0.
         11    1    3    3    0    0 -0.26300922608E+02 -0.17373298629E+01 -0.15395676164E+02  0.30525132102E+02  0.51100000000E-03 0. -1.
         22    1    1    0    0    0  0.13578604130E+01  0.76346475666E+01 -0.36163942005E+02  0.36985974770E+02  0.00000000000E+00 0.  1.
</event>
<event>
 5    1  0.1047411E-009  0.9118800E+02  0.7815553E-02  0.1125453E+00
         25   -1    0    0    0    0  0.00000000000E+00  0.00000000000E+00  0.99999998245E-14  0.12509000000E+03  0.12509000000E+03 0.  0.
        -11    1    3    3    0    0  0.49056061317E+02  0.22547287489E+02  0.26086886186E+02  0.59961679064E+02  0.51100000000E-03 0. -1.
         23    2    1    0    0    0  0.28385754506E+02  0.20671830093E+01  0.43137531529E+01  0.96304017808E+02  0.91901202796E+02 0.  0.
         11    1    3    3    0    0 -0.20670306811E+02 -0.20480104479E+02 -0.21773133033E+02  0.36342338745E+02  0.51100000000E-03 0.  1.
         22    1    1    0    0    0 -0.28385754506E+02 -0.20671830093E+01 -0.43137531529E+01  0.28785982192E+02  0.00000000000E+00 0. -1.
</event>
<event>
 5    1  0.1047411E-009  0.9118800E+02  0.7815553E-02  0.1125453E+00
         25   -1    0    0    0    0  0.00000000000E+00  0.00000000000E+00  0.99999998245E-14  0.12509000000E+03  0.12509000000E+03 0.  0.
        -11    1    3    3    0    0  0.30819771970E+01 -0.28027682705E+02 -0.18807723737E+02  0.33893658016E+02  0.51100000000E-03 0. -1.
         23    2    1    0    0    0  0.65151954240E+01  0.28964420477E+02  0.35082753429E+01  0.95195294435E+02  0.90379481419E+02 0.  0.
         11    1    3    3    0    0  0.34332182269E+01  0.56992103182E+02  0.22315999079E+02  0.61301636419E+02  0.51100000000E-03 0.  1.
         22    1    1    0    0    0 -0.65151954240E+01 -0.28964420477E+02 -0.35082753429E+01  0.29894705565E+02  0.00000000000E+00 0.  1.
</event>
<event>
 5    1  0.1047411E-009  0.9118800E+02  0.7815553E-02  0.1125453E+00
         25   -1    0    0    0    0  0.00000000000E+00  0.00000000000E+00  0.99999998245E-14  0.12509000000E+03  0.12509000000E+03 0.  0.
        -11    1    3    3    0    0 -0.87897494920E+01  0.26348281722E+02 -0.16339877313E+02  0.32225505996E+02  0.51100000000E-03 0.  1.
         23    2    1    0    0    0  0.49822792192E+01 -0.25450014059E+02  0.15801615254E+02  0.94721968018E+02  0.89721980912E+02 0.  0.
         11    1    3    3    0    0  0.13772028711E+02 -0.51798295781E+02  0.32141492567E+02  0.62496462022E+02  0.51100000000E-03 0. -1.
         22    1    1    0    0    0 -0.49822792192E+01  0.25450014059E+02 -0.15801615254E+02  0.30368031982E+02  0.00000000000E+00 0. -1.
</event>
<event>
 5    1  0.1047411E-009  0.9118800E+02  0.7815553E-02  0.1125453E+00
         25   -1    0    0    0    0  0.00000000000E+00  0.00000000000E+00  0.99999998245E-14  0.12509000000E+03  0.12509000000E+03 0.  0.
        -11    1    3    3    0    0 -0.34492258970E+02  0.10522805568E+01  0.29568066223E+02  0.45443302737E+02  0.51100000000E-03 0.  1.
         23    2    1    0    0    0 -0.19838916913E+01  0.25058528943E+02 -0.59650697398E+01  0.99254989723E+02  0.95833737425E+02 0.  0.
         11    1    3    3    0    0  0.32508367279E+02  0.24006248386E+02 -0.35533135962E+02  0.53811686986E+02  0.51100000000E-03 0. -1.
         22    1    1    0    0    0  0.19838916913E+01 -0.25058528943E+02  0.59650697398E+01  0.25835010277E+02  0.00000000000E+00 0.  1.
</event>
<event>
 5    1  0.1047411E-009  0.9118800E+02  0.7815553E-02  0.1125453E+00
         25   -1    0    0    0    0  0.00000000000E+00  0.00000000000E+00  0.99999998245E-14  0.12509000000E+03  0.12509000000E+03 0.  0.
        -11    1    3    3    0    0 -0.20976218026E+02 -0.40992924009E+02  0.99381468982E+01  0.47108261542E+02  0.51100000000E-03 0. -1.
         23    2    1    0    0    0 -0.14153216229E+01 -0.13973206619E+02 -0.25625846772E+02  0.95867788220E+02  0.91305504527E+02 0.  0.
         11    1    3    3    0    0  0.19560896403E+02  0.27019717389E+02 -0.35563993670E+02  0.48759526679E+02  0.51100000000E-03 0.  1.
         22    1    1    0    0    0  0.14153216229E+01  0.13973206619E+02  0.25625846772E+02  0.29222211780E+02  0.00000000000E+00 0. -1.
</event>
<event>
 5    1  0.1047411E-009  0.9118800E+02  0.7815553E-02  0.1125453E+00
         25   -1    0    0    0    0  0.00000000000E+00  0.00000000000E+00  0.99999998245E-14  0.12509000000E+03  0.12509000000E+03 0.  0.
        -11    1    3    3    0    0  0.21481791431E+02  0.19697571139E+02 -0.38073852181E+02  0.47948721484E+02  0.51100000000E-03 0.  1.
         23    2    1    0    0    0  0.18879212163E-01  0.29647029291E+02  0.29413878264E+01  0.95297409233E+02  0.90520703389E+02 0.  0.
         11    1    3    3    0    0 -0.21462912219E+02  0.99494581527E+01  0.41015240007E+02  0.47348687749E+02  0.51100000000E-03 0. -1.
         22    1    1    0    0    0 -0.18879212163E-01 -0.29647029291E+02 -0.29413878264E+01  0.29792590767E+02  0.00000000000E+00 0. -1.
</event>
<event>
 5    1  0.1047411E-009  0.9118800E+02  0.7815553E-02  0.1125453E+00
         25   -1    0    0    0    0  0.00000000000E+00  0.00000000000E+00  0.99999998245E-14  0.12509000000E+03  0.12509000000E+03 0.  0.
        -11    1    3    3    0    0 -0.33247768148E+02 -0.19973097185E+02  0.11031855425E+02  0.40324192892E+02  0.51100000000E-03 0.  1.
         23    2    1    0    0    0 -0.56023241419E+00  0.24199111889E+02  0.16871116393E+02  0.95584992884E+02  0.90917244897E+02 0.  0.
         11    1    3    3    0    0  0.32687535734E+02  0.44172209074E+02  0.58392609681E+01  0.55260799992E+02  0.51100000000E-03 0. -1.
         22    1    1    0    0    0  0.56023241419E+00 -0.24199111889E+02 -0.16871116393E+02  0.29505007116E+02  0.00000000000E+00 0. -1.
</event>
<event>
 5    1  0.1047411E-009  0.9118800E+02  0.7815553E-02  0.1125453E+00
         25   -1    0    0    0    0  0.00000000000E+00  0.00000000000E+00  0.99999998245E-14  0.12509000000E+03  0.12509000000E+03 0.  0.
        -11    1    3    3    0    0 -0.15840549239E+02  0.38168536947E+01 -0.33361205477E+02  0.37127636654E+02  0.51100000000E-03 0. -1.
         23    2    1    0    0    0  0.10144968183E+02  0.15633526713E+02  0.20066998394E+02  0.97703653740E+02  0.93786950013E+02 0.  0.
         11    1    3    3    0    0  0.25985517422E+02  0.11816673019E+02  0.53428203871E+02  0.60576017087E+02  0.51100000000E-03 0.  1.
         22    1    1    0    0    0 -0.10144968183E+02 -0.15633526713E+02 -0.20066998394E+02  0.27386346260E+02  0.00000000000E+00 0.  1.
</event>
<event>
 5    1  0.1047411E-009  0.9118800E+02  0.7815553E-02  0.1125453E+00
         25   -1    0    0    0    0  0.00000000000E+00  0.00000000000E+00  0.99999998245E-14  0.12509000000E+03  0.12509000000E+03 0.  0.
        -11    1    3    3    0    0 -0.24586571450E+02  0.21037414960E+02 -0.31945673313E+02  0.45470851846E+02  0.51100000000E-03 0.  1.
         23    2    1    0    0    0 -0.18581428232E+02  0.20744131345E+01  0.17941448587E+02  0.99177295734E+02  0.95732271187E+02 0.  0.
         11    1    3    3    0    0  0.60051432178E+01 -0.18963001826E+02  0.49887121900E+02  0.53706443888E+02  0.51100000000E-03 0. -1.
         22    1    1    0    0    0  0.18581428232E+02 -0.20744131345E+01 -0.17941448587E+02  0.25912704266E+02  0.00000000000E+00 0.  1.
</event>
<event>
 5    1  0.1047411E-009  0.9118800E+02  0.7815553E-02  0.1125453E+00
         25   -1    0    0    0    0  0.00000000000E+00  0.00000000000E+00  0.99999998245E-14  0.12509000000E+03  0.12509000000E+03 0.  0.
        -11    1    3    3    0    0 -0.32704008311E+02  0.27278337514E+02  0.32374836971E+02  0.53495700073E+02  0.51100000000E-03 0.  1.
         23    2    1    0    0    0 -0.22104568786E+02  0.17307904833E+02 -0.75735351747E+01  0.96011933249E+02  0.91502772419E+02 0.  0.
         11    1    3    3    0    0  0.10599439525E+02 -0.99704326815E+01 -0.39948372146E+02  0.42516233176E+02  0.51100000000E-03 0. -1.
         22    1    1    0    0    0  0.22104568786E+02 -0.17307904833E+02  0.75735351747E+01  0.29078066751E+02  0.00000000000E+00 0.  1.
</event>
<event>
 5    1  0.1047411E-009  0.9118800E+02  0.7815553E-02  0.1125453E+00
         25   -1    0    0    0    0  0.00000000000E+00  0.00000000000E+00  0.99999998245E-14  0.12509000000E+03  0.12509000000E+03 0.  0.
        -11    1    3    3    0    0  0.47042234287E+01  0.26046342189E+02  0.27509338269E+02  0.38174668981E+02  0.51100000000E-03 0. -1.
         23    2    1    0    0    0 -0.25361217505E+02 -0.66599505345E+01 -0.10698328095E+02  0.96770386329E+02  0.92533816261E+02 0.  0.
         11    1    3    3    0    0 -0.30065440934E+02 -0.32706292724E+02 -0.38207666364E+02  0.58595717348E+02  0.51100000000E-03 0.  1.
         22    1    1    0    0    0  0.25361217505E+02  0.66599505345E+01  0.10698328095E+02  0.28319613671E+02  0.00000000000E+00 0.  1.
</event>
<event>
 5    1  0.1047411E-009  0.9118800E+02  0.7815553E-02  0.1125453E+00
         25   -1    0    0    0    0  0.00000000000E+00  0.00000000000E+00  0.99999998245E-14  0.12509000000E+03  0.12509000000E+03 0.  0.
        -11    1    3    3    0    0 -0.35940848486E+01 -0.10146879124E+01 -0.41962467107E+02  0.42128324005E+02  0.51100000000E-03 0. -1.
         23    2    1    0    0    0 -0.83271137157E+01  0.30592496929E+02 -0.19684590629E+01  0.93323405561E+02  0.87750450160E+02 0.  0.
         11    1    3    3    0    0 -0.47330288671E+01  0.31607184841E+02  0.39994008044E+02  0.51195081556E+02  0.51100000000E-03 0.  1.
         22    1    1    0    0    0  0.83271137157E+01 -0.30592496929E+02  0.19684590629E+01  0.31766594439E+02  0.00000000000E+00 0.  1.
</event>
<event>
 5    1  0.1047411E-009  0.9118800E+02  0.7815553E-02  0.1125453E+00
         25   -1    0    0    0    0  0.00000000000E+00  0.00000000000E+00  0.99999998245E-14  0.12509000000E+03  0.12509000000E+03 0.  0.
        -11    1    3    3    0    0 -0.54228352677E+02  0.16157837125E+02  0.50851484284E+00  0.56586646147E+02  0.51100000000E-03 0.  1.
         23    2    1    0    0    0 -0.18905974598E+02  0.88333437674E+01  0.18772969920E+02  0.97020653067E+02  0.92871518155E+02 0.  0.
         11    1    3    3    0    0  0.35322378079E+02 -0.73244933578E+01  0.18264455077E+02  0.40434006920E+02  0.51100000000E-03 0. -1.
         22    1    1    0    0    0  0.18905974598E+02 -0.88333437674E+01 -0.18772969920E+02  0.28069346933E+02  0.00000000000E+00 0.  1.
</event>
<event>
 5    1  0.1047411E-009  0.9118800E+02  0.7815553E-02  0.1125453E+00
         25   -1    0    0    0    0  0.00000000000E+00  0.00000000000E+00  0.99999998245E-14  0.12509000000E+03  0.12509000000E+03 0.  0.
        -11    1    3    3    0    0 -0.28969902784E+02  0.11853681655E+02  0.10363574499E+02  0.32972241549E+02  0.51100000000E-03 0.  1.
         23    2    1    0    0    0  0.27917179785E+02 -0.62605147021E+01 -0.79072050095E+01  0.95406892640E+02  0.90671871607E+02 0.  0.
         11    1    3    3    0    0  0.56887082569E+02 -0.18114196357E+02 -0.18270779508E+02  0.62434651092E+02  0.51100000000E-03 0. -1.
         22    1    1    0    0    0 -0.27917179785E+02  0.62605147021E+01  0.79072050095E+01  0.29683107360E+02  0.00000000000E+00 0. -1.
</event>
<event>
 5    1  0.1047411E-009  0.9118800E+02  0.7815553E-02  0.1125453E+00
         25   -1    0    0    0    0  0.00000000000E+00  0.00000000000E+00  0.99999998245E-14  0.12509000000E+03  0.12509000000E+03 0.  0.
        -11    1    3    3    0    0  0.21266267278E+02 -0.44406940902E+02 -0.30470430716E+02  0.57902311461E+02  0.51100000000E-03 0. -1.
         23    2    1    0    0    0  0.10234080932E+02 -0.30479955311E+02 -0.27552150217E+00  0.92936617590E+02  0.87197333037E+02 0.  0.
         11    1    3    3    0    0 -0.11032186346E+02  0.13926985591E+02  0.30194909214E+02  0.35034306129E+02  0.51100000000E-03 0.  1.
         22    1    1    0    0    0 -0.10234080932E+02  0.30479955311E+02  0.27552150217E+00  0.32153382410E+02  0.00000000000E+00 0. -1.
</event>
<event>
 5    1  0.1047411E-009  0.9118800E+02  0.7815553E-02  0.1125453E+00
         25   -1    0    0    0    0  0.00000000000E+00  0.00000000000E+00  0.99999998245E-14  0.12509000000E+03  0.12509000000E+03 0.  0.
        -11    1    3    3    0    0  0.15927151705E+02  0.22836281349E+02 -0.47823336350E+02  0.55337522597E+02  0.51100000000E-03 0.  1.
         23    2    1    0    0    0  0.23913272440E+02 -0.25229017690E+01 -0.20093646093E+02  0.93753691260E+02  0.88361701995E+02 0.  0.
         11    1    3    3    0    0  0.79861207347E+01 -0.25359183118E+02  0.27729690256E+02  0.38416168663E+02  0.51100000000E-03 0. -1.
         22    1    1    0    0    0 -0.23913272440E+02  0.25229017690E+01  0.20093646093E+02  0.31336308740E+02  0.00000000000E+00 0.  1.
</event>
<event>
 5    1  0.1047411E-009  0.9118800E+02  0.7815553E-02  0.1125453E+00
         25   -1    0    0    0    0  0.00000000000E+00  0.00000000000E+00  0.99999998245E-14  0.12509000000E+03  0.12509000000E+03 0.  0.
        -11    1    3    3    0    0 -0.36112559422E+02 -0.22686200437E+02  0.39690540851E+02  0.58259073728E+02  0.51100000000E-03 0.  1.
         23    2    1    0    0    0 -0.53119400049E+01 -0.25345718179E+01  0.27401482230E+02  0.97063548400E+02  0.92929276542E+02 0.  0.
         11    1    3    3    0    0  0.30800619417E+02  0.20151628619E+02 -0.12289058622E+02  0.38804474672E+02  0.51100000000E-03 0. -1.
         22    1    1    0    0    0  0.53119400049E+01  0.25345718179E+01 -0.27401482230E+02  0.28026451600E+02  0.00000000000E+00 0.  1.
</event>
<event>
 5    1  0.1047411E-009  0.9118800E+02  0.7815553E-02  0.1125453E+00
         25   -1    0    0    0    0  0.00000000000E+00  0.00000000000E+00  0.99999998245E-14  0.12509000000E+03  0.12509000000E+03 0.  0.
        -11    1    3    3    0    0 -0.81233140315E+00 -0.57521726921E+02 -0.22405203894E+02  0.61736554100E+02  0.51100000000E-03 0.  1.
         23    2    1    0    0    0  0.67082127573E+01 -0.25723695938E+02 -0.10011276828E+02  0.96683410714E+02  0.92416165212E+02 0.  0.
         11    1    3    3    0    0  0.75205441604E+01  0.31798030983E+02  0.12393927066E+02  0.34946856614E+02  0.51100000000E-03 0. -1.
         22    1    1    0    0    0 -0.67082127573E+01  0.25723695938E+02  0.10011276828E+02  0.28406589286E+02  0.00000000000E+00 0.  1.
</event>
<event>
 5    1  0.1047411E-009  0.9118800E+02  0.7815553E-02  0.1125453E+00
         25   -1    0    0    0    0  0.00000000000E+00  0.00000000000E+00  0.99999998245E-14  0.12509000000E+03  0.12509000000E+03 0.  0.
        -11    1    3    3    0    0 -0.55590458702E+02 -0.10455274271E+02 -0.18874656871E+02  0.59631070182E+02  0.51100000000E-03 0.  1.
         23    2    1    0    0    0 -0.18305263573E+02 -0.52276408765E+01 -0.20237612588E+02  0.97305618292E+02  0.93254552084E+02 0.  0.
         11    1    3    3    0    0  0.37285195129E+02  0.52276333946E+01 -0.13629557177E+01  0.37674548110E+02  0.51100000000E-03 0. -1.
         22    1    1    0    0    0  0.18305263573E+02  0.52276408765E+01  0.20237612588E+02  0.27784381708E+02  0.00000000000E+00 0.  1.
</event>
<event>
 5    1  0.1047411E-009  0.9118800E+02  0.7815553E-02  0.1125453E+00
         25   -1    0    0    0    0  0.00000000000E+00  0.00000000000E+00  0.99999998245E-14  0.12509000000E+03  0.12509000000E+03 0.  0.
        -11    1    3    3    0    0  0.44826328949E+02  0.24096044817E+02  0.93818663962E-01  0.50892317151E+02  0.51100000000E-03 0. -1.
         23    2    1    0    0    0  0.20161115713E+02 -0.71806982498E+01 -0.20256578857E+02  0.95622017356E+02  0.90968171368E+02 0.  0.
         11    1    3    3    0    0 -0.24665213236E+02 -0.31276743067E+02 -0.20350397521E+02  0.44729700204E+02  0.51100000000E-03 0.  1.
         22    1    1    0    0    0 -0.20161115713E+02  0.71806982498E+01  0.20256578857E+02  0.29467982644E+02  0.00000000000E+00 0.  1.
</event>
<event>
 5    1  0.1047411E-009  0.9118800E+02  0.7815553E-02  0.1125453E+00
         25   -1    0    0    0    0  0.00000000000E+00  0.00000000000E+00  0.99999998245E-14  0.12509000000E+03  0.12509000000E+03 0.  0.
        -11    1    3    3    0    0 -0.26853694006E+02 -0.11820108453E+02 -0.24488783043E+02  0.38216964045E+02  0.51100000000E-03 0. -1.
         23    2    1    0    0    0  0.18866961496E+02 -0.19039153737E+02  0.10564513466E+02  0.96279228475E+02  0.91867454954E+02 0.  0.
         11    1    3    3    0    0  0.45720655501E+02 -0.72190452841E+01  0.35053296510E+02  0.58062264430E+02  0.51100000000E-03 0.  1.
         22    1    1    0    0    0 -0.18866961496E+02  0.19039153737E+02 -0.10564513466E+02  0.28810771525E+02  0.00000000000E+00 0.  1.
</event>
<event>
 5    1  0.1047411E-009  0.9118800E+02  0.7815553E-02  0.1125453E+00
         25   -1    0    0    0    0  0.00000000000E+00  0.00000000000E+00  0.99999998245E-14  0.12509000000E+03  0.12509000000E+03 0.  0.
        -11    1    3    3    0    0 -0.44275093297E+01  0.19336971681E+01 -0.40523997766E+02  0.40810984046E+02  0.51100000000E-03 0. -1.
         23    2    1    0    0    0  0.10704972265E+02 -0.25508092924E+02  0.58831520753E+01  0.96808014317E+02  0.92584668936E+02 0.  0.
         11    1    3    3    0    0  0.15132481595E+02 -0.27441790092E+02  0.46407149841E+02  0.55997030272E+02  0.51100000000E-03 0.  1.
         22    1    1    0    0    0 -0.10704972265E+02  0.25508092924E+02 -0.58831520753E+01  0.28281985683E+02  0.00000000000E+00 0.  1.
</event>
<event>
 5    1  0.1047411E-009  0.9118800E+02  0.7815553E-02  0.1125453E+00
         25   -1    0    0    0    0  0.00000000000E+00  0.00000000000E+00  0.99999998245E-14  0.12509000000E+03  0.12509000000E+03 0.  0.
        -11    1    3    3    0    0  0.17425421737E+02  0.24103176487E+02 -0.27571254210E+02  0.40555918168E+02  0.51100000000E-03 0. -1.
         23    2    1    0    0    0 -0.28217473600E+02  0.78879153386E+01 -0.10657893691E+01  0.95771389328E+02  0.91173340852E+02 0.  0.
         11    1    3    3    0    0 -0.45642895336E+02 -0.16215261148E+02  0.26505464841E+02  0.55215471161E+02  0.51100000000E-03 0.  1.
         22    1    1    0    0    0  0.28217473600E+02 -0.78879153386E+01  0.10657893691E+01  0.29318610672E+02  0.00000000000E+00 0.  1.
</event>
<event>
 5    1  0.1047411E-009  0.9118800E+02  0.7815553E-02  0.1125453E+00
         25   -1    0    0    0    0  0.00000000000E+00  0.00000000000E+00  0.99999998245E-14  0.12509000000E+03  0.12509000000E+03 0.  0.
        -11    1    3    3    0    0  0.78871145273E+01  0.32067927009E+02  0.23508428404E+02  0.40536461668E+02  0.51100000000E-03 0. -1.
         23    2    1    0    0    0  0.52153442386E+01 -0.22695634207E+02  0.18031234086E+02  0.95638055578E+02  0.90990222796E+02 0.  0.
         11    1    3    3    0    0 -0.26717702887E+01 -0.54763561216E+02 -0.54771943174E+01  0.55101593910E+02  0.51100000000E-03 0.  1.
         22    1    1    0    0    0 -0.52153442386E+01  0.22695634207E+02 -0.18031234086E+02  0.29451944422E+02  0.00000000000E+00 0.  1.
</event>
<event>
 5    1  0.1047411E-009  0.9118800E+02  0.7815553E-02  0.1125453E+00
         25   -1    0    0    0    0  0.00000000000E+00  0.00000000000E+00  0.99999998245E-14  0.12509000000E+03  0.12509000000E+03 0.  0.
        -11    1    3    3    0    0  0.15152270640E+02 -0.44576366962E+02 -0.35060379609E+01  0.47211609796E+02  0.51100000000E-03 0.  1.
         23    2    1    0    0    0 -0.10678099228E+02 -0.80335017420E+01  0.22464323629E+02  0.98951813577E+02  0.95437186781E+02 0.  0.
         11    1    3    3    0    0 -0.25830369868E+02  0.36542865220E+02  0.25970361590E+02  0.51740203782E+02  0.51100000000E-03 0. -1.
         22    1    1    0    0    0  0.10678099228E+02  0.80335017420E+01 -0.22464323629E+02  0.26138186423E+02  0.00000000000E+00 0. -1.
</event>
<event>
 5    1  0.1047411E-009  0.9118800E+02  0.7815553E-02  0.1125453E+00
         25   -1    0    0    0    0  0.00000000000E+00  0.00000000000E+00  0.99999998245E-14  0.12509000000E+03  0.12509000000E+03 0.  0.
        -11    1    3    3    0    0 -0.12302455642E+02 -0.13981806857E+02 -0.26550834073E+02  0.32431283170E+02  0.51100000000E-03 0.  1.
         23    2    1    0    0    0  0.11768372193E+02  0.20856468202E+02  0.18923262874E+02  0.94568258114E+02  0.89507422681E+02 0.  0.
         11    1    3    3    0    0  0.24070827835E+02  0.34838275059E+02  0.45474096947E+02  0.62136974944E+02  0.51100000000E-03 0. -1.
         22    1    1    0    0    0 -0.11768372193E+02 -0.20856468202E+02 -0.18923262874E+02  0.30521741886E+02  0.00000000000E+00 0. -1.
</event>
<event>
 5    1  0.1047411E-009  0.9118800E+02  0.7815553E-02  0.1125453E+00
         25   -1    0    0    0    0  0.00000000000E+00  0.00000000000E+00  0.99999998245E-14  0.12509000000E+03  0.12509000000E+03 0.  0.
        -11    1    3    3    0    0 -0.10483996049E+02 -0.32852104203E+02  0.80651461520E+01  0.35414989855E+02  0.51100000000E-03 0.  1.
         23    2    1    0    0    0 -0.71702561721E+01  0.26560883376E+02 -0.68029680774E+01  0.96749684654E+02  0.92505826879E+02 0.  0.
         11    1    3    3    0    0  0.33137398772E+01  0.59412987579E+02 -0.14868114229E+02  0.61334694798E+02  0.51100000000E-03 0. -1.
         22    1    1    0    0    0  0.71702561721E+01 -0.26560883376E+02  0.68029680774E+01  0.28340315346E+02  0.00000000000E+00 0. -1.
</event>
<event>
 5    1  0.1047411E-009  0.9118800E+02  0.7815553E-02  0.1125453E+00
         25   -1    0    0    0    0  0.00000000000E+00  0.00000000000E+00  0.99999998245E-14  0.12509000000E+03  0.12509000000E+03 0.  0.
        -11    1    3    3    0    0  0.11609474892E+01  0.67651587859E+01  0.26571048676E+02  0.27443319779E+02  0.51100000000E-03 0. -1.
         23    2    1    0    0    0  0.26230464891E+02 -0.11217654538E+02 -0.24748466468E+02  0.87322823057E+02  0.78733193587E+02 0.  0.
         11    1    3    3    0    0  0.25069517402E+02 -0.17982813324E+02 -0.51319515145E+02  0.59879503278E+02  0.51100000000E-03 0.  1.
         22    1    1    0    0    0 -0.26230464891E+02  0.11217654538E+02  0.24748466468E+02  0.37767176943E+02  0.00000000000E+00 0.  1.
</event>
<event>
 5    1  0.1047411E-009  0.9118800E+02  0.7815553E-02  0.1125453E+00
         25   -1    0    0    0    0  0.00000000000E+00  0.00000000000E+00  0.99999998245E-14  0.12509000000E+03  0.12509000000E+03 0.  0.
        -11    1    3    3    0    0  0.27131046211E+02  0.28233309306E+02  0.17366206023E+02  0.42834548378E+02  0.51100000000E-03 0.  1.
         23    2    1    0    0    0  0.10751556827E+02  0.27209683277E+02 -0.23943305795E+02  0.87284646800E+02  0.78672516398E+02 0.  0.
         11    1    3    3    0    0 -0.16379489385E+02 -0.10236260288E+01 -0.41309511818E+02  0.44450098421E+02  0.51100000000E-03 0. -1.
         22    1    1    0    0    0 -0.10751556827E+02 -0.27209683277E+02  0.23943305795E+02  0.37805353200E+02  0.00000000000E+00 0.  1.
</event>
<event>
 5    1  0.1047411E-009  0.9118800E+02  0.7815553E-02  0.1125453E+00
         25   -1    0    0    0    0  0.00000000000E+00  0.00000000000E+00  0.99999998245E-14  0.12509000000E+03  0.12509000000E+03 0.  0.
        -11    1    3    3    0    0  0.11633245193E+02  0.68780549647E+01  0.32032792681E+02  0.34766936031E+02  0.51100000000E-03 0. -1.
         23    2    1    0    0    0  0.22986923288E+01 -0.13975827522E+01 -0.28445077657E+02  0.96517991550E+02  0.92191990031E+02 0.  0.
         11    1    3    3    0    0 -0.93345528644E+01 -0.82756377169E+01 -0.60477870338E+02  0.61751055518E+02  0.51100000000E-03 0.  1.
         22    1    1    0    0    0 -0.22986923288E+01  0.13975827522E+01  0.28445077657E+02  0.28572008450E+02  0.00000000000E+00 0.  1.
</event>
<event>
 5    1  0.1047411E-009  0.9118800E+02  0.7815553E-02  0.1125453E+00
         25   -1    0    0    0    0  0.00000000000E+00  0.00000000000E+00  0.99999998245E-14  0.12509000000E+03  0.12509000000E+03 0.  0.
        -11    1    3    3    0    0  0.31432230005E+02 -0.21510401409E+02 -0.19219979793E+01  0.38136288865E+02  0.51100000000E-03 0. -1.
         23    2    1    0    0    0  0.59457419033E+01  0.26533978496E+02  0.13590039491E+02  0.94691101419E+02  0.89678936506E+02 0.  0.
         11    1    3    3    0    0 -0.25486488102E+02  0.48044379905E+02  0.15512037470E+02  0.56554812554E+02  0.51100000000E-03 0.  1.
         22    1    1    0    0    0 -0.59457419033E+01 -0.26533978496E+02 -0.13590039491E+02  0.30398898581E+02  0.00000000000E+00 0.  1.
</event>
<event>
 5    1  0.1047411E-009  0.9118800E+02  0.7815553E-02  0.1125453E+00
         25   -1    0    0    0    0  0.00000000000E+00  0.00000000000E+00  0.99999998245E-14  0.12509000000E+03  0.12509000000E+03 0.  0.
        -11    1    3    3    0    0  0.21077790751E+02  0.39600152612E+02 -0.35542236378E+01  0.45000865056E+02  0.51100000000E-03 0.  1.
         23    2    1    0    0    0  0.21537697766E+02 -0.35875211723E+01  0.21094966555E+02  0.94729823005E+02  0.89732931633E+02 0.  0.
         11    1    3    3    0    0  0.45990701444E+00 -0.43187673784E+02  0.24649190193E+02  0.49728957950E+02  0.51100000000E-03 0. -1.
         22    1    1    0    0    0 -0.21537697766E+02  0.35875211723E+01 -0.21094966555E+02  0.30360176995E+02  0.00000000000E+00 0. -1.
</event>
<event>
 5    1  0.1047411E-009  0.9118800E+02  0.7815553E-02  0.1125453E+00
         25   -1    0    0    0    0  0.00000000000E+00  0.00000000000E+00  0.99999998245E-14  0.12509000000E+03  0.12509000000E+03 0.  0.
        -11    1    3    3    0    0 -0.27993029172E+01 -0.29069304472E+02  0.26024295703E+02  0.39116806189E+02  0.51100000000E-03 0.  1.
         23    2    1    0    0    0  0.27249690735E+02  0.12881509964E+02  0.67420253312E+01  0.94204180443E+02  0.88997155928E+02 0.  0.
         11    1    3    3    0    0  0.30048993652E+02  0.41950814436E+02 -0.19282270372E+02  0.55087374255E+02  0.51100000000E-03 0. -1.
         22    1    1    0    0    0 -0.27249690735E+02 -0.12881509964E+02 -0.67420253312E+01  0.30885819557E+02  0.00000000000E+00 0. -1.
</event>
<event>
 5    1  0.1047411E-009  0.9118800E+02  0.7815553E-02  0.1125453E+00
         25   -1    0    0    0    0  0.00000000000E+00  0.00000000000E+00  0.99999998245E-14  0.12509000000E+03  0.12509000000E+03 0.  0.
        -11    1    3    3    0    0  0.23928802427E+02 -0.26382330578E+02  0.50856816189E+02  0.62088893576E+02  0.51100000000E-03 0.  1.
         23    2    1    0    0    0  0.16294198464E+02 -0.10787615457E+02  0.23053915019E+02  0.94868210699E+02  0.89925640686E+02 0.  0.
         11    1    3    3    0    0 -0.76346039625E+01  0.15594715121E+02 -0.27802901170E+02  0.32779317124E+02  0.51100000000E-03 0. -1.
         22    1    1    0    0    0 -0.16294198464E+02  0.10787615457E+02 -0.23053915019E+02  0.30221789301E+02  0.00000000000E+00 0.  1.
</event>
<event>
 5    1  0.1047411E-009  0.9118800E+02  0.7815553E-02  0.1125453E+00
         25   -1    0    0    0    0  0.00000000000E+00  0.00000000000E+00  0.99999998245E-14  0.12509000000E+03  0.12509000000E+03 0.  0.
        -11    1    3    3    0    0  0.36451664396E+02  0.39507361618E+02 -0.31499541759E+02  0.62303905098E+02  0.51100000000E-03 0.  1.
         23    2    1    0    0    0  0.15299424126E+02  0.17785940784E+02 -0.18132456457E+02  0.95438726076E+02  0.90715778063E+02 0.  0.
         11    1    3    3    0    0 -0.21152240269E+02 -0.21721420834E+02  0.13367085302E+02  0.33134820977E+02  0.51100000000E-03 0. -1.
         22    1    1    0    0    0 -0.15299424126E+02 -0.17785940784E+02  0.18132456457E+02  0.29651273924E+02  0.00000000000E+00 0.  1.
</event>
<event>
 5    1  0.1047411E-009  0.9118800E+02  0.7815553E-02  0.1125453E+00
         25   -1    0    0    0    0  0.00000000000E+00  0.00000000000E+00  0.99999998245E-14  0.12509000000E+03  0.12509000000E+03 0.  0.
        -11    1    3    3    0    0 -0.24149688579E+02  0.39707050438E+02  0.39722191547E+02  0.61136812270E+02  0.51100000000E-03 0.  1.
         23    2    1    0    0    0 -0.17524012247E+02  0.13223761486E+02  0.11886807573E+02  0.10012492304E+03  0.96962596641E+02 0.  0.
         11    1    3    3    0    0  0.66256763322E+01 -0.26483288952E+02 -0.27835383973E+02  0.38988110775E+02  0.51100000000E-03 0. -1.
         22    1    1    0    0    0  0.17524012247E+02 -0.13223761486E+02 -0.11886807573E+02  0.24965076955E+02  0.00000000000E+00 0.  1.
</event>
<event>
 5    1  0.1047411E-009  0.9118800E+02  0.7815553E-02  0.1125453E+00
         25   -1    0    0    0    0  0.00000000000E+00  0.00000000000E+00  0.99999998245E-14  0.12509000000E+03  0.12509000000E+03 0.  0.
        -11    1    3    3    0    0  0.63132116223E+01 -0.44805961180E+02  0.21394792721E+02  0.50051652860E+02  0.51100000000E-03 0. -1.
         23    2    1    0    0    0 -0.17104761613E+02 -0.22718302760E+01  0.20067172417E+02  0.98624447078E+02  0.95007136942E+02 0.  0.
         11    1    3    3    0    0 -0.23417973236E+02  0.42534130903E+02 -0.13276203034E+01  0.48572794218E+02  0.51100000000E-03 0.  1.
         22    1    1    0    0    0  0.17104761613E+02  0.22718302760E+01 -0.20067172417E+02  0.26465552922E+02  0.00000000000E+00 0. -1.
</event>
<event>
 5    1  0.1047411E-009  0.9118800E+02  0.7815553E-02  0.1125453E+00
         25   -1    0    0    0    0  0.00000000000E+00  0.00000000000E+00  0.99999998245E-14  0.12509000000E+03  0.12509000000E+03 0.  0.
        -11    1    3    3    0    0  0.89614063554E+01  0.38149246777E+02  0.38347729395E+01  0.39374831013E+02  0.51100000000E-03 0.  1.
         23    2    1    0    0    0 -0.23432698781E+02 -0.68478276005E+01  0.15686252005E+02  0.96072029413E+02  0.91584890777E+02 0.  0.
         11    1    3    3    0    0 -0.32394105136E+02 -0.44997074378E+02  0.11851479065E+02  0.56697198400E+02  0.51100000000E-03 0. -1.
         22    1    1    0    0    0  0.23432698781E+02  0.68478276005E+01 -0.15686252005E+02  0.29017970587E+02  0.00000000000E+00 0. -1.
</event>
<event>
 5    1  0.1047411E-009  0.9118800E+02  0.7815553E-02  0.1125453E+00
         25   -1    0    0    0    0  0.00000000000E+00  0.00000000000E+00  0.99999998245E-14  0.12509000000E+03  0.12509000000E+03 0.  0.
        -11    1    3    3    0    0  0.18029567653E+02  0.22518209069E+02 -0.68846048343E+01  0.29656918812E+02  0.51100000000E-03 0.  1.
         23    2    1    0    0    0 -0.20727306089E+02 -0.70394203163E+01 -0.33409040715E+02  0.85148309280E+02  0.75199041986E+02 0.  0.
         11    1    3    3    0    0 -0.38756873741E+02 -0.29557629385E+02 -0.26524435880E+02  0.55491390468E+02  0.51100000000E-03 0. -1.
         22    1    1    0    0    0  0.20727306089E+02  0.70394203163E+01  0.33409040715E+02  0.39941690720E+02  0.00000000000E+00 0. -1.
</event>
<event>
 5    1  0.1047411E-009  0.9118800E+02  0.7815553E-02  0.1125453E+00
         25   -1    0    0    0    0  0.00000000000E+00  0.00000000000E+00  0.99999998245E-14  0.12509000000E+03  0.12509000000E+03 0.  0.
        -11    1    3    3    0    0  0.18638116898E+02 -0.24114793534E+02 -0.20306248514E+02  0.36623030973E+02  0.51100000000E-03 0. -1.
         23    2    1    0    0    0 -0.26400296367E+02  0.97027691921E+01  0.12669612943E+01  0.96934635162E+02  0.92755587028E+02 0.  0.
         11    1    3    3    0    0 -0.45038413264E+02  0.33817562726E+02  0.21573209808E+02  0.60311604189E+02  0.51100000000E-03 0.  1.
         22    1    1    0    0    0  0.26400296367E+02 -0.97027691921E+01 -0.12669612943E+01  0.28155364838E+02  0.00000000000E+00 0.  1.
</event>
<event>
 5    1  0.1047411E-009  0.9118800E+02  0.7815553E-02  0.1125453E+00
         25   -1    0    0    0    0  0.00000000000E+00  0.00000000000E+00  0.99999998245E-14  0.12509000000E+03  0.12509000000E+03 0.  0.
        -11    1    3    3    0    0  0.28017273013E+02  0.44237501363E+02  0.58137504760E+01  0.52685138405E+02  0.51100000000E-03 0.  1.
         23    2    1    0    0    0 -0.11062750065E+02  0.26727337734E+02  0.61827642092E+01  0.95510250261E+02  0.90814350794E+02 0.  0.
         11    1    3    3    0    0 -0.39080023078E+02 -0.17510163628E+02  0.36901373320E+00  0.42825111856E+02  0.51100000000E-03 0. -1.
         22    1    1    0    0    0  0.11062750065E+02 -0.26727337734E+02 -0.61827642092E+01  0.29579749739E+02  0.00000000000E+00 0.  1.
</event>
<event>
 5    1  0.1047411E-009  0.9118800E+02  0.7815553E-02  0.1125453E+00
         25   -1    0    0    0    0  0.00000000000E+00  0.00000000000E+00  0.99999998245E-14  0.12509000000E+03  0.12509000000E+03 0.  0.
        -11    1    3    3    0    0 -0.43484773039E+02 -0.29897016966E+02 -0.22801831179E+02  0.57486351555E+02  0.51100000000E-03 0. -1.
         23    2    1    0    0    0 -0.28318727941E+02 -0.49669311342E+01  0.26630683425E+01  0.96215916636E+02  0.91781206813E+02 0.  0.
         11    1    3    3    0    0  0.15166045098E+02  0.24930085832E+02  0.25464899521E+02  0.38729565081E+02  0.51100000000E-03 0.  1.
         22    1    1    0    0    0  0.28318727941E+02  0.49669311342E+01 -0.26630683425E+01  0.28874083364E+02  0.00000000000E+00 0. -1.
</event>
<event>
 5    1  0.1047411E-009  0.9118800E+02  0.7815553E-02  0.1125453E+00
         25   -1    0    0    0    0  0.00000000000E+00  0.00000000000E+00  0.99999998245E-14  0.12509000000E+03  0.12509000000E+03 0.  0.
        -11    1    3    3    0    0 -0.30913050682E+02 -0.12106200207E+02 -0.13489030159E+02  0.35834769719E+02  0.51100000000E-03 0.  1.
         23    2    1    0    0    0  0.24940188259E+02 -0.10295610959E+02  0.98105689706E+01  0.96380073860E+02  0.92004667156E+02 0.  0.
         11    1    3    3    0    0  0.55853238941E+02  0.18105892484E+01  0.23299599130E+02  0.60545304141E+02  0.51100000000E-03 0. -1.
         22    1    1    0    0    0 -0.24940188259E+02  0.10295610959E+02 -0.98105689706E+01  0.28709926140E+02  0.00000000000E+00 0. -1.
</event>
<event>
 5    1  0.1047411E-009  0.9118800E+02  0.7815553E-02  0.1125453E+00
         25   -1    0    0    0    0  0.00000000000E+00  0.00000000000E+00  0.99999998245E-14  0.12509000000E+03  0.12509000000E+03 0.  0.
        -11    1    3    3    0    0  0.42739776538E+01  0.39900893621E+02  0.39304618754E+02  0.56171178129E+02  0.51100000000E-03 0. -1.
         23    2    1    0    0    0 -0.16374347958E+02  0.12765316313E+02  0.23432516012E+02  0.93782566726E+02  0.88402570344E+02 0.  0.
         11    1    3    3    0    0 -0.20648325612E+02 -0.27135577308E+02 -0.15872102743E+02  0.37611388596E+02  0.51100000000E-03 0.  1.
         22    1    1    0    0    0  0.16374347958E+02 -0.12765316313E+02 -0.23432516012E+02  0.31307433274E+02  0.00000000000E+00 0. -1.
</event>
<event>
 4    1  0.1047411E-009  0.9118800E+02  0.7815553E-02  0.1125453E+00
         25   -1    0    0    0    0  0.00000000000E+00  0.00000000000E+00  0.99999998245E-14  0.12509000000E+03  0.12509000000E+03 0.  0.
        -11    1    1    0    0    0  0.13868039296E+02 -0.17148096435E+02  0.80455428176E+01  0.23475742475E+02  0.51100000000E-03 0.  1.
         11    1    1    0    0    0  0.36120110677E+02  0.25394247320E+02  0.14059887434E+02  0.46338004135E+02  0.51100000000E-03 0. -1.
         22    1    1    0    0    0 -0.49988149974E+02 -0.82461508845E+01 -0.22105430252E+02  0.55276253390E+02  0.00000000000E+00 0. -1.
</event>
<event>
 5    1  0.1047411E-009  0.9118800E+02  0.7815553E-02  0.1125453E+00
         25   -1    0    0    0    0  0.00000000000E+00  0.00000000000E+00  0.99999998245E-14  0.12509000000E+03  0.12509000000E+03 0.  0.
        -11    1    3    3    0    0  0.17314825246E+02 -0.57664371181E+02 -0.12464786213E+01  0.60220732196E+02  0.51100000000E-03 0. -1.
         23    2    1    0    0    0  0.14724963260E+02 -0.23096628191E+02 -0.99265153897E+01  0.95955579042E+02  0.91425700242E+02 0.  0.
         11    1    3    3    0    0 -0.25898619862E+01  0.34567742990E+02 -0.86800367683E+01  0.35734846846E+02  0.51100000000E-03 0.  1.
         22    1    1    0    0    0 -0.14724963260E+02  0.23096628191E+02  0.99265153897E+01  0.29134420958E+02  0.00000000000E+00 0. -1.
</event>
<event>
 5    1  0.1047411E-009  0.9118800E+02  0.7815553E-02  0.1125453E+00
         25   -1    0    0    0    0  0.00000000000E+00  0.00000000000E+00  0.99999998245E-14  0.12509000000E+03  0.12509000000E+03 0.  0.
        -11    1    3    3    0    0 -0.11833650816E+02  0.33308956069E+02  0.35687684183E+02  0.50230793829E+02  0.51100000000E-03 0. -1.
         23    2    1    0    0    0 -0.33526837248E+02  0.18509095402E+02  0.13914557330E+02  0.84343830435E+02  0.73848706139E+02 0.  0.
         11    1    3    3    0    0 -0.21693186432E+02 -0.14799860666E+02 -0.21773126853E+02  0.34113036607E+02  0.51100000000E-03 0.  1.
         22    1    1    0    0    0  0.33526837248E+02 -0.18509095402E+02 -0.13914557330E+02  0.40746169565E+02  0.00000000000E+00 0. -1.
</event>
<event>
 5    1  0.1047411E-009  0.9118800E+02  0.7815553E-02  0.1125453E+00
         25   -1    0    0    0    0  0.00000000000E+00  0.00000000000E+00  0.99999998245E-14  0.12509000000E+03  0.12509000000E+03 0.  0.
        -11    1    3    3    0    0  0.30449542662E+02 -0.41037270690E+02  0.34109266299E+02  0.61438377922E+02  0.51100000000E-03 0.  1.
         23    2    1    0    0    0  0.74365781405E+01 -0.18974726892E+02  0.20752952472E+02  0.96003439678E+02  0.91491160439E+02 0.  0.
         11    1    3    3    0    0 -0.23012964521E+02  0.22062543798E+02 -0.13356313826E+02  0.34565061756E+02  0.51100000000E-03 0. -1.
         22    1    1    0    0    0 -0.74365781405E+01  0.18974726892E+02 -0.20752952472E+02  0.29086560322E+02  0.00000000000E+00 0.  1.
</event>
<event>
 5    1  0.1047411E-009  0.9118800E+02  0.7815553E-02  0.1125453E+00
         25   -1    0    0    0    0  0.00000000000E+00  0.00000000000E+00  0.99999998245E-14  0.12509000000E+03  0.12509000000E+03 0.  0.
        -11    1    3    3    0    0  0.12924718701E+02 -0.46562480686E+02  0.21244226476E+01  0.48369681961E+02  0.51100000000E-03 0.  1.
         23    2    1    0    0    0 -0.26435208310E+01 -0.15691244270E+02 -0.27115203342E+02  0.93650572502E+02  0.88215600256E+02 0.  0.
         11    1    3    3    0    0 -0.15568239532E+02  0.30871236416E+02 -0.29239625989E+02  0.45280890541E+02  0.51100000000E-03 0. -1.
         22    1    1    0    0    0  0.26435208310E+01  0.15691244270E+02  0.27115203342E+02  0.31439427498E+02  0.00000000000E+00 0. -1.
</event>
<event>
 5    1  0.1047411E-009  0.9118800E+02  0.7815553E-02  0.1125453E+00
         25   -1    0    0    0    0  0.00000000000E+00  0.00000000000E+00  0.99999998245E-14  0.12509000000E+03  0.12509000000E+03 0.  0.
        -11    1    3    3    0    0 -0.35591822248E+02  0.22817032706E+01  0.19506668614E+01  0.35718189794E+02  0.51100000000E-03 0. -1.
         23    2    1    0    0    0  0.16169973194E+02 -0.40507929586E+01 -0.25480901556E+02  0.94640807879E+02  0.89608756354E+02 0.  0.
         11    1    3    3    0    0  0.51761795442E+02 -0.63324962292E+01 -0.27431568417E+02  0.58922618085E+02  0.51100000000E-03 0.  1.
         22    1    1    0    0    0 -0.16169973194E+02  0.40507929586E+01  0.25480901556E+02  0.30449192121E+02  0.00000000000E+00 0.  1.
</event>
<event>
 5    1  0.1047411E-009  0.9118800E+02  0.7815553E-02  0.1125453E+00
         25   -1    0    0    0    0  0.00000000000E+00  0.00000000000E+00  0.99999998245E-14  0.12509000000E+03  0.12509000000E+03 0.  0.
        -11    1    3    3    0    0 -0.21055844020E+02  0.27754622937E+02  0.90916647917E+01  0.36004527920E+02  0.51100000000E-03 0. -1.
         23    2    1    0    0    0  0.19709939249E+02 -0.15681018251E+02  0.14849722205E+02  0.95851493059E+02  0.91283177166E+02 0.  0.
         11    1    3    3    0    0  0.40765783269E+02 -0.43435641188E+02  0.57580574134E+01  0.59846965139E+02  0.51100000000E-03 0.  1.
         22    1    1    0    0    0 -0.19709939249E+02  0.15681018251E+02 -0.14849722205E+02  0.29238506941E+02  0.00000000000E+00 0.  1.
</event>
<event>
 5    1  0.1047411E-009  0.9118800E+02  0.7815553E-02  0.1125453E+00
         25   -1    0    0    0    0  0.00000000000E+00  0.00000000000E+00  0.99999998245E-14  0.12509000000E+03  0.12509000000E+03 0.  0.
        -11    1    3    3    0    0  0.12780868555E+02  0.33767270342E+02  0.12746595562E+00  0.36105337489E+02  0.51100000000E-03 0. -1.
         23    2    1    0    0    0 -0.23587524135E+02 -0.14956540409E+02  0.31656732692E+01  0.96981444664E+02  0.92818692762E+02 0.  0.
         11    1    3    3    0    0 -0.36368392690E+02 -0.48723810751E+02  0.30382073136E+01  0.60876107175E+02  0.51100000000E-03 0.  1.
         22    1    1    0    0    0  0.23587524135E+02  0.14956540409E+02 -0.31656732692E+01  0.28108555336E+02  0.00000000000E+00 0.  1.
</event>
<event>
 5    1  0.1047411E-009  0.9118800E+02  0.7815553E-02  0.1125453E+00
         25   -1    0    0    0    0  0.00000000000E+00  0.00000000000E+00  0.99999998245E-14  0.12509000000E+03  0.12509000000E+03 0.  0.
        -11    1    3    3    0    0 -0.14612160687E+02 -0.46735323991E+02  0.10644558067E+02  0.50110002646E+02  0.51100000000E-03 0. -1.
         23    2    1    0    0    0  0.19501125051E+02 -0.22376243814E+02 -0.52649518871E+01  0.94945184793E+02  0.90032650919E+02 0.  0.
         11    1    3    3    0    0  0.34113285738E+02  0.24359080177E+02 -0.15909509955E+02  0.44835182147E+02  0.51100000000E-03 0.  1.
         22    1    1    0    0    0 -0.19501125051E+02  0.22376243814E+02  0.52649518871E+01  0.30144815207E+02  0.00000000000E+00 0. -1.
</event>
<event>
 5    1  0.1047411E-009  0.9118800E+02  0.7815553E-02  0.1125453E+00
         25   -1    0    0    0    0  0.00000000000E+00  0.00000000000E+00  0.99999998245E-14  0.12509000000E+03  0.12509000000E+03 0.  0.
        -11    1    3    3    0    0  0.43445241110E+01 -0.43604888877E+02 -0.16246343548E+02  0.46735477987E+02  0.51100000000E-03 0. -1.
         23    2    1    0    0    0  0.28357248972E+02 -0.30077238553E+01 -0.15079101166E+00  0.96573290688E+02  0.92266991738E+02 0.  0.
         11    1    3    3    0    0  0.24012724861E+02  0.40597165022E+02  0.16095552537E+02  0.49837812701E+02  0.51100000000E-03 0.  1.
         22    1    1    0    0    0 -0.28357248972E+02  0.30077238553E+01  0.15079101166E+00  0.28516709312E+02  0.00000000000E+00 0. -1.
</event>
<event>
 5    1  0.1047411E-009  0.9118800E+02  0.7815553E-02  0.1125453E+00
         25   -1    0    0    0    0  0.00000000000E+00  0.00000000000E+00  0.99999998245E-14  0.12509000000E+03  0.12509000000E+03 0.  0.
        -11    1    3    3    0    0  0.25489599215E+02 -0.20640420449E+02  0.51139043698E+02  0.60753176172E+02  0.51100000000E-03 0.  1.
         23    2    1    0    0    0  0.16182366372E+02  0.79551524754E-01  0.24008047315E+02  0.96137251499E+02  0.91673930210E+02 0.  0.
         11    1    3    3    0    0 -0.93072328423E+01  0.20719971974E+02 -0.27130996383E+02  0.35384075327E+02  0.51100000000E-03 0. -1.
         22    1    1    0    0    0 -0.16182366372E+02 -0.79551524754E-01 -0.24008047315E+02  0.28952748501E+02  0.00000000000E+00 0.  1.
</event>
<event>
 5    1  0.1047411E-009  0.9118800E+02  0.7815553E-02  0.1125453E+00
         25   -1    0    0    0    0  0.00000000000E+00  0.00000000000E+00  0.99999998245E-14  0.12509000000E+03  0.12509000000E+03 0.  0.
        -11    1    3    3    0    0 -0.10971323561E+02  0.36159993972E+02  0.16813917760E+01  0.37825152786E+02  0.51100000000E-03 0. -1.
         23    2    1    0    0    0 -0.49218267279E+01 -0.14220404318E+02 -0.25568857036E+02  0.95421654454E+02  0.90692234570E+02 0.  0.
         11    1    3    3    0    0  0.60494968328E+01 -0.50380398290E+02 -0.27250248813E+02  0.57596501668E+02  0.51100000000E-03 0.  1.
         22    1    1    0    0    0  0.49218267279E+01  0.14220404318E+02  0.25568857036E+02  0.29668345546E+02  0.00000000000E+00 0.  1.
</event>
<event>
 5    1  0.1047411E-009  0.9118800E+02  0.7815553E-02  0.1125453E+00
         25   -1    0    0    0    0  0.00000000000E+00  0.00000000000E+00  0.99999998245E-14  0.12509000000E+03  0.12509000000E+03 0.  0.
        -11    1    3    3    0    0 -0.79221480718E+01 -0.64620849413E+01 -0.33826743684E+02  0.35337905433E+02  0.51100000000E-03 0. -1.
         23    2    1    0    0    0 -0.13872114411E+02  0.71505166071E+01  0.24783683438E+02  0.95801838386E+02  0.91215107451E+02 0.  0.
         11    1    3    3    0    0 -0.59499663390E+01  0.13612601548E+02  0.58610427122E+02  0.60463932953E+02  0.51100000000E-03 0.  1.
         22    1    1    0    0    0  0.13872114411E+02 -0.71505166071E+01 -0.24783683438E+02  0.29288161614E+02  0.00000000000E+00 0.  1.
</event>
<event>
 5    1  0.1047411E-009  0.9118800E+02  0.7815553E-02  0.1125453E+00
         25   -1    0    0    0    0  0.00000000000E+00  0.00000000000E+00  0.99999998245E-14  0.12509000000E+03  0.12509000000E+03 0.  0.
        -11    1    3    3    0    0 -0.25079004644E+02  0.24394341571E+02  0.12098869784E+02  0.37019225072E+02  0.51100000000E-03 0. -1.
         23    2    1    0    0    0  0.11485410797E+02 -0.61066165508E+01 -0.24684401271E+02  0.97187937478E+02  0.93096563300E+02 0.  0.
         11    1    3    3    0    0  0.36564415441E+02 -0.30500958122E+02 -0.36783271055E+02  0.60168712406E+02  0.51100000000E-03 0.  1.
         22    1    1    0    0    0 -0.11485410797E+02  0.61066165508E+01  0.24684401271E+02  0.27902062522E+02  0.00000000000E+00 0.  1.
</event>
<event>
 5    1  0.1047411E-009  0.9118800E+02  0.7815553E-02  0.1125453E+00
         25   -1    0    0    0    0  0.00000000000E+00  0.00000000000E+00  0.99999998245E-14  0.12509000000E+03  0.12509000000E+03 0.  0.
        -11    1    3    3    0    0  0.36470972755E+02  0.43326317544E+02 -0.67139950251E+01  0.57029635936E+02  0.51100000000E-03 0.  1.
         23    2    1    0    0    0  0.88296549174E+01  0.26921355125E+02  0.12109084499E+02  0.94278442183E+02  0.89101473418E+02 0.  0.
         11    1    3    3    0    0 -0.27641317837E+02 -0.16404962419E+02  0.18823079524E+02  0.37248806246E+02  0.51100000000E-03 0. -1.
         22    1    1    0    0    0 -0.88296549174E+01 -0.26921355125E+02 -0.12109084499E+02  0.30811557817E+02  0.00000000000E+00 0.  1.
</event>
<event>
 5    1  0.1047411E-009  0.9118800E+02  0.7815553E-02  0.1125453E+00
         25   -1    0    0    0    0  0.00000000000E+00  0.00000000000E+00  0.99999998245E-14  0.12509000000E+03  0.12509000000E+03 0.  0.
        -11    1    3    3    0    0  0.50730669620E+01  0.40313895817E+02  0.42925007272E+02  0.59105858034E+02  0.51100000000E-03 0.  1.
         23    2    1    0    0    0  0.29142689061E+01  0.25384365115E+01  0.22805061012E+02  0.10195977235E+03  0.99301499221E+02 0.  0.
         11    1    3    3    0    0 -0.21587980559E+01 -0.37775459306E+02 -0.20119946260E+02  0.42853914320E+02  0.51100000000E-03 0. -1.
         22    1    1    0    0    0 -0.29142689061E+01 -0.25384365115E+01 -0.22805061012E+02  0.23130227646E+02  0.00000000000E+00 0.  1.
</event>
<event>
 5    1  0.1047411E-009  0.9118800E+02  0.7815553E-02  0.1125453E+00
         25   -1    0    0    0    0  0.00000000000E+00  0.00000000000E+00  0.99999998245E-14  0.12509000000E+03  0.12509000000E+03 0.  0.
        -11    1    3    3    0    0  0.36160712506E+02  0.50142255273E+02 -0.51398564161E+00  0.61823192042E+02  0.51100000000E-03 0. -1.
         23    2    1    0    0    0  0.12133969567E+02  0.26318548445E+02 -0.39843608490E+01  0.95836379009E+02  0.91262463261E+02 0.  0.
         11    1    3    3    0    0 -0.24026742939E+02 -0.23823706828E+02 -0.34703752074E+01  0.34013186967E+02  0.51100000000E-03 0.  1.
         22    1    1    0    0    0 -0.12133969567E+02 -0.26318548445E+02  0.39843608490E+01  0.29253620991E+02  0.00000000000E+00 0. -1.
</event>
<event>
 4    1  0.1047411E-009  0.9118800E+02  0.7815553E-02  0.1125453E+00
         25   -1    0    0    0    0  0.00000000000E+00  0.00000000000E+00  0.99999998245E-14  0.12509000000E+03  0.12509000000E+03 0.  0.
        -11    1    1    0    0    0  0.79285752242E+01  0.10113378228E+01 -0.14638147301E+02  0.16678143360E+02  0.51100000000E-03 0.  1.
         11    1    1    0    0    0 -0.11323862023E+02 -0.52724189300E+02  0.16974642460E+02  0.56535019902E+02  0.51100000000E-03 0. -1.
         22    1    1    0    0    0  0.33952867985E+01  0.51712851477E+02 -0.23364951585E+01  0.51876836738E+02  0.00000000000E+00 0. -1.
</event>
<event>
 5    1  0.1047411E-009  0.9118800E+02  0.7815553E-02  0.1125453E+00
         25   -1    0    0    0    0  0.00000000000E+00  0.00000000000E+00  0.99999998245E-14  0.12509000000E+03  0.12509000000E+03 0.  0.
        -11    1    3    3    0    0  0.11649484668E+02 -0.48893527217E+01 -0.40021931841E+02  0.41968694185E+02  0.51100000000E-03 0. -1.
         23    2    1    0    0    0  0.25223671149E+02 -0.18362785045E+01  0.12907455383E+02  0.96696199454E+02  0.92433473804E+02 0.  0.
         11    1    3    3    0    0  0.13574186481E+02  0.30530742172E+01  0.52929387224E+02  0.54727505269E+02  0.51100000000E-03 0.  1.
         22    1    1    0    0    0 -0.25223671149E+02  0.18362785045E+01 -0.12907455383E+02  0.28393800546E+02  0.00000000000E+00 0. -1.
</event>
<event>
 5    1  0.1047411E-009  0.9118800E+02  0.7815553E-02  0.1125453E+00
         25   -1    0    0    0    0  0.00000000000E+00  0.00000000000E+00  0.99999998245E-14  0.12509000000E+03  0.12509000000E+03 0.  0.
        -11    1    3    3    0    0  0.22337102359E+02 -0.34176467284E+02 -0.22156467960E+02  0.46453052973E+02  0.51100000000E-03 0. -1.
         23    2    1    0    0    0  0.62869410993E+01  0.10689033558E+02 -0.28006544426E+02  0.94460804818E+02  0.89357126461E+02 0.  0.
         11    1    3    3    0    0 -0.16050161260E+02  0.44865500842E+02 -0.58500764663E+01  0.48007751845E+02  0.51100000000E-03 0.  1.
         22    1    1    0    0    0 -0.62869410993E+01 -0.10689033558E+02  0.28006544426E+02  0.30629195182E+02  0.00000000000E+00 0. -1.
</event>
<event>
 5    1  0.1047411E-009  0.9118800E+02  0.7815553E-02  0.1125453E+00
         25   -1    0    0    0    0  0.00000000000E+00  0.00000000000E+00  0.99999998245E-14  0.12509000000E+03  0.12509000000E+03 0.  0.
        -11    1    3    3    0    0  0.22887547301E+02 -0.85994797824E+01  0.21118607692E+02  0.32307684304E+02  0.51100000000E-03 0. -1.
         23    2    1    0    0    0 -0.19611747869E+02  0.14724678039E+02 -0.18055622530E+02  0.94636062606E+02  0.89602131910E+02 0.  0.
         11    1    3    3    0    0 -0.42499295170E+02  0.23324157821E+02 -0.39174230222E+02  0.62328378302E+02  0.51100000000E-03 0.  1.
         22    1    1    0    0    0  0.19611747869E+02 -0.14724678039E+02  0.18055622530E+02  0.30453937394E+02  0.00000000000E+00 0.  1.
</event>
<event>
 5    1  0.1047411E-009  0.9118800E+02  0.7815553E-02  0.1125453E+00
         25   -1    0    0    0    0  0.00000000000E+00  0.00000000000E+00  0.99999998245E-14  0.12509000000E+03  0.12509000000E+03 0.  0.
        -11    1    3    3    0    0  0.24315545316E+02  0.29622766284E+02 -0.98464148028E+01  0.39569001896E+02  0.51100000000E-03 0. -1.
         23    2    1    0    0    0 -0.20569526741E+02  0.13813601973E+02  0.17778776654E+02  0.94594001424E+02  0.89543392701E+02 0.  0.
         11    1    3    3    0    0 -0.44885072057E+02 -0.15809164312E+02  0.27625191457E+02  0.55024999528E+02  0.51100000000E-03 0.  1.
         22    1    1    0    0    0  0.20569526741E+02 -0.13813601973E+02 -0.17778776654E+02  0.30495998576E+02  0.00000000000E+00 0.  1.
</event>
<event>
 5    1  0.1047411E-009  0.9118800E+02  0.7815553E-02  0.1125453E+00
         25   -1    0    0    0    0  0.00000000000E+00  0.00000000000E+00  0.99999998245E-14  0.12509000000E+03  0.12509000000E+03 0.  0.
        -11    1    3    3    0    0  0.87174814769E+01  0.27574493943E+02  0.42643853919E+02  0.51525192643E+02  0.51100000000E-03 0.  1.
         23    2    1    0    0    0 -0.11431612701E+02  0.24329682529E+02  0.66715444486E+00  0.98200219117E+02  0.94446930700E+02 0.  0.
         11    1    3    3    0    0 -0.20149094178E+02 -0.32448114140E+01 -0.41976699474E+02  0.46675026474E+02  0.51100000000E-03 0. -1.
         22    1    1    0    0    0  0.11431612701E+02 -0.24329682529E+02 -0.66715444486E+00  0.26889780883E+02  0.00000000000E+00 0. -1.
</event>
<event>
 5    1  0.1047411E-009  0.9118800E+02  0.7815553E-02  0.1125453E+00
         25   -1    0    0    0    0  0.00000000000E+00  0.00000000000E+00  0.99999998245E-14  0.12509000000E+03  0.12509000000E+03 0.  0.
        -11    1    3    3    0    0  0.34327700799E+02 -0.49432118156E+02 -0.16196943298E+02  0.62323882420E+02  0.51100000000E-03 0. -1.
         23    2    1    0    0    0  0.16185498253E+02 -0.22411406257E+02 -0.11248736863E+02  0.95244136549E+02  0.90447056236E+02 0.  0.
         11    1    3    3    0    0 -0.18142202546E+02  0.27020711898E+02  0.49482064356E+01  0.32920254129E+02  0.51100000000E-03 0.  1.
         22    1    1    0    0    0 -0.16185498253E+02  0.22411406257E+02  0.11248736863E+02  0.29845863451E+02  0.00000000000E+00 0. -1.
</event>
<event>
 5    1  0.1047411E-009  0.9118800E+02  0.7815553E-02  0.1125453E+00
         25   -1    0    0    0    0  0.00000000000E+00  0.00000000000E+00  0.99999998245E-14  0.12509000000E+03  0.12509000000E+03 0.  0.
        -11    1    3    3    0    0 -0.10173974381E+02  0.56126776416E+01  0.29945637151E+02  0.32120913587E+02  0.51100000000E-03 0.  1.
         23    2    1    0    0    0  0.25832163106E+02  0.87704779649E+01 -0.18179125368E+02  0.92307344012E+02  0.86289879041E+02 0.  0.
         11    1    3    3    0    0  0.36006137488E+02  0.31578003232E+01 -0.48124762518E+02  0.60186430426E+02  0.51100000000E-03 0. -1.
         22    1    1    0    0    0 -0.25832163106E+02 -0.87704779649E+01  0.18179125368E+02  0.32782655988E+02  0.00000000000E+00 0. -1.
</event>
<event>
 5    1  0.1047411E-009  0.9118800E+02  0.7815553E-02  0.1125453E+00
         25   -1    0    0    0    0  0.00000000000E+00  0.00000000000E+00  0.99999998245E-14  0.12509000000E+03  0.12509000000E+03 0.  0.
        -11    1    3    3    0    0 -0.19711012720E+02  0.31163850109E+02 -0.51589266037E+01  0.37233373471E+02  0.51100000000E-03 0. -1.
         23    2    1    0    0    0  0.32689371481E+01 -0.25875925823E+02  0.63611058563E+00  0.99000651140E+02  0.95501176967E+02 0.  0.
         11    1    3    3    0    0  0.22979949868E+02 -0.57039775932E+02  0.57950371893E+01  0.61767277669E+02  0.51100000000E-03 0.  1.
         22    1    1    0    0    0 -0.32689371481E+01  0.25875925823E+02 -0.63611058563E+00  0.26089348860E+02  0.00000000000E+00 0.  1.
</event>
<event>
 5    1  0.1047411E-009  0.9118800E+02  0.7815553E-02  0.1125453E+00
         25   -1    0    0    0    0  0.00000000000E+00  0.00000000000E+00  0.99999998245E-14  0.12509000000E+03  0.12509000000E+03 0.  0.
        -11    1    3    3    0    0 -0.15937051124E+02  0.46652786705E+01 -0.31137505460E+02  0.35288789581E+02  0.51100000000E-03 0.  1.
         23    2    1    0    0    0  0.74013304436E+01 -0.21953183107E+02  0.17930804705E+02  0.95794339941E+02  0.91204823702E+02 0.  0.
         11    1    3    3    0    0  0.23338381567E+02 -0.26618461778E+02  0.49068310166E+02  0.60505550360E+02  0.51100000000E-03 0. -1.
         22    1    1    0    0    0 -0.74013304436E+01  0.21953183107E+02 -0.17930804705E+02  0.29295660059E+02  0.00000000000E+00 0. -1.
</event>
<event>
 5    1  0.1047411E-009  0.9118800E+02  0.7815553E-02  0.1125453E+00
         25   -1    0    0    0    0  0.00000000000E+00  0.00000000000E+00  0.99999998245E-14  0.12509000000E+03  0.12509000000E+03 0.  0.
        -11    1    3    3    0    0  0.29382263011E+02 -0.10348907460E+02  0.63780080811E+01  0.31797739741E+02  0.51100000000E-03 0.  1.
         23    2    1    0    0    0 -0.20779693309E+02  0.24399299004E+02  0.25781874808E+01  0.92937729527E+02  0.87198928165E+02 0.  0.
         11    1    3    3    0    0 -0.50161956320E+02  0.34748206464E+02 -0.37998206003E+01  0.61139989787E+02  0.51100000000E-03 0. -1.
         22    1    1    0    0    0  0.20779693309E+02 -0.24399299004E+02 -0.25781874808E+01  0.32152270473E+02  0.00000000000E+00 0. -1.
</event>
<event>
 5    1  0.1047411E-009  0.9118800E+02  0.7815553E-02  0.1125453E+00
         25   -1    0    0    0    0  0.00000000000E+00  0.00000000000E+00  0.99999998245E-14  0.12509000000E+03  0.12509000000E+03 0.  0.
        -11    1    3    3    0    0 -0.40740617514E+02 -0.44997712846E+02 -0.53816787964E+01  0.60938941111E+02  0.51100000000E-03 0.  1.
         23    2    1    0    0    0 -0.26275602246E+02 -0.14683861168E+02 -0.52971326120E+01  0.94527233991E+02  0.89450071548E+02 0.  0.
         11    1    3    3    0    0  0.14465015269E+02  0.30313851678E+02  0.84546184343E-01  0.33588292880E+02  0.51100000000E-03 0. -1.
         22    1    1    0    0    0  0.26275602246E+02  0.14683861168E+02  0.52971326120E+01  0.30562766009E+02  0.00000000000E+00 0.  1.
</event>
<event>
 5    1  0.1047411E-009  0.9118800E+02  0.7815553E-02  0.1125453E+00
         25   -1    0    0    0    0  0.00000000000E+00  0.00000000000E+00  0.99999998245E-14  0.12509000000E+03  0.12509000000E+03 0.  0.
        -11    1    3    3    0    0 -0.15639746478E+02  0.54511399074E+02  0.79104570063E+01  0.57259668434E+02  0.51100000000E-03 0.  1.
         23    2    1    0    0    0  0.32133495344E+01  0.13932441162E+02  0.16956639382E+02  0.10290969001E+03  0.10049098541E+03 0.  0.
         11    1    3    3    0    0  0.18853096012E+02 -0.40578957912E+02  0.90461823753E+01  0.45650021580E+02  0.51100000000E-03 0. -1.
         22    1    1    0    0    0 -0.32133495344E+01 -0.13932441162E+02 -0.16956639382E+02  0.22180309986E+02  0.00000000000E+00 0.  1.
</event>
<event>
 5    1  0.1047411E-009  0.9118800E+02  0.7815553E-02  0.1125453E+00
         25   -1    0    0    0    0  0.00000000000E+00  0.00000000000E+00  0.99999998245E-14  0.12509000000E+03  0.12509000000E+03 0.  0.
        -11    1    3    3    0    0 -0.16511741664E+02 -0.47055283471E+02  0.13284164446E+02  0.51607231476E+02  0.51100000000E-03 0. -1.
         23    2    1    0    0    0  0.15986284695E+02 -0.28955848944E+02 -0.22919637580E+01  0.91934976485E+02  0.85748377926E+02 0.  0.
         11    1    3    3    0    0  0.32498026358E+02  0.18099434527E+02 -0.15576128204E+02  0.40327745009E+02  0.51100000000E-03 0.  1.
         22    1    1    0    0    0 -0.15986284695E+02  0.28955848944E+02  0.22919637580E+01  0.33155023515E+02  0.00000000000E+00 0. -1.
</event>
<event>
 5    1  0.1047411E-009  0.9118800E+02  0.7815553E-02  0.1125453E+00
         25   -1    0    0    0    0  0.00000000000E+00  0.00000000000E+00  0.99999998245E-14  0.12509000000E+03  0.12509000000E+03 0.  0.
        -11    1    3    3    0    0 -0.32859546386E+02 -0.16976273647E+02 -0.49930519417E+01  0.37321230199E+02  0.51100000000E-03 0.  1.
         23    2    1    0    0    0  0.79888384292E+01  0.25858620017E+02 -0.87933559179E+01  0.96632788666E+02  0.92347620264E+02 0.  0.
         11    1    3    3    0    0  0.40848384816E+02  0.42834893663E+02 -0.38003039762E+01  0.59311558467E+02  0.51100000000E-03 0. -1.
         22    1    1    0    0    0 -0.79888384292E+01 -0.25858620017E+02  0.87933559179E+01  0.28457211334E+02  0.00000000000E+00 0. -1.
</event>
<event>
 5    1  0.1047411E-009  0.9118800E+02  0.7815553E-02  0.1125453E+00
         25   -1    0    0    0    0  0.00000000000E+00  0.00000000000E+00  0.99999998245E-14  0.12509000000E+03  0.12509000000E+03 0.  0.
        -11    1    3    3    0    0 -0.38593667569E+01  0.25702879654E+01  0.35624657093E+02  0.35925162285E+02  0.51100000000E-03 0. -1.
         23    2    1    0    0    0  0.61223108865E+01  0.29731062390E+02 -0.12647176736E+02  0.92205811690E+02  0.86142567111E+02 0.  0.
         11    1    3    3    0    0  0.99816776433E+01  0.27160774425E+02 -0.48271833829E+02  0.56280649404E+02  0.51100000000E-03 0.  1.
         22    1    1    0    0    0 -0.61223108865E+01 -0.29731062390E+02  0.12647176736E+02  0.32884188310E+02  0.00000000000E+00 0.  1.
</event>
<event>
 5    1  0.1047411E-009  0.9118800E+02  0.7815553E-02  0.1125453E+00
         25   -1    0    0    0    0  0.00000000000E+00  0.00000000000E+00  0.99999998245E-14  0.12509000000E+03  0.12509000000E+03 0.  0.
        -11    1    3    3    0    0  0.26925543650E+02 -0.14077574188E+02  0.12963483353E+02  0.33033541996E+02  0.51100000000E-03 0.  1.
         23    2    1    0    0    0 -0.26592687045E+02  0.82764066920E+01 -0.10120038498E+02  0.95457499410E+02  0.90741661338E+02 0.  0.
         11    1    3    3    0    0 -0.53518230696E+02  0.22353980880E+02 -0.23083521850E+02  0.62423957414E+02  0.51100000000E-03 0. -1.
         22    1    1    0    0    0  0.26592687045E+02 -0.82764066920E+01  0.10120038498E+02  0.29632500590E+02  0.00000000000E+00 0. -1.
</event>
<event>
 5    1  0.1047411E-009  0.9118800E+02  0.7815553E-02  0.1125453E+00
         25   -1    0    0    0    0  0.00000000000E+00  0.00000000000E+00  0.99999998245E-14  0.12509000000E+03  0.12509000000E+03 0.  0.
        -11    1    3    3    0    0 -0.23712378789E+02 -0.34743435152E+02 -0.20981602652E+02  0.47006497893E+02  0.51100000000E-03 0. -1.
         23    2    1    0    0    0  0.20678830160E+02 -0.14608151945E+02 -0.13733794659E+02  0.96286714844E+02  0.91877648096E+02 0.  0.
         11    1    3    3    0    0  0.44391208949E+02  0.20135283207E+02  0.72478079934E+01  0.49280216951E+02  0.51100000000E-03 0.  1.
         22    1    1    0    0    0 -0.20678830160E+02  0.14608151945E+02  0.13733794659E+02  0.28803285156E+02  0.00000000000E+00 0.  1.
</event>
<event>
 5    1  0.1047411E-009  0.9118800E+02  0.7815553E-02  0.1125453E+00
         25   -1    0    0    0    0  0.00000000000E+00  0.00000000000E+00  0.99999998245E-14  0.12509000000E+03  0.12509000000E+03 0.  0.
        -11    1    3    3    0    0 -0.11562315309E+02 -0.30046913730E+02  0.47767522319E+02  0.57604169543E+02  0.51100000000E-03 0.  1.
         23    2    1    0    0    0 -0.15326091287E+02  0.62225385700E+00  0.24085943969E+02  0.96534633238E+02  0.92214567415E+02 0.  0.
         11    1    3    3    0    0 -0.37637759786E+01  0.30669167587E+02 -0.23681578350E+02  0.38930463695E+02  0.51100000000E-03 0. -1.
         22    1    1    0    0    0  0.15326091287E+02 -0.62225385700E+00 -0.24085943969E+02  0.28555366762E+02  0.00000000000E+00 0.  1.
</event>
<event>
 5    1  0.1047411E-009  0.9118800E+02  0.7815553E-02  0.1125453E+00
         25   -1    0    0    0    0  0.00000000000E+00  0.00000000000E+00  0.99999998245E-14  0.12509000000E+03  0.12509000000E+03 0.  0.
        -11    1    3    3    0    0 -0.87639684797E+01  0.46959743162E+02 -0.36866654781E+02  0.60342148258E+02  0.51100000000E-03 0.  1.
         23    2    1    0    0    0  0.42998768812E+01  0.11482549927E+02 -0.19752367307E+02  0.10184147514E+03  0.99152368353E+02 0.  0.
         11    1    3    3    0    0  0.13063845361E+02 -0.35477193235E+02  0.17114287474E+02  0.41499326880E+02  0.51100000000E-03 0. -1.
         22    1    1    0    0    0 -0.42998768812E+01 -0.11482549927E+02  0.19752367307E+02  0.23248524862E+02  0.00000000000E+00 0.  1.
</event>
<event>
 5    1  0.1047411E-009  0.9118800E+02  0.7815553E-02  0.1125453E+00
         25   -1    0    0    0    0  0.00000000000E+00  0.00000000000E+00  0.99999998245E-14  0.12509000000E+03  0.12509000000E+03 0.  0.
        -11    1    3    3    0    0 -0.32144158361E+02 -0.32498344102E+02  0.27352942241E+02  0.53268872107E+02  0.51100000000E-03 0.  1.
         23    2    1    0    0    0 -0.20473044247E+02  0.73022379205E+01  0.20314943212E+02  0.95338275057E+02  0.90577158014E+02 0.  0.
         11    1    3    3    0    0  0.11671114114E+02  0.39800582022E+02 -0.70379990295E+01  0.42069402950E+02  0.51100000000E-03 0. -1.
         22    1    1    0    0    0  0.20473044247E+02 -0.73022379205E+01 -0.20314943212E+02  0.29751724943E+02  0.00000000000E+00 0. -1.
</event>
<event>
 5    1  0.1047411E-009  0.9118800E+02  0.7815553E-02  0.1125453E+00
         25   -1    0    0    0    0  0.00000000000E+00  0.00000000000E+00  0.99999998245E-14  0.12509000000E+03  0.12509000000E+03 0.  0.
        -11    1    3    3    0    0  0.50038248512E+02  0.21600619004E+02 -0.63094735877E+01  0.54865494736E+02  0.51100000000E-03 0. -1.
         23    2    1    0    0    0  0.20211627284E+02  0.10614001759E+02  0.18914290008E+02  0.95443460956E+02  0.90722306860E+02 0.  0.
         11    1    3    3    0    0 -0.29826621228E+02 -0.10986617245E+02  0.25223763595E+02  0.40577966220E+02  0.51100000000E-03 0.  1.
         22    1    1    0    0    0 -0.20211627284E+02 -0.10614001759E+02 -0.18914290008E+02  0.29646539044E+02  0.00000000000E+00 0. -1.
</event>
<event>
 5    1  0.1047411E-009  0.9118800E+02  0.7815553E-02  0.1125453E+00
         25   -1    0    0    0    0  0.00000000000E+00  0.00000000000E+00  0.99999998245E-14  0.12509000000E+03  0.12509000000E+03 0.  0.
        -11    1    3    3    0    0 -0.81018311769E+01  0.57468775289E+02 -0.73339157340E+01  0.58498599315E+02  0.51100000000E-03 0.  1.
         23    2    1    0    0    0  0.33494105713E+01  0.22291840265E+02 -0.17141906320E+02  0.96770578292E+02  0.92534075762E+02 0.  0.
         11    1    3    3    0    0  0.11451241748E+02 -0.35176935023E+02 -0.98079905858E+01  0.38271978977E+02  0.51100000000E-03 0. -1.
         22    1    1    0    0    0 -0.33494105713E+01 -0.22291840265E+02  0.17141906320E+02  0.28319421708E+02  0.00000000000E+00 0.  1.
</event>
<event>
 5    1  0.1047411E-009  0.9118800E+02  0.7815553E-02  0.1125453E+00
         25   -1    0    0    0    0  0.00000000000E+00  0.00000000000E+00  0.99999998245E-14  0.12509000000E+03  0.12509000000E+03 0.  0.
        -11    1    3    3    0    0 -0.30549956943E+02 -0.73789597312E+01  0.37955520254E+02  0.49278498698E+02  0.51100000000E-03 0.  1.
         23    2    1    0    0    0 -0.12305376895E+02  0.24819241437E+02  0.10077992571E+02  0.95611482732E+02  0.90953684093E+02 0.  0.
         11    1    3    3    0    0  0.18244580048E+02  0.32198201168E+02 -0.27877527683E+02  0.46332984034E+02  0.51100000000E-03 0. -1.
         22    1    1    0    0    0  0.12305376895E+02 -0.24819241437E+02 -0.10077992571E+02  0.29478517268E+02  0.00000000000E+00 0.  1.
</event>
<event>
 5    1  0.1047411E-009  0.9118800E+02  0.7815553E-02  0.1125453E+00
         25   -1    0    0    0    0  0.00000000000E+00  0.00000000000E+00  0.99999998245E-14  0.12509000000E+03  0.12509000000E+03 0.  0.
        -11    1    3    3    0    0  0.56075892514E+02 -0.58008741614E+01  0.58846797692E+01  0.56681437160E+02  0.51100000000E-03 0. -1.
         23    2    1    0    0    0  0.43670947580E+02 -0.90889940177E+01 -0.12188981603E+02  0.78847889892E+02  0.63864364031E+02 0.  0.
         11    1    3    3    0    0 -0.12404944935E+02 -0.32881198562E+01 -0.18073661372E+02  0.22166452731E+02  0.51100000000E-03 0.  1.
         22    1    1    0    0    0 -0.43670947580E+02  0.90889940177E+01  0.12188981603E+02  0.46242110108E+02  0.00000000000E+00 0. -1.
</event>
<event>
 5    1  0.1047411E-009  0.9118800E+02  0.7815553E-02  0.1125453E+00
         25   -1    0    0    0    0  0.00000000000E+00  0.00000000000E+00  0.99999998245E-14  0.12509000000E+03  0.12509000000E+03 0.  0.
        -11    1    3    3    0    0 -0.21647992124E+02 -0.52042080841E+02  0.21853204626E+02  0.60453091682E+02  0.51100000000E-03 0. -1.
         23    2    1    0    0    0 -0.20230252707E+02 -0.19120417621E+02  0.88078289278E+01  0.95893573078E+02  0.91340823363E+02 0.  0.
         11    1    3    3    0    0  0.14177394172E+01  0.32921663220E+02 -0.13045375698E+02  0.35440481396E+02  0.51100000000E-03 0.  1.
         22    1    1    0    0    0  0.20230252707E+02  0.19120417621E+02 -0.88078289278E+01  0.29196426922E+02  0.00000000000E+00 0. -1.
</event>
<event>
 5    1  0.1047411E-009  0.9118800E+02  0.7815553E-02  0.1125453E+00
         25   -1    0    0    0    0  0.00000000000E+00  0.00000000000E+00  0.99999998245E-14  0.12509000000E+03  0.12509000000E+03 0.  0.
        -11    1    3    3    0    0 -0.28852875036E+02  0.16775564500E+02 -0.22528574015E+02  0.40267165403E+02  0.51100000000E-03 0.  1.
         23    2    1    0    0    0 -0.40658528113E+01 -0.28868514798E+02 -0.13404349546E+02  0.93002636561E+02  0.87291989980E+02 0.  0.
         11    1    3    3    0    0  0.24787022225E+02 -0.45644079299E+02  0.91242244696E+01  0.52735471158E+02  0.51100000000E-03 0. -1.
         22    1    1    0    0    0  0.40658528113E+01  0.28868514798E+02  0.13404349546E+02  0.32087363439E+02  0.00000000000E+00 0. -1.
</event>
<event>
 5    1  0.1047411E-009  0.9118800E+02  0.7815553E-02  0.1125453E+00
         25   -1    0    0    0    0  0.00000000000E+00  0.00000000000E+00  0.99999998245E-14  0.12509000000E+03  0.12509000000E+03 0.  0.
        -11    1    3    3    0    0  0.31905803575E+01 -0.42128754508E+02 -0.41945977780E+02  0.59535508829E+02  0.51100000000E-03 0. -1.
         23    2    1    0    0    0 -0.11537178733E+02 -0.21610064694E+02 -0.15519230403E+02  0.96090898264E+02  0.91610658919E+02 0.  0.
         11    1    3    3    0    0 -0.14727759091E+02  0.20518689814E+02  0.26426747377E+02  0.36555389434E+02  0.51100000000E-03 0.  1.
         22    1    1    0    0    0  0.11537178733E+02  0.21610064694E+02  0.15519230403E+02  0.28999101736E+02  0.00000000000E+00 0. -1.
</event>
<event>
 5    1  0.1047411E-009  0.9118800E+02  0.7815553E-02  0.1125453E+00
         25   -1    0    0    0    0  0.00000000000E+00  0.00000000000E+00  0.99999998245E-14  0.12509000000E+03  0.12509000000E+03 0.  0.
        -11    1    3    3    0    0  0.53713540410E+01  0.19884632378E+02  0.30014530967E+02  0.36402226834E+02  0.51100000000E-03 0.  1.
         23    2    1    0    0    0  0.85144560868E+01 -0.22442952190E+02 -0.13798402759E+02  0.97402855255E+02  0.93384892930E+02 0.  0.
         11    1    3    3    0    0  0.31431020458E+01 -0.42327584568E+02 -0.43812933726E+02  0.61000628421E+02  0.51100000000E-03 0. -1.
         22    1    1    0    0    0 -0.85144560868E+01  0.22442952190E+02  0.13798402759E+02  0.27687144745E+02  0.00000000000E+00 0. -1.
</event>
<event>
 5    1  0.1047411E-009  0.9118800E+02  0.7815553E-02  0.1125453E+00
         25   -1    0    0    0    0  0.00000000000E+00  0.00000000000E+00  0.99999998245E-14  0.12509000000E+03  0.12509000000E+03 0.  0.
        -11    1    3    3    0    0 -0.94549790599E+01 -0.27609265117E+02  0.19940576214E+02  0.35345363619E+02  0.51100000000E-03 0.  1.
         23    2    1    0    0    0  0.27822830232E+02  0.37731278797E+01 -0.12985204913E+02  0.94155198841E+02  0.88928283162E+02 0.  0.
         11    1    3    3    0    0  0.37277809292E+02  0.31382392997E+02 -0.32925781127E+02  0.58809835222E+02  0.51100000000E-03 0. -1.
         22    1    1    0    0    0 -0.27822830232E+02 -0.37731278797E+01  0.12985204913E+02  0.30934801159E+02  0.00000000000E+00 0. -1.
</event>
<event>
 5    1  0.1047411E-009  0.9118800E+02  0.7815553E-02  0.1125453E+00
         25   -1    0    0    0    0  0.00000000000E+00  0.00000000000E+00  0.99999998245E-14  0.12509000000E+03  0.12509000000E+03 0.  0.
        -11    1    3    3    0    0  0.54567633692E+02 -0.15751458616E+02 -0.21975684995E+02  0.60898816298E+02  0.51100000000E-03 0.  1.
         23    2    1    0    0    0  0.28323312906E+02 -0.20872741511E+01 -0.19580832750E+01  0.96622459582E+02  0.92333627884E+02 0.  0.
         11    1    3    3    0    0 -0.26244320786E+02  0.13664184465E+02  0.20017601720E+02  0.35723643284E+02  0.51100000000E-03 0. -1.
         22    1    1    0    0    0 -0.28323312906E+02  0.20872741511E+01  0.19580832750E+01  0.28467540418E+02  0.00000000000E+00 0.  1.
</event>
<event>
 5    1  0.1047411E-009  0.9118800E+02  0.7815553E-02  0.1125453E+00
         25   -1    0    0    0    0  0.00000000000E+00  0.00000000000E+00  0.99999998245E-14  0.12509000000E+03  0.12509000000E+03 0.  0.
        -11    1    3    3    0    0  0.74537401407E+01 -0.45363357738E+02  0.19646201972E+02  0.49993656793E+02  0.51100000000E-03 0. -1.
         23    2    1    0    0    0 -0.22279621251E+02 -0.15312271473E+02  0.18589063046E+02  0.92281457734E+02  0.86252344871E+02 0.  0.
         11    1    3    3    0    0 -0.29733361391E+02  0.30051086266E+02 -0.10571389266E+01  0.42287800940E+02  0.51100000000E-03 0.  1.
         22    1    1    0    0    0  0.22279621251E+02  0.15312271473E+02 -0.18589063046E+02  0.32808542266E+02  0.00000000000E+00 0.  1.
</event>
<event>
 5    1  0.1047411E-009  0.9118800E+02  0.7815553E-02  0.1125453E+00
         25   -1    0    0    0    0  0.00000000000E+00  0.00000000000E+00  0.99999998245E-14  0.12509000000E+03  0.12509000000E+03 0.  0.
        -11    1    3    3    0    0  0.17115358900E+02 -0.11088632339E+02  0.29065464757E+02  0.35506260282E+02  0.51100000000E-03 0.  1.
         23    2    1    0    0    0 -0.19889259739E+02  0.21430557287E+02 -0.50371407746E+01  0.95421426968E+02  0.90691920802E+02 0.  0.
         11    1    3    3    0    0 -0.37004618639E+02  0.32519189627E+02 -0.34102605532E+02  0.59915166685E+02  0.51100000000E-03 0. -1.
         22    1    1    0    0    0  0.19889259739E+02 -0.21430557287E+02  0.50371407746E+01  0.29668573032E+02  0.00000000000E+00 0. -1.
</event>
<event>
 5    1  0.1047411E-009  0.9118800E+02  0.7815553E-02  0.1125453E+00
         25   -1    0    0    0    0  0.00000000000E+00  0.00000000000E+00  0.99999998245E-14  0.12509000000E+03  0.12509000000E+03 0.  0.
        -11    1    3    3    0    0  0.25545388952E+02 -0.10132798054E+02 -0.53165468936E+02  0.59848204489E+02  0.51100000000E-03 0.  1.
         23    2    1    0    0    0  0.32121357059E+01 -0.13733686869E+02 -0.28337788746E+02  0.93436212836E+02  0.87911112081E+02 0.  0.
         11    1    3    3    0    0 -0.22333253247E+02 -0.36008888150E+01  0.24827680190E+02  0.33588008347E+02  0.51100000000E-03 0. -1.
         22    1    1    0    0    0 -0.32121357059E+01  0.13733686869E+02  0.28337788746E+02  0.31653787164E+02  0.00000000000E+00 0.  1.
</event>
<event>
 5    1  0.1047411E-009  0.9118800E+02  0.7815553E-02  0.1125453E+00
         25   -1    0    0    0    0  0.00000000000E+00  0.00000000000E+00  0.99999998245E-14  0.12509000000E+03  0.12509000000E+03 0.  0.
        -11    1    3    3    0    0 -0.32702191818E+02 -0.19242933390E+02 -0.25952807284E+02  0.45970338712E+02  0.51100000000E-03 0.  1.
         23    2    1    0    0    0 -0.14879170996E+02  0.23833997829E+02 -0.87428273379E+01  0.95664055463E+02  0.91025959460E+02 0.  0.
         11    1    3    3    0    0  0.17823020822E+02  0.43076931219E+02  0.17209979946E+02  0.49693716750E+02  0.51100000000E-03 0. -1.
         22    1    1    0    0    0  0.14879170996E+02 -0.23833997829E+02  0.87428273379E+01  0.29425944537E+02  0.00000000000E+00 0. -1.
</event>
<event>
 5    1  0.1047411E-009  0.9118800E+02  0.7815553E-02  0.1125453E+00
         25   -1    0    0    0    0  0.00000000000E+00  0.00000000000E+00  0.99999998245E-14  0.12509000000E+03  0.12509000000E+03 0.  0.
        -11    1    3    3    0    0 -0.52512370216E+02  0.19402885711E+02  0.14488577493E+02  0.57826809333E+02  0.51100000000E-03 0. -1.
         23    2    1    0    0    0 -0.17279035115E+02  0.24265956206E+02  0.99518458645E+01  0.93682342952E+02  0.88260639358E+02 0.  0.
         11    1    3    3    0    0  0.35233335101E+02  0.48630704946E+01 -0.45367316287E+01  0.35855533619E+02  0.51100000000E-03 0.  1.
         22    1    1    0    0    0  0.17279035115E+02 -0.24265956206E+02 -0.99518458645E+01  0.31407657048E+02  0.00000000000E+00 0. -1.
</event>
<event>
 5    1  0.1047411E-009  0.9118800E+02  0.7815553E-02  0.1125453E+00
         25   -1    0    0    0    0  0.00000000000E+00  0.00000000000E+00  0.99999998245E-14  0.12509000000E+03  0.12509000000E+03 0.  0.
        -11    1    3    3    0    0  0.50328723608E+02  0.48201945732E+01 -0.81859919886E+01  0.51217430244E+02  0.51100000000E-03 0. -1.
         23    2    1    0    0    0  0.15625978464E+02 -0.23292422725E+02 -0.81615332337E+01  0.95878379297E+02  0.91320013319E+02 0.  0.
         11    1    3    3    0    0 -0.34702745144E+02 -0.28112617298E+02  0.24458754948E-01  0.44660949053E+02  0.51100000000E-03 0.  1.
         22    1    1    0    0    0 -0.15625978464E+02  0.23292422725E+02  0.81615332337E+01  0.29211620703E+02  0.00000000000E+00 0. -1.
</event>
<event>
 5    1  0.1047411E-009  0.9118800E+02  0.7815553E-02  0.1125453E+00
         25   -1    0    0    0    0  0.00000000000E+00  0.00000000000E+00  0.99999998245E-14  0.12509000000E+03  0.12509000000E+03 0.  0.
        -11    1    3    3    0    0  0.21321924636E+02  0.27113813733E+02 -0.35577148585E+02  0.49553172118E+02  0.51100000000E-03 0. -1.
         23    2    1    0    0    0  0.65741240933E+01 -0.15800911844E+02 -0.22582608680E+02  0.96755178005E+02  0.92513254906E+02 0.  0.
         11    1    3    3    0    0 -0.14747800542E+02 -0.42914725577E+02  0.12994539905E+02  0.47202005887E+02  0.51100000000E-03 0.  1.
         22    1    1    0    0    0 -0.65741240933E+01  0.15800911844E+02  0.22582608680E+02  0.28334821995E+02  0.00000000000E+00 0.  1.
</event>
<event>
 5    1  0.1047411E-009  0.9118800E+02  0.7815553E-02  0.1125453E+00
         25   -1    0    0    0    0  0.00000000000E+00  0.00000000000E+00  0.99999998245E-14  0.12509000000E+03  0.12509000000E+03 0.  0.
        -11    1    3    3    0    0  0.10622237626E+02  0.21637507942E+02 -0.52289252791E+02  0.57577596684E+02  0.51100000000E-03 0. -1.
         23    2    1    0    0    0  0.70550770326E+01 -0.76004079674E+01 -0.26151935109E+02  0.96957029606E+02  0.92785783216E+02 0.  0.
         11    1    3    3    0    0 -0.35671605933E+01 -0.29237915910E+02  0.26137317682E+02  0.39379432923E+02  0.51100000000E-03 0.  1.
         22    1    1    0    0    0 -0.70550770326E+01  0.76004079674E+01  0.26151935109E+02  0.28132970394E+02  0.00000000000E+00 0. -1.
</event>
<event>
 5    1  0.1047411E-009  0.9118800E+02  0.7815553E-02  0.1125453E+00
         25   -1    0    0    0    0  0.00000000000E+00  0.00000000000E+00  0.99999998245E-14  0.12509000000E+03  0.12509000000E+03 0.  0.
        -11    1    3    3    0    0  0.51981634355E+02  0.98955910989E+01 -0.70958139805E+01  0.53388796669E+02  0.51100000000E-03 0.  1.
         23    2    1    0    0    0  0.21723374753E+02 -0.18737087550E+00  0.20242878998E+02  0.95396326118E+02  0.90657292967E+02 0.  0.
         11    1    3    3    0    0 -0.30258259603E+02 -0.10082961974E+02  0.27338692979E+02  0.42007529449E+02  0.51100000000E-03 0. -1.
         22    1    1    0    0    0 -0.21723374753E+02  0.18737087550E+00 -0.20242878998E+02  0.29693673882E+02  0.00000000000E+00 0.  1.
</event>
<event>
 5    1  0.1047411E-009  0.9118800E+02  0.7815553E-02  0.1125453E+00
         25   -1    0    0    0    0  0.00000000000E+00  0.00000000000E+00  0.99999998245E-14  0.12509000000E+03  0.12509000000E+03 0.  0.
        -11    1    3    3    0    0  0.33849719389E+02  0.50000911006E+00  0.81433369894E+01  0.34819067325E+02  0.51100000000E-03 0.  1.
         23    2    1    0    0    0 -0.26811670854E+02 -0.88299882947E+01  0.59997369313E+01  0.96231184527E+02  0.91802013295E+02 0.  0.
         11    1    3    3    0    0 -0.60661390243E+02 -0.93299974047E+01 -0.21436000581E+01  0.61412117202E+02  0.51100000000E-03 0. -1.
         22    1    1    0    0    0  0.26811670854E+02  0.88299882947E+01 -0.59997369313E+01  0.28858815473E+02  0.00000000000E+00 0. -1.
</event>
<event>
 5    1  0.1047411E-009  0.9118800E+02  0.7815553E-02  0.1125453E+00
         25   -1    0    0    0    0  0.00000000000E+00  0.00000000000E+00  0.99999998245E-14  0.12509000000E+03  0.12509000000E+03 0.  0.
        -11    1    3    3    0    0  0.32654646589E+02 -0.21531850926E+02 -0.30239493380E+01  0.39231247979E+02  0.51100000000E-03 0.  1.
         23    2    1    0    0    0 -0.21510715597E+01  0.16774570793E+02 -0.24543512545E+02  0.95284004928E+02  0.90502178167E+02 0.  0.
         11    1    3    3    0    0 -0.34805718148E+02  0.38306421719E+02 -0.21519563207E+02  0.56052756949E+02  0.51100000000E-03 0. -1.
         22    1    1    0    0    0  0.21510715597E+01 -0.16774570793E+02  0.24543512545E+02  0.29805995072E+02  0.00000000000E+00 0. -1.
</event>
<event>
 5    1  0.1047411E-009  0.9118800E+02  0.7815553E-02  0.1125453E+00
         25   -1    0    0    0    0  0.00000000000E+00  0.00000000000E+00  0.99999998245E-14  0.12509000000E+03  0.12509000000E+03 0.  0.
        -11    1    3    3    0    0 -0.22594756087E+02 -0.20039041298E+02 -0.50091001339E+02  0.58490978742E+02  0.51100000000E-03 0. -1.
         23    2    1    0    0    0  0.42786880159E+01 -0.63307454916E+01 -0.28485316160E+02  0.95597649358E+02  0.90934656850E+02 0.  0.
         11    1    3    3    0    0  0.26873444103E+02  0.13708295807E+02  0.21605685179E+02  0.37106670616E+02  0.51100000000E-03 0.  1.
         22    1    1    0    0    0 -0.42786880159E+01  0.63307454916E+01  0.28485316160E+02  0.29492350642E+02  0.00000000000E+00 0. -1.
</event>
<event>
 5    1  0.1047411E-009  0.9118800E+02  0.7815553E-02  0.1125453E+00
         25   -1    0    0    0    0  0.00000000000E+00  0.00000000000E+00  0.99999998245E-14  0.12509000000E+03  0.12509000000E+03 0.  0.
        -11    1    3    3    0    0 -0.36595304899E+02 -0.23898573400E+01 -0.12933890847E+01  0.36696057204E+02  0.51100000000E-03 0. -1.
         23    2    1    0    0    0  0.23728435720E+02  0.43097565081E+01  0.10934636419E+02  0.98610216456E+02  0.94988398518E+02 0.  0.
         11    1    3    3    0    0  0.60323740619E+02  0.66996138481E+01  0.12228025504E+02  0.61914159253E+02  0.51100000000E-03 0.  1.
         22    1    1    0    0    0 -0.23728435720E+02 -0.43097565081E+01 -0.10934636419E+02  0.26479783544E+02  0.00000000000E+00 0.  1.
</event>
<event>
 5    1  0.1047411E-009  0.9118800E+02  0.7815553E-02  0.1125453E+00
         25   -1    0    0    0    0  0.00000000000E+00  0.00000000000E+00  0.99999998245E-14  0.12509000000E+03  0.12509000000E+03 0.  0.
        -11    1    3    3    0    0 -0.25172687290E+02  0.69983369705E+01 -0.31844202085E+02  0.41190946972E+02  0.51100000000E-03 0. -1.
         23    2    1    0    0    0  0.25803916837E+02  0.65915651995E+01 -0.11571925019E+02  0.96052088495E+02  0.91557650690E+02 0.  0.
         11    1    3    3    0    0  0.50976604126E+02 -0.40677177095E+00  0.20272277066E+02  0.54861141523E+02  0.51100000000E-03 0.  1.
         22    1    1    0    0    0 -0.25803916837E+02 -0.65915651995E+01  0.11571925019E+02  0.29037911505E+02  0.00000000000E+00 0.  1.
</event>
<event>
 5    1  0.1047411E-009  0.9118800E+02  0.7815553E-02  0.1125453E+00
         25   -1    0    0    0    0  0.00000000000E+00  0.00000000000E+00  0.99999998245E-14  0.12509000000E+03  0.12509000000E+03 0.  0.
        -11    1    3    3    0    0  0.29619017632E+02  0.50296421012E+01 -0.38628442626E+02  0.48936081628E+02  0.51100000000E-03 0.  1.
         23    2    1    0    0    0  0.25370281712E+02  0.14613508795E+02  0.63593873847E+01  0.95129231630E+02  0.90288000693E+02 0.  0.
         11    1    3    3    0    0 -0.42487359202E+01  0.95838666941E+01  0.44987830011E+02  0.46193150001E+02  0.51100000000E-03 0. -1.
         22    1    1    0    0    0 -0.25370281712E+02 -0.14613508795E+02 -0.63593873847E+01  0.29960768370E+02  0.00000000000E+00 0.  1.
</event>
<event>
 5    1  0.1047411E-009  0.9118800E+02  0.7815553E-02  0.1125453E+00
         25   -1    0    0    0    0  0.00000000000E+00  0.00000000000E+00  0.99999998245E-14  0.12509000000E+03  0.12509000000E+03 0.  0.
        -11    1    3    3    0    0 -0.21736360027E+02 -0.94686707893E+01  0.44044485702E+02  0.50020413780E+02  0.51100000000E-03 0.  1.
         23    2    1    0    0    0  0.70770830011E+00  0.21763068080E+02  0.20905478823E+02  0.94904390380E+02  0.89975953928E+02 0.  0.
         11    1    3    3    0    0  0.22444068327E+02  0.31231738870E+02 -0.23139006878E+02  0.44883976600E+02  0.51100000000E-03 0. -1.
         22    1    1    0    0    0 -0.70770830011E+00 -0.21763068080E+02 -0.20905478823E+02  0.30185609620E+02  0.00000000000E+00 0.  1.
</event>
<event>
 5    1  0.1047411E-009  0.9118800E+02  0.7815553E-02  0.1125453E+00
         25   -1    0    0    0    0  0.00000000000E+00  0.00000000000E+00  0.99999998245E-14  0.12509000000E+03  0.12509000000E+03 0.  0.
        -11    1    3    3    0    0  0.77709907643E+01  0.47751043921E+02  0.29170829216E+02  0.56493254202E+02  0.51100000000E-03 0. -1.
         23    2    1    0    0    0  0.19207040715E+02  0.22136365408E+02  0.17350708883E+01  0.95731192847E+02  0.91118174512E+02 0.  0.
         11    1    3    3    0    0  0.11436049950E+02 -0.25614678513E+02 -0.27435758327E+02  0.39237938644E+02  0.51100000000E-03 0.  1.
         22    1    1    0    0    0 -0.19207040715E+02 -0.22136365408E+02 -0.17350708883E+01  0.29358807153E+02  0.00000000000E+00 0. -1.
</event>
<event>
 5    1  0.1047411E-009  0.9118800E+02  0.7815553E-02  0.1125453E+00
         25   -1    0    0    0    0  0.00000000000E+00  0.00000000000E+00  0.99999998245E-14  0.12509000000E+03  0.12509000000E+03 0.  0.
        -11    1    3    3    0    0  0.27868558618E+02  0.53623958501E+02  0.70624005060E+01  0.60844580580E+02  0.51100000000E-03 0.  1.
         23    2    1    0    0    0  0.32112496933E+01  0.28304721565E+02  0.40963138871E+01  0.96310681472E+02  0.91910272499E+02 0.  0.
         11    1    3    3    0    0 -0.24657308925E+02 -0.25319236936E+02 -0.29660866189E+01  0.35466100893E+02  0.51100000000E-03 0. -1.
         22    1    1    0    0    0 -0.32112496933E+01 -0.28304721565E+02 -0.40963138871E+01  0.28779318528E+02  0.00000000000E+00 0.  1.
</event>
<event>
 5    1  0.1047411E-009  0.9118800E+02  0.7815553E-02  0.1125453E+00
         25   -1    0    0    0    0  0.00000000000E+00  0.00000000000E+00  0.99999998245E-14  0.12509000000E+03  0.12509000000E+03 0.  0.
        -11    1    3    3    0    0 -0.20829584936E+02 -0.42529288966E+02 -0.12030640426E+02  0.48860498747E+02  0.51100000000E-03 0.  1.
         23    2    1    0    0    0 -0.25906449745E+02 -0.11396251258E+01  0.11479477339E+02  0.96731204472E+02  0.92480833879E+02 0.  0.
         11    1    3    3    0    0 -0.50768648088E+01  0.41389663840E+02  0.23510117765E+02  0.47870705725E+02  0.51100000000E-03 0. -1.
         22    1    1    0    0    0  0.25906449745E+02  0.11396251258E+01 -0.11479477339E+02  0.28358795528E+02  0.00000000000E+00 0.  1.
</event>
<event>
 5    1  0.1047411E-009  0.9118800E+02  0.7815553E-02  0.1125453E+00
         25   -1    0    0    0    0  0.00000000000E+00  0.00000000000E+00  0.99999998245E-14  0.12509000000E+03  0.12509000000E+03 0.  0.
        -11    1    3    3    0    0  0.36348190782E+01  0.34743835636E+02  0.22279124903E+01  0.35004422846E+02  0.51100000000E-03 0. -1.
         23    2    1    0    0    0  0.27805864573E+02 -0.13071789393E+02  0.16174364227E+02  0.90367559983E+02  0.83430498359E+02 0.  0.
         11    1    3    3    0    0  0.24171045495E+02 -0.47815625029E+02  0.13946451737E+02  0.55363137136E+02  0.51100000000E-03 0.  1.
         22    1    1    0    0    0 -0.27805864573E+02  0.13071789393E+02 -0.16174364227E+02  0.34722440017E+02  0.00000000000E+00 0.  1.
</event>
<event>
 5    1  0.1047411E-009  0.9118800E+02  0.7815553E-02  0.1125453E+00
         25   -1    0    0    0    0  0.00000000000E+00  0.00000000000E+00  0.99999998245E-14  0.12509000000E+03  0.12509000000E+03 0.  0.
        -11    1    3    3    0    0 -0.20055402354E+02  0.17489988444E+02  0.42304565211E+02  0.49977946110E+02  0.51100000000E-03 0. -1.
         23    2    1    0    0    0 -0.17601073990E+02 -0.86152742709E+00 -0.95554165137E+01  0.10504390263E+03  0.10311341067E+03 0.  0.
         11    1    3    3    0    0  0.24543283640E+01 -0.18351515871E+02 -0.51859981725E+02  0.55065956518E+02  0.51100000000E-03 0.  1.
         22    1    1    0    0    0  0.17601073990E+02  0.86152742709E+00  0.95554165137E+01  0.20046097372E+02  0.00000000000E+00 0.  1.
</event>
<event>
 5    1  0.1047411E-009  0.9118800E+02  0.7815553E-02  0.1125453E+00
         25   -1    0    0    0    0  0.00000000000E+00  0.00000000000E+00  0.99999998245E-14  0.12509000000E+03  0.12509000000E+03 0.  0.
        -11    1    3    3    0    0  0.11982290551E+02 -0.51665324775E+02 -0.23461129064E+02  0.57994013900E+02  0.51100000000E-03 0.  1.
         23    2    1    0    0    0  0.11537568201E+02 -0.27521775676E+02  0.44682859370E+01  0.94915023686E+02  0.89990735777E+02 0.  0.
         11    1    3    3    0    0 -0.44472235047E+00  0.24143549099E+02  0.27929415001E+02  0.36921009786E+02  0.51100000000E-03 0. -1.
         22    1    1    0    0    0 -0.11537568201E+02  0.27521775676E+02 -0.44682859370E+01  0.30174976314E+02  0.00000000000E+00 0.  1.
</event>
<event>
 5    1  0.1047411E-009  0.9118800E+02  0.7815553E-02  0.1125453E+00
         25   -1    0    0    0    0  0.00000000000E+00  0.00000000000E+00  0.99999998245E-14  0.12509000000E+03  0.12509000000E+03 0.  0.
        -11    1    3    3    0    0  0.26609373490E+02 -0.11063120625E+02  0.17902295553E+02  0.33925559418E+02  0.51100000000E-03 0.  1.
         23    2    1    0    0    0  0.79479401635E+01 -0.29447159689E+02 -0.25974786586E+02  0.85027617335E+02  0.74998008006E+02 0.  0.
         11    1    3    3    0    0 -0.18661433326E+02 -0.18384039064E+02 -0.43877082139E+02  0.51102057917E+02  0.51100000000E-03 0. -1.
         22    1    1    0    0    0 -0.79479401635E+01  0.29447159689E+02  0.25974786586E+02  0.40062382665E+02  0.00000000000E+00 0. -1.
</event>
<event>
 5    1  0.1047411E-009  0.9118800E+02  0.7815553E-02  0.1125453E+00
         25   -1    0    0    0    0  0.00000000000E+00  0.00000000000E+00  0.99999998245E-14  0.12509000000E+03  0.12509000000E+03 0.  0.
        -11    1    3    3    0    0  0.88660454027E+01 -0.48897818241E+02  0.31856803728E+02  0.59029309109E+02  0.51100000000E-03 0. -1.
         23    2    1    0    0    0  0.12454203229E+02 -0.13298845829E+02  0.22738543166E+02  0.95952261176E+02  0.91421160576E+02 0.  0.
         11    1    3    3    0    0  0.35881578266E+01  0.35598972413E+02 -0.91182605617E+01  0.36922952067E+02  0.51100000000E-03 0.  1.
         22    1    1    0    0    0 -0.12454203229E+02  0.13298845829E+02 -0.22738543166E+02  0.29137738824E+02  0.00000000000E+00 0. -1.
</event>
<event>
 5    1  0.1047411E-009  0.9118800E+02  0.7815553E-02  0.1125453E+00
         25   -1    0    0    0    0  0.00000000000E+00  0.00000000000E+00  0.99999998245E-14  0.12509000000E+03  0.12509000000E+03 0.  0.
        -11    1    3    3    0    0  0.79967820713E+01  0.49606730408E+02  0.64513359007E+01  0.50659608767E+02  0.51100000000E-03 0. -1.
         23    2    1    0    0    0 -0.28195032912E+01  0.18245183852E+02  0.28957614132E+02  0.90747901217E+02  0.83998820387E+02 0.  0.
         11    1    3    3    0    0 -0.10816285363E+02 -0.31361546556E+02  0.22506278231E+02  0.40088292449E+02  0.51100000000E-03 0.  1.
         22    1    1    0    0    0  0.28195032912E+01 -0.18245183852E+02 -0.28957614132E+02  0.34342098783E+02  0.00000000000E+00 0. -1.
</event>
<event>
 5    1  0.1047411E-009  0.9118800E+02  0.7815553E-02  0.1125453E+00
         25   -1    0    0    0    0  0.00000000000E+00  0.00000000000E+00  0.99999998245E-14  0.12509000000E+03  0.12509000000E+03 0.  0.
        -11    1    3    3    0    0 -0.31779285492E+02 -0.16182265690E+02 -0.48078293850E+02  0.59860763853E+02  0.51100000000E-03 0.  1.
         23    2    1    0    0    0 -0.82752804521E+01 -0.44810465325E+01 -0.34320837223E+02  0.89502362929E+02  0.82123036096E+02 0.  0.
         11    1    3    3    0    0  0.23504005040E+02  0.11701219158E+02  0.13757456626E+02  0.29641599076E+02  0.51100000000E-03 0. -1.
         22    1    1    0    0    0  0.82752804521E+01  0.44810465325E+01  0.34320837223E+02  0.35587637071E+02  0.00000000000E+00 0.  1.
</event>
<event>
 5    1  0.1047411E-009  0.9118800E+02  0.7815553E-02  0.1125453E+00
         25   -1    0    0    0    0  0.00000000000E+00  0.00000000000E+00  0.99999998245E-14  0.12509000000E+03  0.12509000000E+03 0.  0.
        -11    1    3    3    0    0  0.28967515110E+02  0.96276346277E+01 -0.26975567620E+02  0.40736832583E+02  0.51100000000E-03 0.  1.
         23    2    1    0    0    0  0.46968939184E+01 -0.31317723524E+02 -0.55313320469E+01  0.92942585587E+02  0.87205894080E+02 0.  0.
         11    1    3    3    0    0 -0.24270621192E+02 -0.40945358152E+02  0.21444235573E+02  0.52205753005E+02  0.51100000000E-03 0. -1.
         22    1    1    0    0    0 -0.46968939184E+01  0.31317723524E+02  0.55313320469E+01  0.32147414413E+02  0.00000000000E+00 0.  1.
</event>
<event>
 5    1  0.1047411E-009  0.9118800E+02  0.7815553E-02  0.1125453E+00
         25   -1    0    0    0    0  0.00000000000E+00  0.00000000000E+00  0.99999998245E-14  0.12509000000E+03  0.12509000000E+03 0.  0.
        -11    1    3    3    0    0  0.16335229012E+02 -0.37930926968E+02 -0.11655910488E+02  0.42912179822E+02  0.51100000000E-03 0.  1.
         23    2    1    0    0    0 -0.11833650063E+02  0.63321391220E+01 -0.24703150906E+02  0.96976356972E+02  0.92811835922E+02 0.  0.
         11    1    3    3    0    0 -0.28168879075E+02  0.44263066090E+02 -0.13047240418E+02  0.54064177149E+02  0.51100000000E-03 0. -1.
         22    1    1    0    0    0  0.11833650063E+02 -0.63321391220E+01  0.24703150906E+02  0.28113643028E+02  0.00000000000E+00 0.  1.
</event>
<event>
 5    1  0.1047411E-009  0.9118800E+02  0.7815553E-02  0.1125453E+00
         25   -1    0    0    0    0  0.00000000000E+00  0.00000000000E+00  0.99999998245E-14  0.12509000000E+03  0.12509000000E+03 0.  0.
        -11    1    3    3    0    0 -0.21073833011E+02  0.26936115845E+02  0.28405504047E+02  0.44458221231E+02  0.51100000000E-03 0. -1.
         23    2    1    0    0    0  0.49183750569E+01  0.23930837175E+02 -0.15919575831E+02  0.95929954120E+02  0.91390633118E+02 0.  0.
         11    1    3    3    0    0  0.25992208068E+02 -0.30052786702E+01 -0.44325079878E+02  0.51471732889E+02  0.51100000000E-03 0.  1.
         22    1    1    0    0    0 -0.49183750569E+01 -0.23930837175E+02  0.15919575831E+02  0.29160045880E+02  0.00000000000E+00 0.  1.
</event>
<event>
 5    1  0.1047411E-009  0.9118800E+02  0.7815553E-02  0.1125453E+00
         25   -1    0    0    0    0  0.00000000000E+00  0.00000000000E+00  0.99999998245E-14  0.12509000000E+03  0.12509000000E+03 0.  0.
        -11    1    3    3    0    0  0.10810337467E+02  0.87118429941E+01  0.51558109474E+02  0.53394739978E+02  0.51100000000E-03 0.  1.
         23    2    1    0    0    0  0.23146476998E+02 -0.59012666542E+01  0.98998519086E+01  0.99232865330E+02  0.95804854512E+02 0.  0.
         11    1    3    3    0    0  0.12336139531E+02 -0.14613109648E+02 -0.41658257565E+02  0.45838125352E+02  0.51100000000E-03 0. -1.
         22    1    1    0    0    0 -0.23146476998E+02  0.59012666542E+01 -0.98998519086E+01  0.25857134670E+02  0.00000000000E+00 0.  1.
</event>
<event>
 5    1  0.1047411E-009  0.9118800E+02  0.7815553E-02  0.1125453E+00
         25   -1    0    0    0    0  0.00000000000E+00  0.00000000000E+00  0.99999998245E-14  0.12509000000E+03  0.12509000000E+03 0.  0.
        -11    1    3    3    0    0  0.44845823786E+02  0.27600240686E+02 -0.31453957888E+01  0.52752390580E+02  0.51100000000E-03 0.  1.
         23    2    1    0    0    0  0.24811718729E+02 -0.10191969982E+02 -0.10741678132E+02  0.96195687627E+02  0.91753632247E+02 0.  0.
         11    1    3    3    0    0 -0.20034105057E+02 -0.37792210668E+02 -0.75962823435E+01  0.43443297047E+02  0.51100000000E-03 0. -1.
         22    1    1    0    0    0 -0.24811718729E+02  0.10191969982E+02  0.10741678132E+02  0.28894312373E+02  0.00000000000E+00 0. -1.
</event>
<event>
 5    1  0.1047411E-009  0.9118800E+02  0.7815553E-02  0.1125453E+00
         25   -1    0    0    0    0  0.00000000000E+00  0.00000000000E+00  0.99999998245E-14  0.12509000000E+03  0.12509000000E+03 0.  0.
        -11    1    3    3    0    0  0.29131556611E+02 -0.21052567459E+02  0.19566322113E+02  0.40923088208E+02  0.51100000000E-03 0. -1.
         23    2    1    0    0    0  0.55844675052E+01 -0.35314543343E+01 -0.27728543249E+02  0.96585095900E+02  0.92282995142E+02 0.  0.
         11    1    3    3    0    0 -0.23547089105E+02  0.17521113124E+02 -0.47294865362E+02  0.55662007692E+02  0.51100000000E-03 0.  1.
         22    1    1    0    0    0 -0.55844675052E+01  0.35314543343E+01  0.27728543249E+02  0.28504904100E+02  0.00000000000E+00 0. -1.
</event>
<event>
 5    1  0.1047411E-009  0.9118800E+02  0.7815553E-02  0.1125453E+00
         25   -1    0    0    0    0  0.00000000000E+00  0.00000000000E+00  0.99999998245E-14  0.12509000000E+03  0.12509000000E+03 0.  0.
        -11    1    3    3    0    0  0.44287394900E+02 -0.14612096631E+02  0.12454869306E+02  0.48270182149E+02  0.51100000000E-03 0.  1.
         23    2    1    0    0    0 -0.16203111351E+01 -0.20739099111E+02  0.21183553297E+02  0.95400295212E+02  0.90662769404E+02 0.  0.
         11    1    3    3    0    0 -0.45907706035E+02 -0.61270024796E+01  0.87286839911E+01  0.47130113063E+02  0.51100000000E-03 0. -1.
         22    1    1    0    0    0  0.16203111351E+01  0.20739099111E+02 -0.21183553297E+02  0.29689704788E+02  0.00000000000E+00 0.  1.
</event>
<event>
 5    1  0.1047411E-009  0.9118800E+02  0.7815553E-02  0.1125453E+00
         25   -1    0    0    0    0  0.00000000000E+00  0.00000000000E+00  0.99999998245E-14  0.12509000000E+03  0.12509000000E+03 0.  0.
        -11    1    3    3    0    0 -0.42902845088E+02 -0.10007311650E+02 -0.93830605274E+01  0.45042671193E+02  0.51100000000E-03 0.  1.
         23    2    1    0    0    0  0.58468431111E+01 -0.11926206757E+02 -0.25428999321E+02  0.96401082481E+02  0.92033226147E+02 0.  0.
         11    1    3    3    0    0  0.48749688199E+02 -0.19188951063E+01 -0.16045938794E+02  0.51358411287E+02  0.51100000000E-03 0. -1.
         22    1    1    0    0    0 -0.58468431111E+01  0.11926206757E+02  0.25428999321E+02  0.28688917519E+02  0.00000000000E+00 0. -1.
</event>
<event>
 5    1  0.1047411E-009  0.9118800E+02  0.7815553E-02  0.1125453E+00
         25   -1    0    0    0    0  0.00000000000E+00  0.00000000000E+00  0.99999998245E-14  0.12509000000E+03  0.12509000000E+03 0.  0.
        -11    1    3    3    0    0  0.12991487272E+01  0.58750135033E+02 -0.10314782059E+02  0.59662893686E+02  0.51100000000E-03 0. -1.
         23    2    1    0    0    0 -0.76189232153E+01  0.14484276848E+02  0.59763541810E+01  0.10766705317E+03  0.10624798945E+03 0.  0.
         11    1    3    3    0    0 -0.89180719425E+01 -0.44265858184E+02  0.16291136240E+02  0.48004159489E+02  0.51100000000E-03 0.  1.
         22    1    1    0    0    0  0.76189232153E+01 -0.14484276848E+02 -0.59763541810E+01  0.17422946825E+02  0.00000000000E+00 0. -1.
</event>
<event>
 5    1  0.1047411E-009  0.9118800E+02  0.7815553E-02  0.1125453E+00
         25   -1    0    0    0    0  0.00000000000E+00  0.00000000000E+00  0.99999998245E-14  0.12509000000E+03  0.12509000000E+03 0.  0.
        -11    1    3    3    0    0 -0.34612437717E+01 -0.18216330623E+02  0.20176743649E+02  0.27402844640E+02  0.51100000000E-03 0.  1.
         23    2    1    0    0    0 -0.34656392094E+02 -0.25907903205E+02 -0.18797733760E+02  0.77913313427E+02  0.62006811346E+02 0.  0.
         11    1    3    3    0    0 -0.31195148323E+02 -0.76915725817E+01 -0.38974477408E+02  0.50510468788E+02  0.51100000000E-03 0. -1.
         22    1    1    0    0    0  0.34656392094E+02  0.25907903205E+02  0.18797733760E+02  0.47176686573E+02  0.00000000000E+00 0. -1.
</event>
<event>
 5    1  0.1047411E-009  0.9118800E+02  0.7815553E-02  0.1125453E+00
         25   -1    0    0    0    0  0.00000000000E+00  0.00000000000E+00  0.99999998245E-14  0.12509000000E+03  0.12509000000E+03 0.  0.
        -11    1    3    3    0    0  0.51056388243E+01 -0.12478805601E+01 -0.52754060988E+02  0.53015240306E+02  0.51100000000E-03 0.  1.
         23    2    1    0    0    0  0.24906784420E+02 -0.38068092815E+01 -0.14884042680E+02  0.95826124085E+02  0.91248406143E+02 0.  0.
         11    1    3    3    0    0  0.19801145595E+02 -0.25589287214E+01  0.37870018308E+02  0.42810883779E+02  0.51100000000E-03 0. -1.
         22    1    1    0    0    0 -0.24906784420E+02  0.38068092815E+01  0.14884042680E+02  0.29263875915E+02  0.00000000000E+00 0. -1.
</event>
<event>
 5    1  0.1047411E-009  0.9118800E+02  0.7815553E-02  0.1125453E+00
         25   -1    0    0    0    0  0.00000000000E+00  0.00000000000E+00  0.99999998245E-14  0.12509000000E+03  0.12509000000E+03 0.  0.
        -11    1    3    3    0    0 -0.62792936225E+01  0.89018864318E+01  0.47336574633E+02  0.48573906664E+02  0.51100000000E-03 0. -1.
         23    2    1    0    0    0 -0.29275958181E+02  0.27758739312E+01  0.78913632305E+01  0.94642326572E+02  0.89610876359E+02 0.  0.
         11    1    3    3    0    0 -0.22996664559E+02 -0.61260125005E+01 -0.39445211402E+02  0.46068419908E+02  0.51100000000E-03 0.  1.
         22    1    1    0    0    0  0.29275958181E+02 -0.27758739312E+01 -0.78913632305E+01  0.30447673428E+02  0.00000000000E+00 0. -1.
</event>
<event>
 5    1  0.1047411E-009  0.9118800E+02  0.7815553E-02  0.1125453E+00
         25   -1    0    0    0    0  0.00000000000E+00  0.00000000000E+00  0.99999998245E-14  0.12509000000E+03  0.12509000000E+03 0.  0.
        -11    1    3    3    0    0  0.43105895579E+01  0.18491131819E+02 -0.10804551958E+02  0.21845857309E+02  0.51100000000E-03 0. -1.
         23    2    1    0    0    0 -0.22002038170E+02 -0.35247366248E+02 -0.12484928215E+02  0.81704058227E+02  0.69233035374E+02 0.  0.
         11    1    3    3    0    0 -0.26312627728E+02 -0.53738498067E+02 -0.16803762564E+01  0.59858200917E+02  0.51100000000E-03 0.  1.
         22    1    1    0    0    0  0.22002038170E+02  0.35247366248E+02  0.12484928215E+02  0.43385941773E+02  0.00000000000E+00 0.  1.
</event>
<event>
 5    1  0.1047411E-009  0.9118800E+02  0.7815553E-02  0.1125453E+00
         25   -1    0    0    0    0  0.00000000000E+00  0.00000000000E+00  0.99999998245E-14  0.12509000000E+03  0.12509000000E+03 0.  0.
        -11    1    3    3    0    0  0.33020190108E+02 -0.30365511266E+02  0.13618445984E+02  0.46881332111E+02  0.51100000000E-03 0. -1.
         23    2    1    0    0    0 -0.78169742172E+01 -0.37043048137E+01  0.26408913831E+02  0.97300475178E+02  0.93247652947E+02 0.  0.
         11    1    3    3    0    0 -0.40837164325E+02  0.26661206453E+02  0.12790467848E+02  0.50419143067E+02  0.51100000000E-03 0.  1.
         22    1    1    0    0    0  0.78169742172E+01  0.37043048137E+01 -0.26408913831E+02  0.27789524822E+02  0.00000000000E+00 0. -1.
</event>
<event>
 5    1  0.1047411E-009  0.9118800E+02  0.7815553E-02  0.1125453E+00
         25   -1    0    0    0    0  0.00000000000E+00  0.00000000000E+00  0.99999998245E-14  0.12509000000E+03  0.12509000000E+03 0.  0.
        -11    1    3    3    0    0  0.19867083289E+02  0.36744227153E+02 -0.30834214784E+02  0.51919052660E+02  0.51100000000E-03 0. -1.
         23    2    1    0    0    0  0.21419242676E+02  0.17112695290E+02  0.89001319543E+01  0.96265693492E+02  0.91849023390E+02 0.  0.
         11    1    3    3    0    0  0.15521593861E+01 -0.19631531863E+02  0.39734346738E+02  0.44346640832E+02  0.51100000000E-03 0.  1.
         22    1    1    0    0    0 -0.21419242676E+02 -0.17112695290E+02 -0.89001319543E+01  0.28824306508E+02  0.00000000000E+00 0. -1.
</event>
<event>
 4    1  0.1047411E-009  0.9118800E+02  0.7815553E-02  0.1125453E+00
         25   -1    0    0    0    0  0.00000000000E+00  0.00000000000E+00  0.99999998245E-14  0.12509000000E+03  0.12509000000E+03 0.  0.
        -11    1    1    0    0    0  0.15297635938E+02 -0.15617606647E+02 -0.49789965693E+02  0.54378010139E+02  0.51100000000E-03 0.  1.
         11    1    1    0    0    0  0.93167131753E+01 -0.65816535849E+01  0.63385347600E+00  0.11424582215E+02  0.51100000000E-03 0. -1.
         22    1    1    0    0    0 -0.24614349113E+02  0.22199260232E+02  0.49156112217E+02  0.59287407646E+02  0.00000000000E+00 0.  1.
</event>
<event>
 5    1  0.1047411E-009  0.9118800E+02  0.7815553E-02  0.1125453E+00
         25   -1    0    0    0    0  0.00000000000E+00  0.00000000000E+00  0.99999998245E-14  0.12509000000E+03  0.12509000000E+03 0.  0.
        -11    1    3    3    0    0  0.12030027150E+02 -0.21221443350E+02  0.46071081672E+02  0.52130756543E+02  0.51100000000E-03 0. -1.
         23    2    1    0    0    0  0.23172977042E+02  0.84439765629E+01  0.16994068883E+02  0.95138606337E+02  0.90300987998E+02 0.  0.
         11    1    3    3    0    0  0.11142949891E+02  0.29665419913E+02 -0.29077012789E+02  0.43007849794E+02  0.51100000000E-03 0.  1.
         22    1    1    0    0    0 -0.23172977042E+02 -0.84439765629E+01 -0.16994068883E+02  0.29951393663E+02  0.00000000000E+00 0. -1.
</event>
<event>
 5    1  0.1047411E-009  0.9118800E+02  0.7815553E-02  0.1125453E+00
         25   -1    0    0    0    0  0.00000000000E+00  0.00000000000E+00  0.99999998245E-14  0.12509000000E+03  0.12509000000E+03 0.  0.
        -11    1    3    3    0    0  0.48429720988E+01  0.28845330220E+02 -0.29223681671E+02  0.41346475362E+02  0.51100000000E-03 0.  1.
         23    2    1    0    0    0  0.12205060298E+02  0.14120793157E+02  0.22633152121E+02  0.95753676591E+02  0.91149035702E+02 0.  0.
         11    1    3    3    0    0  0.73620881993E+01 -0.14724537063E+02  0.51856833792E+02  0.54407201228E+02  0.51100000000E-03 0. -1.
         22    1    1    0    0    0 -0.12205060298E+02 -0.14120793157E+02 -0.22633152121E+02  0.29336323409E+02  0.00000000000E+00 0. -1.
</event>
<event>
 5    1  0.1047411E-009  0.9118800E+02  0.7815553E-02  0.1125453E+00
         25   -1    0    0    0    0  0.00000000000E+00  0.00000000000E+00  0.99999998245E-14  0.12509000000E+03  0.12509000000E+03 0.  0.
        -11    1    3    3    0    0  0.15580821639E+02  0.50280807809E+02 -0.77603591551E+01  0.53208503186E+02  0.51100000000E-03 0. -1.
         23    2    1    0    0    0 -0.43576168506E+01  0.14001730144E+02 -0.23411260511E+02  0.97465293842E+02  0.93468492624E+02 0.  0.
         11    1    3    3    0    0 -0.19938438490E+02 -0.36279077665E+02 -0.15650901355E+02  0.44256790656E+02  0.51100000000E-03 0.  1.
         22    1    1    0    0    0  0.43576168506E+01 -0.14001730144E+02  0.23411260511E+02  0.27624706158E+02  0.00000000000E+00 0. -1.
</event>
<event>
 5    1  0.1047411E-009  0.9118800E+02  0.7815553E-02  0.1125453E+00
         25   -1    0    0    0    0  0.00000000000E+00  0.00000000000E+00  0.99999998245E-14  0.12509000000E+03  0.12509000000E+03 0.  0.
        -11    1    3    3    0    0  0.13602948528E+02 -0.43266472629E+02 -0.41705479782E+02  0.61614729623E+02  0.51100000000E-03 0.  1.
         23    2    1    0    0    0 -0.42934856366E+00 -0.18506840619E+02 -0.22524156564E+02  0.95934809745E+02  0.91397278964E+02 0.  0.
         11    1    3    3    0    0 -0.14032297091E+02  0.24759632010E+02  0.19181323218E+02  0.34320080122E+02  0.51100000000E-03 0. -1.
         22    1    1    0    0    0  0.42934856366E+00  0.18506840619E+02  0.22524156564E+02  0.29155190255E+02  0.00000000000E+00 0.  1.
</event>
<event>
 5    1  0.1047411E-009  0.9118800E+02  0.7815553E-02  0.1125453E+00
         25   -1    0    0    0    0  0.00000000000E+00  0.00000000000E+00  0.99999998245E-14  0.12509000000E+03  0.12509000000E+03 0.  0.
        -11    1    3    3    0    0  0.14003449721E+02 -0.35114828236E+02  0.10361407484E+02  0.39198297558E+02  0.51100000000E-03 0.  1.
         23    2    1    0    0    0 -0.12395764357E+02  0.14461076662E+02  0.21402254027E+02  0.96439795992E+02  0.92085829862E+02 0.  0.
         11    1    3    3    0    0 -0.26399214078E+02  0.49575904898E+02  0.11040846544E+02  0.57241498435E+02  0.51100000000E-03 0. -1.
         22    1    1    0    0    0  0.12395764357E+02 -0.14461076662E+02 -0.21402254027E+02  0.28650204008E+02  0.00000000000E+00 0. -1.
</event>
<event>
 5    1  0.1047411E-009  0.9118800E+02  0.7815553E-02  0.1125453E+00
         25   -1    0    0    0    0  0.00000000000E+00  0.00000000000E+00  0.99999998245E-14  0.12509000000E+03  0.12509000000E+03 0.  0.
        -11    1    3    3    0    0  0.71035898713E+01 -0.34859061970E+02 -0.20041757593E+01  0.35631894578E+02  0.51100000000E-03 0.  1.
         23    2    1    0    0    0  0.15887669357E+02  0.24585559734E+02 -0.23558554421E+01  0.95723048509E+02  0.91106993014E+02 0.  0.
         11    1    3    3    0    0  0.87840794855E+01  0.59444621704E+02 -0.35167968282E+00  0.60091153931E+02  0.51100000000E-03 0. -1.
         22    1    1    0    0    0 -0.15887669357E+02 -0.24585559734E+02  0.23558554421E+01  0.29366951491E+02  0.00000000000E+00 0. -1.
</event>
<event>
 5    1  0.1047411E-009  0.9118800E+02  0.7815553E-02  0.1125453E+00
         25   -1    0    0    0    0  0.00000000000E+00  0.00000000000E+00  0.99999998245E-14  0.12509000000E+03  0.12509000000E+03 0.  0.
        -11    1    3    3    0    0 -0.41785698352E+02  0.87976812237E+01  0.31536033484E+02  0.53084509886E+02  0.51100000000E-03 0.  1.
         23    2    1    0    0    0 -0.24272751047E+02 -0.17521833656E+02  0.42335788284E+01  0.94855842367E+02  0.89908434218E+02 0.  0.
         11    1    3    3    0    0  0.17512947305E+02 -0.26319514879E+02 -0.27302454656E+02  0.41771332481E+02  0.51100000000E-03 0. -1.
         22    1    1    0    0    0  0.24272751047E+02  0.17521833656E+02 -0.42335788284E+01  0.30234157633E+02  0.00000000000E+00 0.  1.
</event>
<event>
 5    1  0.1047411E-009  0.9118800E+02  0.7815553E-02  0.1125453E+00
         25   -1    0    0    0    0  0.00000000000E+00  0.00000000000E+00  0.99999998245E-14  0.12509000000E+03  0.12509000000E+03 0.  0.
        -11    1    3    3    0    0 -0.10738129777E+02  0.40573071218E+02  0.41104721078E+02  0.58745890361E+02  0.51100000000E-03 0.  1.
         23    2    1    0    0    0 -0.10879702054E+02  0.70798178229E+01  0.27084883093E+02  0.95055309568E+02  0.90185526819E+02 0.  0.
         11    1    3    3    0    0 -0.14157227698E+00 -0.33493253396E+02 -0.14019837984E+02  0.36309419206E+02  0.51100000000E-03 0. -1.
         22    1    1    0    0    0  0.10879702054E+02 -0.70798178229E+01 -0.27084883093E+02  0.30034690432E+02  0.00000000000E+00 0.  1.
</event>
<event>
 5    1  0.1047411E-009  0.9118800E+02  0.7815553E-02  0.1125453E+00
         25   -1    0    0    0    0  0.00000000000E+00  0.00000000000E+00  0.99999998245E-14  0.12509000000E+03  0.12509000000E+03 0.  0.
        -11    1    3    3    0    0  0.57185581266E+01  0.27050565081E+02  0.22021103414E+02  0.35346343150E+02  0.51100000000E-03 0.  1.
         23    2    1    0    0    0  0.26385326479E+01 -0.54513795510E+01 -0.28750387127E+02  0.95708642756E+02  0.91087211752E+02 0.  0.
         11    1    3    3    0    0 -0.30800254787E+01 -0.32501944632E+02 -0.50771490541E+02  0.60362299606E+02  0.51100000000E-03 0. -1.
         22    1    1    0    0    0 -0.26385326479E+01  0.54513795510E+01  0.28750387127E+02  0.29381357244E+02  0.00000000000E+00 0. -1.
</event>
<event>
 5    1  0.1047411E-009  0.9118800E+02  0.7815553E-02  0.1125453E+00
         25   -1    0    0    0    0  0.00000000000E+00  0.00000000000E+00  0.99999998245E-14  0.12509000000E+03  0.12509000000E+03 0.  0.
        -11    1    3    3    0    0 -0.19544875070E+02  0.18354998225E+02  0.31104695524E+02  0.41065924868E+02  0.51100000000E-03 0. -1.
         23    2    1    0    0    0 -0.99589732242E+01 -0.20131486603E+02 -0.11986351774E+02  0.99631592167E+02  0.96324055294E+02 0.  0.
         11    1    3    3    0    0  0.95859018462E+01 -0.38486484828E+02 -0.43091047298E+02  0.58565667299E+02  0.51100000000E-03 0.  1.
         22    1    1    0    0    0  0.99589732242E+01  0.20131486603E+02  0.11986351774E+02  0.25458407833E+02  0.00000000000E+00 0.  1.
</event>
<event>
 5    1  0.1047411E-009  0.9118800E+02  0.7815553E-02  0.1125453E+00
         25   -1    0    0    0    0  0.00000000000E+00  0.00000000000E+00  0.99999998245E-14  0.12509000000E+03  0.12509000000E+03 0.  0.
        -11    1    3    3    0    0  0.19185303789E+02  0.36783222497E+02 -0.73594025585E+01  0.42133622501E+02  0.51100000000E-03 0.  1.
         23    2    1    0    0    0  0.19558703475E+02 -0.18746815352E+02 -0.19510066143E+01  0.97927665891E+02  0.94085255766E+02 0.  0.
         11    1    3    3    0    0  0.37339968598E+00 -0.55530037849E+02  0.54083959442E+01  0.55794043390E+02  0.51100000000E-03 0. -1.
         22    1    1    0    0    0 -0.19558703475E+02  0.18746815352E+02  0.19510066143E+01  0.27162334109E+02  0.00000000000E+00 0. -1.
</event>
<event>
 5    1  0.1047411E-009  0.9118800E+02  0.7815553E-02  0.1125453E+00
         25   -1    0    0    0    0  0.00000000000E+00  0.00000000000E+00  0.99999998245E-14  0.12509000000E+03  0.12509000000E+03 0.  0.
        -11    1    3    3    0    0  0.35714532131E+02  0.33952300689E+02  0.30042372771E+02  0.57713349317E+02  0.51100000000E-03 0.  1.
         23    2    1    0    0    0  0.27842100086E+02  0.32435318371E+01  0.94794495157E+01  0.95500086193E+02  0.90800349470E+02 0.  0.
         11    1    3    3    0    0 -0.78724320451E+01 -0.30708768852E+02 -0.20562923255E+02  0.37786736876E+02  0.51100000000E-03 0. -1.
         22    1    1    0    0    0 -0.27842100086E+02 -0.32435318371E+01 -0.94794495157E+01  0.29589913807E+02  0.00000000000E+00 0.  1.
</event>
<event>
 5    1  0.1047411E-009  0.9118800E+02  0.7815553E-02  0.1125453E+00
         25   -1    0    0    0    0  0.00000000000E+00  0.00000000000E+00  0.99999998245E-14  0.12509000000E+03  0.12509000000E+03 0.  0.
        -11    1    3    3    0    0  0.71566693344E+00 -0.68799299609E+01 -0.35235900650E+02  0.35908415592E+02  0.51100000000E-03 0. -1.
         23    2    1    0    0    0  0.13536235652E+02  0.20486366907E+02  0.16276220639E+02  0.95630939204E+02  0.90980438942E+02 0.  0.
         11    1    3    3    0    0  0.12820568719E+02  0.27366296868E+02  0.51512121290E+02  0.59722523612E+02  0.51100000000E-03 0.  1.
         22    1    1    0    0    0 -0.13536235652E+02 -0.20486366907E+02 -0.16276220639E+02  0.29459060796E+02  0.00000000000E+00 0.  1.
</event>
<event>
 5    1  0.1047411E-009  0.9118800E+02  0.7815553E-02  0.1125453E+00
         25   -1    0    0    0    0  0.00000000000E+00  0.00000000000E+00  0.99999998245E-14  0.12509000000E+03  0.12509000000E+03 0.  0.
        -11    1    3    3    0    0 -0.25381377567E+02  0.20214346885E+02  0.11242973713E+02  0.34340043759E+02  0.51100000000E-03 0.  1.
         23    2    1    0    0    0  0.72820270767E+01 -0.19018573717E+02 -0.21883656699E+02  0.95196380361E+02  0.90380984387E+02 0.  0.
         11    1    3    3    0    0  0.32663404644E+02 -0.39232920602E+02 -0.33126630413E+02  0.60856336602E+02  0.51100000000E-03 0. -1.
         22    1    1    0    0    0 -0.72820270767E+01  0.19018573717E+02  0.21883656699E+02  0.29893619639E+02  0.00000000000E+00 0. -1.
</event>
<event>
 5    1  0.1047411E-009  0.9118800E+02  0.7815553E-02  0.1125453E+00
         25   -1    0    0    0    0  0.00000000000E+00  0.00000000000E+00  0.99999998245E-14  0.12509000000E+03  0.12509000000E+03 0.  0.
        -11    1    3    3    0    0  0.18651387685E+01 -0.87330842486E+01 -0.35718173019E+02  0.36817569002E+02  0.51100000000E-03 0. -1.
         23    2    1    0    0    0  0.26802575593E+02 -0.16570488995E+02  0.12117228836E+02  0.91329277280E+02  0.84860182004E+02 0.  0.
         11    1    3    3    0    0  0.24937436824E+02 -0.78374047466E+01  0.47835401855E+02  0.54511708278E+02  0.51100000000E-03 0.  1.
         22    1    1    0    0    0 -0.26802575593E+02  0.16570488995E+02 -0.12117228836E+02  0.33760722720E+02  0.00000000000E+00 0.  1.
</event>
<event>
 5    1  0.1047411E-009  0.9118800E+02  0.7815553E-02  0.1125453E+00
         25   -1    0    0    0    0  0.00000000000E+00  0.00000000000E+00  0.99999998245E-14  0.12509000000E+03  0.12509000000E+03 0.  0.
        -11    1    3    3    0    0  0.20360071600E+02  0.36777289722E+02 -0.39627266284E+01  0.42223272700E+02  0.51100000000E-03 0.  1.
         23    2    1    0    0    0  0.15396620274E+02 -0.20230832794E+02  0.87913917504E+00  0.99651537053E+02  0.96349952984E+02 0.  0.
         11    1    3    3    0    0 -0.49634513267E+01 -0.57008122517E+02  0.48418658034E+01  0.57428264353E+02  0.51100000000E-03 0. -1.
         22    1    1    0    0    0 -0.15396620274E+02  0.20230832794E+02 -0.87913917504E+00  0.25438462947E+02  0.00000000000E+00 0. -1.
</event>
<event>
 5    1  0.1047411E-009  0.9118800E+02  0.7815553E-02  0.1125453E+00
         25   -1    0    0    0    0  0.00000000000E+00  0.00000000000E+00  0.99999998245E-14  0.12509000000E+03  0.12509000000E+03 0.  0.
        -11    1    3    3    0    0  0.36148033375E+02 -0.27936474418E+02 -0.10439523927E+02  0.46862677899E+02  0.51100000000E-03 0. -1.
         23    2    1    0    0    0  0.12672106515E+02  0.12195351822E+02 -0.24038728155E+02  0.95304611956E+02  0.90530656240E+02 0.  0.
         11    1    3    3    0    0 -0.23475926860E+02  0.40131826240E+02 -0.13599204228E+02  0.48441934057E+02  0.51100000000E-03 0.  1.
         22    1    1    0    0    0 -0.12672106515E+02 -0.12195351822E+02  0.24038728155E+02  0.29785388044E+02  0.00000000000E+00 0.  1.
</event>
<event>
 5    1  0.1047411E-009  0.9118800E+02  0.7815553E-02  0.1125453E+00
         25   -1    0    0    0    0  0.00000000000E+00  0.00000000000E+00  0.99999998245E-14  0.12509000000E+03  0.12509000000E+03 0.  0.
        -11    1    3    3    0    0  0.53397215657E+01  0.31754015725E+02 -0.16329847168E+01  0.32241227960E+02  0.51100000000E-03 0. -1.
         23    2    1    0    0    0 -0.37234553560E+01 -0.27970930763E+02  0.12415158609E+02  0.94261875652E+02  0.89078212547E+02 0.  0.
         11    1    3    3    0    0 -0.90631769217E+01 -0.59724946488E+02  0.14048143325E+02  0.62020647691E+02  0.51100000000E-03 0.  1.
         22    1    1    0    0    0  0.37234553560E+01  0.27970930763E+02 -0.12415158609E+02  0.30828124348E+02  0.00000000000E+00 0.  1.
</event>
<event>
 5    1  0.1047411E-009  0.9118800E+02  0.7815553E-02  0.1125453E+00
         25   -1    0    0    0    0  0.00000000000E+00  0.00000000000E+00  0.99999998245E-14  0.12509000000E+03  0.12509000000E+03 0.  0.
        -11    1    3    3    0    0 -0.50110651995E+02 -0.29173907917E+01 -0.16854391871E+02  0.52949590537E+02  0.51100000000E-03 0.  1.
         23    2    1    0    0    0 -0.27570864214E+02 -0.21519669184E+02  0.54231824548E+01  0.89697068174E+02  0.82419077984E+02 0.  0.
         11    1    3    3    0    0  0.22539787781E+02 -0.18602278393E+02  0.22277574326E+02  0.36747477637E+02  0.51100000000E-03 0. -1.
         22    1    1    0    0    0  0.27570864214E+02  0.21519669184E+02 -0.54231824548E+01  0.35392931826E+02  0.00000000000E+00 0.  1.
</event>
<event>
 5    1  0.1047411E-009  0.9118800E+02  0.7815553E-02  0.1125453E+00
         25   -1    0    0    0    0  0.00000000000E+00  0.00000000000E+00  0.99999998245E-14  0.12509000000E+03  0.12509000000E+03 0.  0.
        -11    1    3    3    0    0  0.23610525395E+02  0.38117184136E+02 -0.42693519175E+02  0.61912141101E+02  0.51100000000E-03 0. -1.
         23    2    1    0    0    0  0.10221289413E+02  0.12634933324E+02 -0.23529577292E+02  0.96493543840E+02  0.92158812372E+02 0.  0.
         11    1    3    3    0    0 -0.13389235981E+02 -0.25482250812E+02  0.19163941882E+02  0.34581402739E+02  0.51100000000E-03 0.  1.
         22    1    1    0    0    0 -0.10221289413E+02 -0.12634933324E+02  0.23529577292E+02  0.28596456160E+02  0.00000000000E+00 0. -1.
</event>
<event>
 5    1  0.1047411E-009  0.9118800E+02  0.7815553E-02  0.1125453E+00
         25   -1    0    0    0    0  0.00000000000E+00  0.00000000000E+00  0.99999998245E-14  0.12509000000E+03  0.12509000000E+03 0.  0.
        -11    1    3    3    0    0  0.39751692031E+02 -0.34210896964E+02 -0.18284760010E+02  0.55542010580E+02  0.51100000000E-03 0.  1.
         23    2    1    0    0    0  0.10576342467E+01 -0.27759824710E+02 -0.57790335349E+01  0.96715298473E+02  0.92459316848E+02 0.  0.
         11    1    3    3    0    0 -0.38694057784E+02  0.64510722532E+01  0.12505726475E+02  0.41173287893E+02  0.51100000000E-03 0. -1.
         22    1    1    0    0    0 -0.10576342467E+01  0.27759824710E+02  0.57790335349E+01  0.28374701527E+02  0.00000000000E+00 0.  1.
</event>
<event>
 5    1  0.1047411E-009  0.9118800E+02  0.7815553E-02  0.1125453E+00
         25   -1    0    0    0    0  0.00000000000E+00  0.00000000000E+00  0.99999998245E-14  0.12509000000E+03  0.12509000000E+03 0.  0.
        -11    1    3    3    0    0  0.37120470557E+02  0.43853884503E+02 -0.13733410026E+02  0.59073674946E+02  0.51100000000E-03 0. -1.
         23    2    1    0    0    0  0.22514587188E+02  0.99510484361E+01 -0.15447654729E+02  0.96028684857E+02  0.91525670046E+02 0.  0.
         11    1    3    3    0    0 -0.14605883369E+02 -0.33902836067E+02 -0.17142447029E+01  0.36955009911E+02  0.51100000000E-03 0.  1.
         22    1    1    0    0    0 -0.22514587188E+02 -0.99510484361E+01  0.15447654729E+02  0.29061315143E+02  0.00000000000E+00 0. -1.
</event>
<event>
 5    1  0.1047411E-009  0.9118800E+02  0.7815553E-02  0.1125453E+00
         25   -1    0    0    0    0  0.00000000000E+00  0.00000000000E+00  0.99999998245E-14  0.12509000000E+03  0.12509000000E+03 0.  0.
        -11    1    3    3    0    0 -0.89345517635E+01 -0.53293675804E+02  0.24015480183E+02  0.59133623131E+02  0.51100000000E-03 0. -1.
         23    2    1    0    0    0  0.10258097224E+02 -0.24912045952E+02  0.13385518793E+02  0.95006604156E+02  0.90117945647E+02 0.  0.
         11    1    3    3    0    0  0.19192648987E+02  0.28381629852E+02 -0.10629961389E+02  0.35872981025E+02  0.51100000000E-03 0.  1.
         22    1    1    0    0    0 -0.10258097224E+02  0.24912045952E+02 -0.13385518793E+02  0.30083395844E+02  0.00000000000E+00 0. -1.
</event>
<event>
 5    1  0.1047411E-009  0.9118800E+02  0.7815553E-02  0.1125453E+00
         25   -1    0    0    0    0  0.00000000000E+00  0.00000000000E+00  0.99999998245E-14  0.12509000000E+03  0.12509000000E+03 0.  0.
        -11    1    3    3    0    0 -0.29173960481E+02  0.40379850666E+02  0.28845949334E+02  0.57565103172E+02  0.51100000000E-03 0. -1.
         23    2    1    0    0    0 -0.14087868021E+02  0.22497147769E+02 -0.43648007684E+01  0.98189420660E+02  0.94432627627E+02 0.  0.
         11    1    3    3    0    0  0.15086092460E+02 -0.17882702898E+02 -0.33210750103E+02  0.40624317487E+02  0.51100000000E-03 0.  1.
         22    1    1    0    0    0  0.14087868021E+02 -0.22497147769E+02  0.43648007684E+01  0.26900579340E+02  0.00000000000E+00 0.  1.
</event>
<event>
 5    1  0.1047411E-009  0.9118800E+02  0.7815553E-02  0.1125453E+00
         25   -1    0    0    0    0  0.00000000000E+00  0.00000000000E+00  0.99999998245E-14  0.12509000000E+03  0.12509000000E+03 0.  0.
        -11    1    3    3    0    0 -0.21927678033E+02 -0.30720397354E+02 -0.18604115259E+02  0.42079436573E+02  0.51100000000E-03 0.  1.
         23    2    1    0    0    0  0.25456650783E+02 -0.58666304373E+01 -0.13091031966E+02  0.95869569823E+02  0.91307945319E+02 0.  0.
         11    1    3    3    0    0  0.47384328817E+02  0.24853766917E+02  0.55130832931E+01  0.53790133250E+02  0.51100000000E-03 0. -1.
         22    1    1    0    0    0 -0.25456650783E+02  0.58666304373E+01  0.13091031966E+02  0.29220430177E+02  0.00000000000E+00 0.  1.
</event>
<event>
 5    1  0.1047411E-009  0.9118800E+02  0.7815553E-02  0.1125453E+00
         25   -1    0    0    0    0  0.00000000000E+00  0.00000000000E+00  0.99999998245E-14  0.12509000000E+03  0.12509000000E+03 0.  0.
        -11    1    3    3    0    0 -0.25165100577E+02  0.27765040444E+02 -0.93772366393E+01  0.38627869798E+02  0.51100000000E-03 0. -1.
         23    2    1    0    0    0  0.20198230771E+02  0.47107745575E+01  0.19061348464E+02  0.96920957977E+02  0.92737140169E+02 0.  0.
         11    1    3    3    0    0  0.45363331347E+02 -0.23054265887E+02  0.28438585104E+02  0.58293088179E+02  0.51100000000E-03 0.  1.
         22    1    1    0    0    0 -0.20198230771E+02 -0.47107745575E+01 -0.19061348464E+02  0.28169042023E+02  0.00000000000E+00 0.  1.
</event>
<event>
 5    1  0.1047411E-009  0.9118800E+02  0.7815553E-02  0.1125453E+00
         25   -1    0    0    0    0  0.00000000000E+00  0.00000000000E+00  0.99999998245E-14  0.12509000000E+03  0.12509000000E+03 0.  0.
        -11    1    3    3    0    0 -0.49924705410E+01 -0.14342068334E+02  0.34911721536E+02  0.38071616554E+02  0.51100000000E-03 0. -1.
         23    2    1    0    0    0 -0.23281430566E+02 -0.80297375454E+01 -0.18115087579E+02  0.94517821599E+02  0.89436907972E+02 0.  0.
         11    1    3    3    0    0 -0.18288960025E+02  0.63123307882E+01 -0.53026809115E+02  0.56446205044E+02  0.51100000000E-03 0.  1.
         22    1    1    0    0    0  0.23281430566E+02  0.80297375454E+01  0.18115087579E+02  0.30572178401E+02  0.00000000000E+00 0.  1.
</event>
<event>
 5    1  0.1047411E-009  0.9118800E+02  0.7815553E-02  0.1125453E+00
         25   -1    0    0    0    0  0.00000000000E+00  0.00000000000E+00  0.99999998245E-14  0.12509000000E+03  0.12509000000E+03 0.  0.
        -11    1    3    3    0    0  0.32319046224E+02 -0.18850981486E+02  0.15044470095E+01  0.37445208143E+02  0.51100000000E-03 0.  1.
         23    2    1    0    0    0 -0.11484442404E+02  0.10353385281E+02 -0.24465011393E+02  0.96148303668E+02  0.91689009765E+02 0.  0.
         11    1    3    3    0    0 -0.43803488628E+02  0.29204366767E+02 -0.25969458403E+02  0.58703095525E+02  0.51100000000E-03 0. -1.
         22    1    1    0    0    0  0.11484442404E+02 -0.10353385281E+02  0.24465011393E+02  0.28941696332E+02  0.00000000000E+00 0. -1.
</event>
<event>
 5    1  0.1047411E-009  0.9118800E+02  0.7815553E-02  0.1125453E+00
         25   -1    0    0    0    0  0.00000000000E+00  0.00000000000E+00  0.99999998245E-14  0.12509000000E+03  0.12509000000E+03 0.  0.
        -11    1    3    3    0    0 -0.51778498823E+01 -0.22758930533E+02  0.27830480748E+02  0.36322371995E+02  0.51100000000E-03 0. -1.
         23    2    1    0    0    0 -0.24132313454E+02  0.22523076053E+02  0.14561177677E+01  0.92047939131E+02  0.85913010142E+02 0.  0.
         11    1    3    3    0    0 -0.18954463572E+02  0.45282006586E+02 -0.26374362980E+02  0.55725567136E+02  0.51100000000E-03 0.  1.
         22    1    1    0    0    0  0.24132313454E+02 -0.22523076053E+02 -0.14561177677E+01  0.33042060869E+02  0.00000000000E+00 0.  1.
</event>
<event>
 5    1  0.1047411E-009  0.9118800E+02  0.7815553E-02  0.1125453E+00
         25   -1    0    0    0    0  0.00000000000E+00  0.00000000000E+00  0.99999998245E-14  0.12509000000E+03  0.12509000000E+03 0.  0.
        -11    1    3    3    0    0 -0.99103958750E+01  0.42938693836E+02 -0.11721204147E+02  0.45599714929E+02  0.51100000000E-03 0. -1.
         23    2    1    0    0    0 -0.13669018663E+02 -0.41123917108E+01 -0.26440472191E+02  0.95042497500E+02  0.90167754351E+02 0.  0.
         11    1    3    3    0    0 -0.37586227880E+01 -0.47051085547E+02 -0.14719268044E+02  0.49442782571E+02  0.51100000000E-03 0.  1.
         22    1    1    0    0    0  0.13669018663E+02  0.41123917108E+01  0.26440472191E+02  0.30047502500E+02  0.00000000000E+00 0. -1.
</event>
<event>
 5    1  0.1047411E-009  0.9118800E+02  0.7815553E-02  0.1125453E+00
         25   -1    0    0    0    0  0.00000000000E+00  0.00000000000E+00  0.99999998245E-14  0.12509000000E+03  0.12509000000E+03 0.  0.
        -11    1    3    3    0    0 -0.54255686093E+02  0.24572519253E+02  0.11164735868E+02  0.60598180692E+02  0.51100000000E-03 0. -1.
         23    2    1    0    0    0 -0.27406695651E+02  0.70681115156E+01  0.15301525953E+02  0.92915136156E+02  0.87166511135E+02 0.  0.
         11    1    3    3    0    0  0.26848990442E+02 -0.17504407737E+02  0.41367900852E+01  0.32316955464E+02  0.51100000000E-03 0.  1.
         22    1    1    0    0    0  0.27406695651E+02 -0.70681115156E+01 -0.15301525953E+02  0.32174863844E+02  0.00000000000E+00 0. -1.
</event>
<event>
 5    1  0.1047411E-009  0.9118800E+02  0.7815553E-02  0.1125453E+00
         25   -1    0    0    0    0  0.00000000000E+00  0.00000000000E+00  0.99999998245E-14  0.12509000000E+03  0.12509000000E+03 0.  0.
        -11    1    3    3    0    0 -0.43588341781E+02  0.21212915363E+02 -0.10708010421E+00  0.48476208431E+02  0.51100000000E-03 0. -1.
         23    2    1    0    0    0  0.11215285990E+01  0.22863278423E+02 -0.17290535714E+02  0.96402895720E+02  0.92035690639E+02 0.  0.
         11    1    3    3    0    0  0.44709870380E+02  0.16503630602E+01 -0.17183455610E+02  0.47926687290E+02  0.51100000000E-03 0.  1.
         22    1    1    0    0    0 -0.11215285990E+01 -0.22863278423E+02  0.17290535714E+02  0.28687104280E+02  0.00000000000E+00 0. -1.
</event>
<event>
 5    1  0.1047411E-009  0.9118800E+02  0.7815553E-02  0.1125453E+00
         25   -1    0    0    0    0  0.00000000000E+00  0.00000000000E+00  0.99999998245E-14  0.12509000000E+03  0.12509000000E+03 0.  0.
        -11    1    3    3    0    0  0.15167215056E+02  0.33111594352E+02 -0.34950288743E+02  0.50477170846E+02  0.51100000000E-03 0. -1.
         23    2    1    0    0    0 -0.44561649150E+00 -0.87773847422E+01 -0.28031040978E+02  0.95713473396E+02  0.91093845425E+02 0.  0.
         11    1    3    3    0    0 -0.15612831548E+02 -0.41888979095E+02  0.69192477649E+01  0.45236302550E+02  0.51100000000E-03 0.  1.
         22    1    1    0    0    0  0.44561649150E+00  0.87773847422E+01  0.28031040978E+02  0.29376526604E+02  0.00000000000E+00 0.  1.
</event>
<event>
 5    1  0.1047411E-009  0.9118800E+02  0.7815553E-02  0.1125453E+00
         25   -1    0    0    0    0  0.00000000000E+00  0.00000000000E+00  0.99999998245E-14  0.12509000000E+03  0.12509000000E+03 0.  0.
        -11    1    3    3    0    0  0.20522328243E+01 -0.56467876677E+02  0.22636169765E+02  0.60870591732E+02  0.51100000000E-03 0.  1.
         23    2    1    0    0    0 -0.78436823364E+01 -0.29334716914E+02  0.62106526083E+01  0.94096110685E+02  0.88845128574E+02 0.  0.
         11    1    3    3    0    0 -0.98959151607E+01  0.27133159762E+02 -0.16425517157E+02  0.33225518953E+02  0.51100000000E-03 0. -1.
         22    1    1    0    0    0  0.78436823364E+01  0.29334716914E+02 -0.62106526083E+01  0.30993889315E+02  0.00000000000E+00 0.  1.
</event>
<event>
 5    1  0.1047411E-009  0.9118800E+02  0.7815553E-02  0.1125453E+00
         25   -1    0    0    0    0  0.00000000000E+00  0.00000000000E+00  0.99999998245E-14  0.12509000000E+03  0.12509000000E+03 0.  0.
        -11    1    3    3    0    0 -0.17238884834E+02 -0.33974679755E+02 -0.37847336966E+01  0.38285535443E+02  0.51100000000E-03 0.  1.
         23    2    1    0    0    0 -0.14508932838E+02  0.24334817451E+02 -0.20364412771E+01  0.96685078498E+02  0.92418422614E+02 0.  0.
         11    1    3    3    0    0  0.27299519961E+01  0.58309497206E+02  0.17482924195E+01  0.58399543054E+02  0.51100000000E-03 0. -1.
         22    1    1    0    0    0  0.14508932838E+02 -0.24334817451E+02  0.20364412771E+01  0.28404921502E+02  0.00000000000E+00 0. -1.
</event>
<event>
 5    1  0.1047411E-009  0.9118800E+02  0.7815553E-02  0.1125453E+00
         25   -1    0    0    0    0  0.00000000000E+00  0.00000000000E+00  0.99999998245E-14  0.12509000000E+03  0.12509000000E+03 0.  0.
        -11    1    3    3    0    0  0.21095188663E+02 -0.25357068850E+02 -0.90566684856E+01  0.34205426028E+02  0.51100000000E-03 0. -1.
         23    2    1    0    0    0 -0.24144083238E+02  0.68292714871E+01  0.16223447934E+02  0.95210643124E+02  0.90400722324E+02 0.  0.
         11    1    3    3    0    0 -0.45239271901E+02  0.32186340338E+02  0.25280116420E+02  0.61005217096E+02  0.51100000000E-03 0.  1.
         22    1    1    0    0    0  0.24144083238E+02 -0.68292714871E+01 -0.16223447934E+02  0.29879356876E+02  0.00000000000E+00 0.  1.
</event>
<event>
 5    1  0.1047411E-009  0.9118800E+02  0.7815553E-02  0.1125453E+00
         25   -1    0    0    0    0  0.00000000000E+00  0.00000000000E+00  0.99999998245E-14  0.12509000000E+03  0.12509000000E+03 0.  0.
        -11    1    3    3    0    0 -0.76397722616E+00  0.51731809301E+01 -0.35005056544E+02  0.35393494402E+02  0.51100000000E-03 0.  1.
         23    2    1    0    0    0  0.20045641981E+02 -0.30518707142E+01  0.21118459822E+02  0.95813199927E+02  0.91230687039E+02 0.  0.
         11    1    3    3    0    0  0.20809619207E+02 -0.82250516443E+01  0.56123516366E+02  0.60419705524E+02  0.51100000000E-03 0. -1.
         22    1    1    0    0    0 -0.20045641981E+02  0.30518707142E+01 -0.21118459822E+02  0.29276800073E+02  0.00000000000E+00 0. -1.
</event>
<event>
 5    1  0.1047411E-009  0.9118800E+02  0.7815553E-02  0.1125453E+00
         25   -1    0    0    0    0  0.00000000000E+00  0.00000000000E+00  0.99999998245E-14  0.12509000000E+03  0.12509000000E+03 0.  0.
        -11    1    3    3    0    0 -0.10722399636E+02 -0.43370027288E+02 -0.35005794309E+01  0.44812756862E+02  0.51100000000E-03 0. -1.
         23    2    1    0    0    0 -0.27422560346E+02  0.45283999597E+01  0.65725462110E+01  0.96529510057E+02  0.92207617505E+02 0.  0.
         11    1    3    3    0    0 -0.16700160710E+02  0.47898427248E+02  0.10073125642E+02  0.51716753195E+02  0.51100000000E-03 0.  1.
         22    1    1    0    0    0  0.27422560346E+02 -0.45283999597E+01 -0.65725462110E+01  0.28560489943E+02  0.00000000000E+00 0.  1.
</event>
<event>
 5    1  0.1047411E-009  0.9118800E+02  0.7815553E-02  0.1125453E+00
         25   -1    0    0    0    0  0.00000000000E+00  0.00000000000E+00  0.99999998245E-14  0.12509000000E+03  0.12509000000E+03 0.  0.
        -11    1    3    3    0    0  0.26135076181E+02 -0.21084866818E+02 -0.51192131996E+02  0.61222938465E+02  0.51100000000E-03 0. -1.
         23    2    1    0    0    0  0.12175632066E+02 -0.20392101242E+02 -0.27283149785E+02  0.88917440353E+02  0.81227194507E+02 0.  0.
         11    1    3    3    0    0 -0.13959444115E+02  0.69276557651E+00  0.23908982212E+02  0.27694501887E+02  0.51100000000E-03 0.  1.
         22    1    1    0    0    0 -0.12175632066E+02  0.20392101242E+02  0.27283149785E+02  0.36172559647E+02  0.00000000000E+00 0. -1.
</event>
<event>
 5    1  0.1047411E-009  0.9118800E+02  0.7815553E-02  0.1125453E+00
         25   -1    0    0    0    0  0.00000000000E+00  0.00000000000E+00  0.99999998245E-14  0.12509000000E+03  0.12509000000E+03 0.  0.
        -11    1    3    3    0    0  0.59743796202E+01  0.35038975332E+01  0.37594922382E+02  0.38227590807E+02  0.51100000000E-03 0.  1.
         23    2    1    0    0    0 -0.23514765990E+02  0.12256352662E+02 -0.11518761633E+02  0.96179028558E+02  0.91730917714E+02 0.  0.
         11    1    3    3    0    0 -0.29489145611E+02  0.87524551292E+01 -0.49113684015E+02  0.57951437751E+02  0.51100000000E-03 0. -1.
         22    1    1    0    0    0  0.23514765990E+02 -0.12256352662E+02  0.11518761633E+02  0.28910971442E+02  0.00000000000E+00 0. -1.
</event>
<event>
 5    1  0.1047411E-009  0.9118800E+02  0.7815553E-02  0.1125453E+00
         25   -1    0    0    0    0  0.00000000000E+00  0.00000000000E+00  0.99999998245E-14  0.12509000000E+03  0.12509000000E+03 0.  0.
        -11    1    3    3    0    0 -0.15552941426E+01  0.18074785379E+02 -0.88942540643E+00  0.18163366543E+02  0.51100000000E-03 0. -1.
         23    2    1    0    0    0  0.50563554886E+01 -0.43061542472E+02 -0.10694908766E+02  0.80433038119E+02  0.66897155221E+02 0.  0.
         11    1    3    3    0    0  0.66116496312E+01 -0.61136327851E+02 -0.98054833593E+01  0.62269671576E+02  0.51100000000E-03 0.  1.
         22    1    1    0    0    0 -0.50563554886E+01  0.43061542472E+02  0.10694908766E+02  0.44656961881E+02  0.00000000000E+00 0.  1.
</event>
<event>
 5    1  0.1047411E-009  0.9118800E+02  0.7815553E-02  0.1125453E+00
         25   -1    0    0    0    0  0.00000000000E+00  0.00000000000E+00  0.99999998245E-14  0.12509000000E+03  0.12509000000E+03 0.  0.
        -11    1    3    3    0    0  0.10751951842E+02  0.38002486693E+02 -0.13686199726E+00  0.39494457772E+02  0.51100000000E-03 0. -1.
         23    2    1    0    0    0 -0.28229615449E+02 -0.37156333602E+01 -0.10442447415E+01  0.96597763044E+02  0.92300163913E+02 0.  0.
         11    1    3    3    0    0 -0.38981567291E+02 -0.41718120053E+02 -0.90738274426E+00  0.57103305272E+02  0.51100000000E-03 0.  1.
         22    1    1    0    0    0  0.28229615449E+02  0.37156333602E+01  0.10442447415E+01  0.28492236956E+02  0.00000000000E+00 0.  1.
</event>
<event>
 5    1  0.1047411E-009  0.9118800E+02  0.7815553E-02  0.1125453E+00
         25   -1    0    0    0    0  0.00000000000E+00  0.00000000000E+00  0.99999998245E-14  0.12509000000E+03  0.12509000000E+03 0.  0.
        -11    1    3    3    0    0  0.35191461913E+02  0.53276841352E+01 -0.35912482095E+02  0.50562135836E+02  0.51100000000E-03 0. -1.
         23    2    1    0    0    0  0.15025556025E+02  0.28595958040E+02 -0.87471081090E+01  0.91623478664E+02  0.85292753456E+02 0.  0.
         11    1    3    3    0    0 -0.20165905888E+02  0.23268273904E+02  0.27165373986E+02  0.41061342828E+02  0.51100000000E-03 0.  1.
         22    1    1    0    0    0 -0.15025556025E+02 -0.28595958040E+02  0.87471081090E+01  0.33466521336E+02  0.00000000000E+00 0. -1.
</event>
<event>
 5    1  0.1047411E-009  0.9118800E+02  0.7815553E-02  0.1125453E+00
         25   -1    0    0    0    0  0.00000000000E+00  0.00000000000E+00  0.99999998245E-14  0.12509000000E+03  0.12509000000E+03 0.  0.
        -11    1    3    3    0    0  0.65829201868E-01  0.50045408924E+01  0.54184736449E+02  0.54415396970E+02  0.51100000000E-03 0.  1.
         23    2    1    0    0    0 -0.33010588521E+01 -0.19931354604E+02  0.23386596640E+02  0.94185489192E+02  0.88970880551E+02 0.  0.
         11    1    3    3    0    0 -0.33668880540E+01 -0.24935895497E+02 -0.30798139809E+02  0.39770092222E+02  0.51100000000E-03 0. -1.
         22    1    1    0    0    0  0.33010588521E+01  0.19931354604E+02 -0.23386596640E+02  0.30904510808E+02  0.00000000000E+00 0.  1.
</event>
<event>
 5    1  0.1047411E-009  0.9118800E+02  0.7815553E-02  0.1125453E+00
         25   -1    0    0    0    0  0.00000000000E+00  0.00000000000E+00  0.99999998245E-14  0.12509000000E+03  0.12509000000E+03 0.  0.
        -11    1    3    3    0    0 -0.33039911860E+02  0.47047635188E+01  0.46476337890E+02  0.57217309963E+02  0.51100000000E-03 0. -1.
         23    2    1    0    0    0  0.93461643114E+00  0.72935976682E+01  0.28330129139E+02  0.95821137845E+02  0.91241570384E+02 0.  0.
         11    1    3    3    0    0  0.33974528291E+02  0.25888341495E+01 -0.18146208751E+02  0.38603827882E+02  0.51100000000E-03 0.  1.
         22    1    1    0    0    0 -0.93461643114E+00 -0.72935976682E+01 -0.28330129139E+02  0.29268862155E+02  0.00000000000E+00 0. -1.
</event>
<event>
 5    1  0.1047411E-009  0.9118800E+02  0.7815553E-02  0.1125453E+00
         25   -1    0    0    0    0  0.00000000000E+00  0.00000000000E+00  0.99999998245E-14  0.12509000000E+03  0.12509000000E+03 0.  0.
        -11    1    3    3    0    0 -0.22988997967E+02  0.63763419446E+01 -0.55706778723E+02  0.60600304950E+02  0.51100000000E-03 0. -1.
         23    2    1    0    0    0 -0.17339188505E+02  0.12405932578E+02 -0.25835728201E+02  0.91593142345E+02  0.85248250726E+02 0.  0.
         11    1    3    3    0    0  0.56498094623E+01  0.60295906337E+01  0.29871050522E+02  0.30992837394E+02  0.51100000000E-03 0.  1.
         22    1    1    0    0    0  0.17339188505E+02 -0.12405932578E+02  0.25835728201E+02  0.33496857655E+02  0.00000000000E+00 0. -1.
</event>
<event>
 5    1  0.1047411E-009  0.9118800E+02  0.7815553E-02  0.1125453E+00
         25   -1    0    0    0    0  0.00000000000E+00  0.00000000000E+00  0.99999998245E-14  0.12509000000E+03  0.12509000000E+03 0.  0.
        -11    1    3    3    0    0  0.22490133428E+02  0.20646295830E+02  0.45806300799E+02  0.55048095573E+02  0.51100000000E-03 0. -1.
         23    2    1    0    0    0 -0.71762969506E+01  0.21872697079E+02  0.16495192637E+02  0.96770298455E+02  0.92533697471E+02 0.  0.
         11    1    3    3    0    0 -0.29666430379E+02  0.12264012495E+01 -0.29311108162E+02  0.41722202883E+02  0.51100000000E-03 0.  1.
         22    1    1    0    0    0  0.71762969506E+01 -0.21872697079E+02 -0.16495192637E+02  0.28319701545E+02  0.00000000000E+00 0. -1.
</event>
<event>
 5    1  0.1047411E-009  0.9118800E+02  0.7815553E-02  0.1125453E+00
         25   -1    0    0    0    0  0.00000000000E+00  0.00000000000E+00  0.99999998245E-14  0.12509000000E+03  0.12509000000E+03 0.  0.
        -11    1    3    3    0    0  0.86373931212E+01 -0.19898796736E+02 -0.29360560944E+02  0.36504920363E+02  0.51100000000E-03 0. -1.
         23    2    1    0    0    0 -0.18677993026E+02  0.18747335373E+02  0.86966945264E+01  0.97233896491E+02  0.93158296056E+02 0.  0.
         11    1    3    3    0    0 -0.27315386147E+02  0.38646132108E+02  0.38057255471E+02  0.60728976128E+02  0.51100000000E-03 0.  1.
         22    1    1    0    0    0  0.18677993026E+02 -0.18747335373E+02 -0.86966945264E+01  0.27856103509E+02  0.00000000000E+00 0.  1.
</event>
<event>
 5    1  0.1047411E-009  0.9118800E+02  0.7815553E-02  0.1125453E+00
         25   -1    0    0    0    0  0.00000000000E+00  0.00000000000E+00  0.99999998245E-14  0.12509000000E+03  0.12509000000E+03 0.  0.
        -11    1    3    3    0    0 -0.27775536567E+02  0.51038570077E+01  0.26652500273E+02  0.38831502147E+02  0.51100000000E-03 0.  1.
         23    2    1    0    0    0  0.13313167185E+02 -0.26702181903E+02  0.12917511657E+02  0.92576786589E+02  0.86679596035E+02 0.  0.
         11    1    3    3    0    0  0.41088703752E+02 -0.31806038911E+02 -0.13734988616E+02  0.53745284442E+02  0.51100000000E-03 0. -1.
         22    1    1    0    0    0 -0.13313167185E+02  0.26702181903E+02 -0.12917511657E+02  0.32513213411E+02  0.00000000000E+00 0. -1.
</event>
<event>
 5    1  0.1047411E-009  0.9118800E+02  0.7815553E-02  0.1125453E+00
         25   -1    0    0    0    0  0.00000000000E+00  0.00000000000E+00  0.99999998245E-14  0.12509000000E+03  0.12509000000E+03 0.  0.
        -11    1    3    3    0    0  0.19395381446E+02  0.48742408571E+02 -0.33618001927E+02  0.62307088430E+02  0.51100000000E-03 0. -1.
         23    2    1    0    0    0  0.87821354054E+01  0.24566504990E+02 -0.12275763633E+02  0.96257146473E+02  0.91837382392E+02 0.  0.
         11    1    3    3    0    0 -0.10613246040E+02 -0.24175903581E+02  0.21342238294E+02  0.33950058043E+02  0.51100000000E-03 0.  1.
         22    1    1    0    0    0 -0.87821354054E+01 -0.24566504990E+02  0.12275763633E+02  0.28832853527E+02  0.00000000000E+00 0. -1.
</event>
<event>
 5    1  0.1047411E-009  0.9118800E+02  0.7815553E-02  0.1125453E+00
         25   -1    0    0    0    0  0.00000000000E+00  0.00000000000E+00  0.99999998245E-14  0.12509000000E+03  0.12509000000E+03 0.  0.
        -11    1    3    3    0    0  0.14862388072E+02 -0.32005991870E+02  0.89969050767E+01  0.36417281557E+02  0.51100000000E-03 0.  1.
         23    2    1    0    0    0  0.92345700282E+01  0.18286435484E+02 -0.21411496142E+02  0.95456856843E+02  0.90740775537E+02 0.  0.
         11    1    3    3    0    0 -0.56278180438E+01  0.50292427354E+02 -0.30408401218E+02  0.59039575286E+02  0.51100000000E-03 0. -1.
         22    1    1    0    0    0 -0.92345700282E+01 -0.18286435484E+02  0.21411496142E+02  0.29633143157E+02  0.00000000000E+00 0. -1.
</event>
<event>
 5    1  0.1047411E-009  0.9118800E+02  0.7815553E-02  0.1125453E+00
         25   -1    0    0    0    0  0.00000000000E+00  0.00000000000E+00  0.99999998245E-14  0.12509000000E+03  0.12509000000E+03 0.  0.
        -11    1    3    3    0    0  0.11855503530E+02  0.39699042883E+02  0.15660503621E+02  0.44292418580E+02  0.51100000000E-03 0.  1.
         23    2    1    0    0    0 -0.79772273931E+00 -0.86993141893E+01  0.27951424509E+02  0.95805250368E+02  0.91219786434E+02 0.  0.
         11    1    3    3    0    0 -0.12653226269E+02 -0.48398357072E+02  0.12290920888E+02  0.51512831788E+02  0.51100000000E-03 0. -1.
         22    1    1    0    0    0  0.79772273931E+00  0.86993141893E+01 -0.27951424509E+02  0.29284749632E+02  0.00000000000E+00 0. -1.
</event>
<event>
 5    1  0.1047411E-009  0.9118800E+02  0.7815553E-02  0.1125453E+00
         25   -1    0    0    0    0  0.00000000000E+00  0.00000000000E+00  0.99999998245E-14  0.12509000000E+03  0.12509000000E+03 0.  0.
        -11    1    3    3    0    0 -0.33197733071E+02  0.51056011247E+02  0.71957163886E+01  0.61323601493E+02  0.51100000000E-03 0.  1.
         23    2    1    0    0    0 -0.93622029622E+01  0.27263177556E+02 -0.18783927956E+01  0.96202977754E+02  0.91763570520E+02 0.  0.
         11    1    3    3    0    0  0.23835530109E+02 -0.23792833691E+02 -0.90741091842E+01  0.34879376261E+02  0.51100000000E-03 0. -1.
         22    1    1    0    0    0  0.93622029622E+01 -0.27263177556E+02  0.18783927956E+01  0.28887022246E+02  0.00000000000E+00 0.  1.
</event>
<event>
 5    1  0.1047411E-009  0.9118800E+02  0.7815553E-02  0.1125453E+00
         25   -1    0    0    0    0  0.00000000000E+00  0.00000000000E+00  0.99999998245E-14  0.12509000000E+03  0.12509000000E+03 0.  0.
        -11    1    3    3    0    0  0.10258719345E+02 -0.17026626947E+02 -0.35697189279E+02  0.40858740442E+02  0.51100000000E-03 0.  1.
         23    2    1    0    0    0  0.21606144141E+02 -0.11282356756E+02  0.17196380427E+02  0.95259939014E+02  0.90468908707E+02 0.  0.
         11    1    3    3    0    0  0.11347424796E+02  0.57442701911E+01  0.52893569707E+02  0.54401198572E+02  0.51100000000E-03 0. -1.
         22    1    1    0    0    0 -0.21606144141E+02  0.11282356756E+02 -0.17196380427E+02  0.29830060986E+02  0.00000000000E+00 0. -1.
</event>
<event>
 5    1  0.1047411E-009  0.9118800E+02  0.7815553E-02  0.1125453E+00
         25   -1    0    0    0    0  0.00000000000E+00  0.00000000000E+00  0.99999998245E-14  0.12509000000E+03  0.12509000000E+03 0.  0.
        -11    1    3    3    0    0  0.35250531425E+02 -0.12855402617E+02 -0.13084460205E+02  0.39737443819E+02  0.51100000000E-03 0.  1.
         23    2    1    0    0    0 -0.19480953263E+02  0.11760668494E+02 -0.11072280278E+02  0.99783553113E+02  0.96521195693E+02 0.  0.
         11    1    3    3    0    0 -0.54731484688E+02  0.24616071111E+02  0.20121799268E+01  0.60046109294E+02  0.51100000000E-03 0. -1.
         22    1    1    0    0    0  0.19480953263E+02 -0.11760668494E+02  0.11072280278E+02  0.25306446887E+02  0.00000000000E+00 0. -1.
</event>
<event>
 5    1  0.1047411E-009  0.9118800E+02  0.7815553E-02  0.1125453E+00
         25   -1    0    0    0    0  0.00000000000E+00  0.00000000000E+00  0.99999998245E-14  0.12509000000E+03  0.12509000000E+03 0.  0.
        -11    1    3    3    0    0  0.18708234923E+02  0.76472922646E+01  0.25982567889E+02  0.32917669530E+02  0.51100000000E-03 0. -1.
         23    2    1    0    0    0 -0.23067558698E+01 -0.18970771783E+01 -0.30765455033E+02  0.94179916729E+02  0.88963045514E+02 0.  0.
         11    1    3    3    0    0 -0.21014990793E+02 -0.95443694429E+01 -0.56748022922E+02  0.61262247199E+02  0.51100000000E-03 0.  1.
         22    1    1    0    0    0  0.23067558698E+01  0.18970771783E+01  0.30765455033E+02  0.30910083271E+02  0.00000000000E+00 0.  1.
</event>
<event>
 5    1  0.1047411E-009  0.9118800E+02  0.7815553E-02  0.1125453E+00
         25   -1    0    0    0    0  0.00000000000E+00  0.00000000000E+00  0.99999998245E-14  0.12509000000E+03  0.12509000000E+03 0.  0.
        -11    1    3    3    0    0  0.38607417386E+02 -0.10997810886E+02 -0.34942624371E+02  0.53220968797E+02  0.51100000000E-03 0. -1.
         23    2    1    0    0    0  0.31332376023E+02  0.87006561455E+01 -0.17162934339E+01  0.92526755878E+02  0.86607365077E+02 0.  0.
         11    1    3    3    0    0 -0.72750413628E+01  0.19698467032E+02  0.33226330937E+02  0.39305787081E+02  0.51100000000E-03 0.  1.
         22    1    1    0    0    0 -0.31332376023E+02 -0.87006561455E+01  0.17162934339E+01  0.32563244122E+02  0.00000000000E+00 0. -1.
</event>
<event>
 5    1  0.1047411E-009  0.9118800E+02  0.7815553E-02  0.1125453E+00
         25   -1    0    0    0    0  0.00000000000E+00  0.00000000000E+00  0.99999998245E-14  0.12509000000E+03  0.12509000000E+03 0.  0.
        -11    1    3    3    0    0  0.28455874497E+02 -0.13938688523E+02 -0.38171822248E+02  0.49609594285E+02  0.51100000000E-03 0.  1.
         23    2    1    0    0    0 -0.13389776784E+02 -0.95095242919E+01 -0.27562120534E+02  0.93005928205E+02  0.87296706802E+02 0.  0.
         11    1    3    3    0    0 -0.41845651282E+02  0.44291642314E+01  0.10609701714E+02  0.43396333920E+02  0.51100000000E-03 0. -1.
         22    1    1    0    0    0  0.13389776784E+02  0.95095242919E+01  0.27562120534E+02  0.32084071795E+02  0.00000000000E+00 0. -1.
</event>
<event>
 5    1  0.1047411E-009  0.9118800E+02  0.7815553E-02  0.1125453E+00
         25   -1    0    0    0    0  0.00000000000E+00  0.00000000000E+00  0.99999998245E-14  0.12509000000E+03  0.12509000000E+03 0.  0.
        -11    1    3    3    0    0  0.38618125199E+02 -0.43739618182E+02  0.19743476641E+02  0.61598041063E+02  0.51100000000E-03 0.  1.
         23    2    1    0    0    0  0.22909098065E+02 -0.16781298772E+02  0.44511590403E+01  0.96345407822E+02  0.91957522960E+02 0.  0.
         11    1    3    3    0    0 -0.15709027134E+02  0.26958319410E+02 -0.15292317600E+02  0.34747366760E+02  0.51100000000E-03 0. -1.
         22    1    1    0    0    0 -0.22909098065E+02  0.16781298772E+02 -0.44511590403E+01  0.28744592178E+02  0.00000000000E+00 0.  1.
</event>
<event>
 5    1  0.1047411E-009  0.9118800E+02  0.7815553E-02  0.1125453E+00
         25   -1    0    0    0    0  0.00000000000E+00  0.00000000000E+00  0.99999998245E-14  0.12509000000E+03  0.12509000000E+03 0.  0.
        -11    1    3    3    0    0  0.15989257033E+02 -0.19814934987E+02  0.44550207949E+02  0.51312854311E+02  0.51100000000E-03 0.  1.
         23    2    1    0    0    0  0.18196495537E+02  0.15203026356E+02  0.17349512701E+02  0.95708882745E+02  0.91087541327E+02 0.  0.
         11    1    3    3    0    0  0.22072385042E+01  0.35017961343E+02 -0.27200695248E+02  0.44396028433E+02  0.51100000000E-03 0. -1.
         22    1    1    0    0    0 -0.18196495537E+02 -0.15203026356E+02 -0.17349512701E+02  0.29381117255E+02  0.00000000000E+00 0. -1.
</event>
<event>
 5    1  0.1047411E-009  0.9118800E+02  0.7815553E-02  0.1125453E+00
         25   -1    0    0    0    0  0.00000000000E+00  0.00000000000E+00  0.99999998245E-14  0.12509000000E+03  0.12509000000E+03 0.  0.
        -11    1    3    3    0    0 -0.25170314784E+02 -0.19724077391E+02  0.25455810429E+02  0.40872756943E+02  0.51100000000E-03 0. -1.
         23    2    1    0    0    0 -0.59893069337E+01  0.28004860159E+02  0.62677002878E+01  0.95773996572E+02  0.91176917926E+02 0.  0.
         11    1    3    3    0    0  0.19181007850E+02  0.47728937550E+02 -0.19188110141E+02  0.54901239629E+02  0.51100000000E-03 0.  1.
         22    1    1    0    0    0  0.59893069337E+01 -0.28004860159E+02 -0.62677002878E+01  0.29316003428E+02  0.00000000000E+00 0.  1.
</event>
<event>
 5    1  0.1047411E-009  0.9118800E+02  0.7815553E-02  0.1125453E+00
         25   -1    0    0    0    0  0.00000000000E+00  0.00000000000E+00  0.99999998245E-14  0.12509000000E+03  0.12509000000E+03 0.  0.
        -11    1    3    3    0    0  0.37387001009E+02  0.20616789418E+02 -0.44408034794E+02  0.61602868479E+02  0.51100000000E-03 0. -1.
         23    2    1    0    0    0  0.16725634339E+02  0.28586276033E+01 -0.24246830315E+02  0.95495619179E+02  0.90794195334E+02 0.  0.
         11    1    3    3    0    0 -0.20661366669E+02 -0.17758161815E+02  0.20161204479E+02  0.33892750700E+02  0.51100000000E-03 0.  1.
         22    1    1    0    0    0 -0.16725634339E+02 -0.28586276033E+01  0.24246830315E+02  0.29594380821E+02  0.00000000000E+00 0. -1.
</event>
<event>
 5    1  0.1047411E-009  0.9118800E+02  0.7815553E-02  0.1125453E+00
         25   -1    0    0    0    0  0.00000000000E+00  0.00000000000E+00  0.99999998245E-14  0.12509000000E+03  0.12509000000E+03 0.  0.
        -11    1    3    3    0    0  0.29432274963E+02 -0.17561165597E+02  0.91376695867E+01  0.35470415171E+02  0.51100000000E-03 0. -1.
         23    2    1    0    0    0 -0.14807292817E+02  0.20022324711E+02 -0.12254331815E+02  0.97335395776E+02  0.93294486521E+02 0.  0.
         11    1    3    3    0    0 -0.44239567780E+02  0.37583490308E+02 -0.21392001401E+02  0.61864980606E+02  0.51100000000E-03 0.  1.
         22    1    1    0    0    0  0.14807292817E+02 -0.20022324711E+02  0.12254331815E+02  0.27754604224E+02  0.00000000000E+00 0.  1.
</event>
<event>
 5    1  0.1047411E-009  0.9118800E+02  0.7815553E-02  0.1125453E+00
         25   -1    0    0    0    0  0.00000000000E+00  0.00000000000E+00  0.99999998245E-14  0.12509000000E+03  0.12509000000E+03 0.  0.
        -11    1    3    3    0    0 -0.65288729980E+01 -0.33799309617E+02  0.19789884058E+02  0.39707165909E+02  0.51100000000E-03 0. -1.
         23    2    1    0    0    0 -0.22895658743E+02  0.91533137584E+01 -0.13980957441E+02  0.96744603319E+02  0.92498955444E+02 0.  0.
         11    1    3    3    0    0 -0.16366785745E+02  0.42952623375E+02 -0.33770841499E+02  0.57037437410E+02  0.51100000000E-03 0.  1.
         22    1    1    0    0    0  0.22895658743E+02 -0.91533137584E+01  0.13980957441E+02  0.28345396681E+02  0.00000000000E+00 0.  1.
</event>
<event>
 5    1  0.1047411E-009  0.9118800E+02  0.7815553E-02  0.1125453E+00
         25   -1    0    0    0    0  0.00000000000E+00  0.00000000000E+00  0.99999998245E-14  0.12509000000E+03  0.12509000000E+03 0.  0.
        -11    1    3    3    0    0 -0.76661813413E+01  0.29707352835E+01  0.55206964210E+02  0.55815808711E+02  0.51100000000E-03 0. -1.
         23    2    1    0    0    0  0.15441703144E+02  0.91117389607E+01  0.24270684042E+02  0.94914909499E+02  0.89990577053E+02 0.  0.
         11    1    3    3    0    0  0.23107884485E+02  0.61410036772E+01 -0.30936280168E+02  0.39099100788E+02  0.51100000000E-03 0.  1.
         22    1    1    0    0    0 -0.15441703144E+02 -0.91117389607E+01 -0.24270684042E+02  0.30175090501E+02  0.00000000000E+00 0. -1.
</event>
<event>
 5    1  0.1047411E-009  0.9118800E+02  0.7815553E-02  0.1125453E+00
         25   -1    0    0    0    0  0.00000000000E+00  0.00000000000E+00  0.99999998245E-14  0.12509000000E+03  0.12509000000E+03 0.  0.
        -11    1    3    3    0    0  0.29212458427E+02 -0.47191006405E+02  0.22792998405E+02  0.59998996570E+02  0.51100000000E-03 0. -1.
         23    2    1    0    0    0  0.14745137109E+02 -0.25262740865E+02 -0.15276263667E+01  0.95799066476E+02  0.91211306048E+02 0.  0.
         11    1    3    3    0    0 -0.14467321318E+02  0.21928265540E+02 -0.24320624772E+02  0.35800069906E+02  0.51100000000E-03 0.  1.
         22    1    1    0    0    0 -0.14745137109E+02  0.25262740865E+02  0.15276263667E+01  0.29290933524E+02  0.00000000000E+00 0. -1.
</event>
<event>
 5    1  0.1047411E-009  0.9118800E+02  0.7815553E-02  0.1125453E+00
         25   -1    0    0    0    0  0.00000000000E+00  0.00000000000E+00  0.99999998245E-14  0.12509000000E+03  0.12509000000E+03 0.  0.
        -11    1    3    3    0    0 -0.30339436401E+02  0.70992164366E+01  0.49602058222E+02  0.58576825241E+02  0.51100000000E-03 0.  1.
         23    2    1    0    0    0 -0.15269164490E+02 -0.12378158730E+02  0.20806797678E+02  0.96466774685E+02  0.92122470607E+02 0.  0.
         11    1    3    3    0    0  0.15070271911E+02 -0.19477375167E+02 -0.28795260544E+02  0.37889949445E+02  0.51100000000E-03 0. -1.
         22    1    1    0    0    0  0.15269164490E+02  0.12378158730E+02 -0.20806797678E+02  0.28623225315E+02  0.00000000000E+00 0.  1.
</event>
<event>
 5    1  0.1047411E-009  0.9118800E+02  0.7815553E-02  0.1125453E+00
         25   -1    0    0    0    0  0.00000000000E+00  0.00000000000E+00  0.99999998245E-14  0.12509000000E+03  0.12509000000E+03 0.  0.
        -11    1    3    3    0    0  0.24650311456E+02  0.19850344379E+02  0.20196206892E+02  0.37544118047E+02  0.51100000000E-03 0. -1.
         23    2    1    0    0    0 -0.54832041414E+01 -0.27979500614E+02  0.91682680512E+01  0.95140457077E+02  0.90303551710E+02 0.  0.
         11    1    3    3    0    0 -0.30133515598E+02 -0.47829844992E+02 -0.11027938841E+02  0.57596339030E+02  0.51100000000E-03 0.  1.
         22    1    1    0    0    0  0.54832041414E+01  0.27979500614E+02 -0.91682680512E+01  0.29949542923E+02  0.00000000000E+00 0.  1.
</event>
<event>
 5    1  0.1047411E-009  0.9118800E+02  0.7815553E-02  0.1125453E+00
         25   -1    0    0    0    0  0.00000000000E+00  0.00000000000E+00  0.99999998245E-14  0.12509000000E+03  0.12509000000E+03 0.  0.
        -11    1    3    3    0    0 -0.18579392540E+02 -0.42020833596E+02 -0.22881640396E+01  0.46001956243E+02  0.51100000000E-03 0. -1.
         23    2    1    0    0    0 -0.21377460823E+02  0.45803998129E+01 -0.19535198254E+02  0.95771066450E+02  0.91172897862E+02 0.  0.
         11    1    3    3    0    0 -0.27980682829E+01  0.46601233409E+02 -0.17247034214E+02  0.49769110207E+02  0.51100000000E-03 0.  1.
         22    1    1    0    0    0  0.21377460823E+02 -0.45803998129E+01  0.19535198254E+02  0.29318933550E+02  0.00000000000E+00 0.  1.
</event>
<event>
 5    1  0.1047411E-009  0.9118800E+02  0.7815553E-02  0.1125453E+00
         25   -1    0    0    0    0  0.00000000000E+00  0.00000000000E+00  0.99999998245E-14  0.12509000000E+03  0.12509000000E+03 0.  0.
        -11    1    3    3    0    0 -0.27133202570E+02  0.13102062541E+02  0.22554286013E+02  0.37637355677E+02  0.51100000000E-03 0. -1.
         23    2    1    0    0    0  0.22041241666E+02 -0.13180066030E+02  0.18297714792E+02  0.93556892932E+02  0.88082662163E+02 0.  0.
         11    1    3    3    0    0  0.49174444235E+02 -0.26282128571E+02 -0.42565712202E+01  0.55919537256E+02  0.51100000000E-03 0.  1.
         22    1    1    0    0    0 -0.22041241666E+02  0.13180066030E+02 -0.18297714792E+02  0.31533107068E+02  0.00000000000E+00 0. -1.
</event>
<event>
 5    1  0.1047411E-009  0.9118800E+02  0.7815553E-02  0.1125453E+00
         25   -1    0    0    0    0  0.00000000000E+00  0.00000000000E+00  0.99999998245E-14  0.12509000000E+03  0.12509000000E+03 0.  0.
        -11    1    3    3    0    0  0.16679055621E+02 -0.38091329693E+02  0.38001242210E+01  0.41756211976E+02  0.51100000000E-03 0.  1.
         23    2    1    0    0    0 -0.25794335123E+02 -0.52613868216E+01  0.12170827160E+02  0.96087259621E+02  0.91605690391E+02 0.  0.
         11    1    3    3    0    0 -0.42473390745E+02  0.32829942871E+02  0.83707029386E+01  0.54331047645E+02  0.51100000000E-03 0. -1.
         22    1    1    0    0    0  0.25794335123E+02  0.52613868216E+01 -0.12170827160E+02  0.29002740379E+02  0.00000000000E+00 0. -1.
</event>
<event>
 5    1  0.1047411E-009  0.9118800E+02  0.7815553E-02  0.1125453E+00
         25   -1    0    0    0    0  0.00000000000E+00  0.00000000000E+00  0.99999998245E-14  0.12509000000E+03  0.12509000000E+03 0.  0.
        -11    1    3    3    0    0  0.63855417768E+01 -0.41357410381E+01 -0.47715810113E+02  0.48318506110E+02  0.51100000000E-03 0.  1.
         23    2    1    0    0    0 -0.21108438417E+02  0.34724323536E+01 -0.42766115052E+02  0.77271964120E+02  0.60699191786E+02 0.  0.
         11    1    3    3    0    0 -0.27493980194E+02  0.76081733917E+01  0.49496950616E+01  0.28953458009E+02  0.51100000000E-03 0. -1.
         22    1    1    0    0    0  0.21108438417E+02 -0.34724323536E+01  0.42766115052E+02  0.47818035880E+02  0.00000000000E+00 0. -1.
</event>
<event>
 5    1  0.1047411E-009  0.9118800E+02  0.7815553E-02  0.1125453E+00
         25   -1    0    0    0    0  0.00000000000E+00  0.00000000000E+00  0.99999998245E-14  0.12509000000E+03  0.12509000000E+03 0.  0.
        -11    1    3    3    0    0 -0.71946943905E+01 -0.13220667943E+02  0.60662247909E+02  0.62501664057E+02  0.51100000000E-03 0.  1.
         23    2    1    0    0    0 -0.23424950264E+01 -0.48542742479E+01  0.28426110722E+02  0.96157405367E+02  0.91701426241E+02 0.  0.
         11    1    3    3    0    0  0.48521993642E+01  0.83663936953E+01 -0.32236137187E+02  0.33655741310E+02  0.51100000000E-03 0. -1.
         22    1    1    0    0    0  0.23424950264E+01  0.48542742479E+01 -0.28426110722E+02  0.28932594633E+02  0.00000000000E+00 0.  1.
</event>
<event>
 5    1  0.1047411E-009  0.9118800E+02  0.7815553E-02  0.1125453E+00
         25   -1    0    0    0    0  0.00000000000E+00  0.00000000000E+00  0.99999998245E-14  0.12509000000E+03  0.12509000000E+03 0.  0.
        -11    1    3    3    0    0  0.46756487790E+01  0.30207238208E+02 -0.16297506167E+02  0.34640260380E+02  0.51100000000E-03 0. -1.
         23    2    1    0    0    0 -0.47490522371E+01 -0.28282499078E+02  0.11136541910E+01  0.96389939427E+02  0.92018079451E+02 0.  0.
         11    1    3    3    0    0 -0.94247010161E+01 -0.58489737286E+02  0.17411160358E+02  0.61749679047E+02  0.51100000000E-03 0.  1.
         22    1    1    0    0    0  0.47490522371E+01  0.28282499078E+02 -0.11136541910E+01  0.28700060573E+02  0.00000000000E+00 0.  1.
</event>
<event>
 5    1  0.1047411E-009  0.9118800E+02  0.7815553E-02  0.1125453E+00
         25   -1    0    0    0    0  0.00000000000E+00  0.00000000000E+00  0.99999998245E-14  0.12509000000E+03  0.12509000000E+03 0.  0.
        -11    1    3    3    0    0 -0.34846239623E+02  0.71943748255E+00  0.33650336966E+01  0.35015731582E+02  0.51100000000E-03 0. -1.
         23    2    1    0    0    0  0.23898464794E+01  0.11664341752E+02 -0.34106962629E+02  0.88964480841E+02  0.81299604653E+02 0.  0.
         11    1    3    3    0    0  0.37236086103E+02  0.10944904270E+02 -0.37471996326E+02  0.53948749259E+02  0.51100000000E-03 0.  1.
         22    1    1    0    0    0 -0.23898464794E+01 -0.11664341752E+02  0.34106962629E+02  0.36125519159E+02  0.00000000000E+00 0.  1.
</event>
<event>
 5    1  0.1047411E-009  0.9118800E+02  0.7815553E-02  0.1125453E+00
         25   -1    0    0    0    0  0.00000000000E+00  0.00000000000E+00  0.99999998245E-14  0.12509000000E+03  0.12509000000E+03 0.  0.
        -11    1    3    3    0    0 -0.27446406013E+02  0.18457020300E+02  0.39928866927E+02  0.51848637550E+02  0.51100000000E-03 0.  1.
         23    2    1    0    0    0  0.92237890390E+01 -0.22125192105E+01  0.27890652146E+02  0.95630502336E+02  0.90979838285E+02 0.  0.
         11    1    3    3    0    0  0.36670195052E+02 -0.20669539511E+02 -0.12038214781E+02  0.43781864786E+02  0.51100000000E-03 0. -1.
         22    1    1    0    0    0 -0.92237890390E+01  0.22125192105E+01 -0.27890652146E+02  0.29459497664E+02  0.00000000000E+00 0.  1.
</event>
<event>
 5    1  0.1047411E-009  0.9118800E+02  0.7815553E-02  0.1125453E+00
         25   -1    0    0    0    0  0.00000000000E+00  0.00000000000E+00  0.99999998245E-14  0.12509000000E+03  0.12509000000E+03 0.  0.
        -11    1    3    3    0    0 -0.38828303073E+02  0.24105213997E+02  0.16767557154E+01  0.45733029326E+02  0.51100000000E-03 0.  1.
         23    2    1    0    0    0  0.96751584513E+01  0.22005290184E+02 -0.14632773250E+02  0.96948224290E+02  0.92773911488E+02 0.  0.
         11    1    3    3    0    0  0.48503461524E+02 -0.20999238135E+01 -0.16309528966E+02  0.51215194964E+02  0.51100000000E-03 0. -1.
         22    1    1    0    0    0 -0.96751584513E+01 -0.22005290184E+02  0.14632773250E+02  0.28141775710E+02  0.00000000000E+00 0.  1.
</event>
<event>
 5    1  0.1047411E-009  0.9118800E+02  0.7815553E-02  0.1125453E+00
         25   -1    0    0    0    0  0.00000000000E+00  0.00000000000E+00  0.99999998245E-14  0.12509000000E+03  0.12509000000E+03 0.  0.
        -11    1    3    3    0    0  0.55721224248E+02  0.72597141783E+01 -0.10890941134E+02  0.57237844829E+02  0.51100000000E-03 0.  1.
         23    2    1    0    0    0  0.25162456418E+02  0.17731281260E+02  0.60578193164E+01  0.93717325218E+02  0.88310205090E+02 0.  0.
         11    1    3    3    0    0 -0.30558767830E+02  0.10471567082E+02  0.16948760450E+02  0.36479480390E+02  0.51100000000E-03 0. -1.
         22    1    1    0    0    0 -0.25162456418E+02 -0.17731281260E+02 -0.60578193164E+01  0.31372674782E+02  0.00000000000E+00 0.  1.
</event>
<event>
 5    1  0.1047411E-009  0.9118800E+02  0.7815553E-02  0.1125453E+00
         25   -1    0    0    0    0  0.00000000000E+00  0.00000000000E+00  0.99999998245E-14  0.12509000000E+03  0.12509000000E+03 0.  0.
        -11    1    3    3    0    0  0.12481085915E+02 -0.49942995624E+02  0.87095083632E+01  0.52210495628E+02  0.51100000000E-03 0.  1.
         23    2    1    0    0    0 -0.19479002915E+02 -0.23698067955E+02  0.29807852264E+00  0.94412339885E+02  0.89289255190E+02 0.  0.
         11    1    3    3    0    0 -0.31960088830E+02  0.26244927670E+02 -0.84114298406E+01  0.42201844256E+02  0.51100000000E-03 0. -1.
         22    1    1    0    0    0  0.19479002915E+02  0.23698067955E+02 -0.29807852264E+00  0.30677660115E+02  0.00000000000E+00 0.  1.
</event>
<event>
 5    1  0.1047411E-009  0.9118800E+02  0.7815553E-02  0.1125453E+00
         25   -1    0    0    0    0  0.00000000000E+00  0.00000000000E+00  0.99999998245E-14  0.12509000000E+03  0.12509000000E+03 0.  0.
        -11    1    3    3    0    0 -0.50068259747E+02  0.14496543912E+02  0.18458973466E+02  0.55296601353E+02  0.51100000000E-03 0. -1.
         23    2    1    0    0    0 -0.16056900083E+02  0.24825771364E+02 -0.37178221366E+00  0.95521753753E+02  0.90830194616E+02 0.  0.
         11    1    3    3    0    0  0.34011359664E+02  0.10329227452E+02 -0.18830755680E+02  0.40225152401E+02  0.51100000000E-03 0.  1.
         22    1    1    0    0    0  0.16056900083E+02 -0.24825771364E+02  0.37178221366E+00  0.29568246247E+02  0.00000000000E+00 0. -1.
</event>
<event>
 5    1  0.1047411E-009  0.9118800E+02  0.7815553E-02  0.1125453E+00
         25   -1    0    0    0    0  0.00000000000E+00  0.00000000000E+00  0.99999998245E-14  0.12509000000E+03  0.12509000000E+03 0.  0.
        -11    1    3    3    0    0  0.14714203604E+02 -0.24817036187E+02 -0.14909072697E+02  0.32475737432E+02  0.51100000000E-03 0. -1.
         23    2    1    0    0    0 -0.15560036641E+02  0.27128967645E+02 -0.45333752747E+01  0.93488621594E+02  0.87985653663E+02 0.  0.
         11    1    3    3    0    0 -0.30274240245E+02  0.51946003832E+02  0.10375697423E+02  0.61012884162E+02  0.51100000000E-03 0.  1.
         22    1    1    0    0    0  0.15560036641E+02 -0.27128967645E+02  0.45333752747E+01  0.31601378406E+02  0.00000000000E+00 0.  1.
</event>
<event>
 5    1  0.1047411E-009  0.9118800E+02  0.7815553E-02  0.1125453E+00
         25   -1    0    0    0    0  0.00000000000E+00  0.00000000000E+00  0.99999998245E-14  0.12509000000E+03  0.12509000000E+03 0.  0.
        -11    1    3    3    0    0 -0.24915178430E+01  0.36563156497E+02  0.50925290672E+01  0.37000080091E+02  0.51100000000E-03 0. -1.
         23    2    1    0    0    0 -0.15892831950E+02 -0.18255488125E+02  0.18043906425E+02  0.94900142214E+02  0.89970047677E+02 0.  0.
         11    1    3    3    0    0 -0.13401314107E+02 -0.54818644623E+02  0.12951377358E+02  0.57900062122E+02  0.51100000000E-03 0.  1.
         22    1    1    0    0    0  0.15892831950E+02  0.18255488125E+02 -0.18043906425E+02  0.30189857786E+02  0.00000000000E+00 0.  1.
</event>
<event>
 5    1  0.1047411E-009  0.9118800E+02  0.7815553E-02  0.1125453E+00
         25   -1    0    0    0    0  0.00000000000E+00  0.00000000000E+00  0.99999998245E-14  0.12509000000E+03  0.12509000000E+03 0.  0.
        -11    1    3    3    0    0 -0.20636168729E+02 -0.22243448260E+02  0.20862408481E+02  0.36822038757E+02  0.51100000000E-03 0.  1.
         23    2    1    0    0    0 -0.89178287495E+01  0.29627573987E+02 -0.53777779104E+00  0.94144725483E+02  0.88913549707E+02 0.  0.
         11    1    3    3    0    0  0.11718339980E+02  0.51871022247E+02 -0.21400186272E+02  0.57322686727E+02  0.51100000000E-03 0. -1.
         22    1    1    0    0    0  0.89178287495E+01 -0.29627573987E+02  0.53777779104E+00  0.30945274517E+02  0.00000000000E+00 0. -1.
</event>
<event>
 5    1  0.1047411E-009  0.9118800E+02  0.7815553E-02  0.1125453E+00
         25   -1    0    0    0    0  0.00000000000E+00  0.00000000000E+00  0.99999998245E-14  0.12509000000E+03  0.12509000000E+03 0.  0.
        -11    1    3    3    0    0  0.45386852404E+02  0.25210379390E+02  0.26741608689E+02  0.58400712630E+02  0.51100000000E-03 0.  1.
         23    2    1    0    0    0  0.26690329899E+02 -0.27247860001E+01  0.70826028846E+01  0.97341821096E+02  0.93303101245E+02 0.  0.
         11    1    3    3    0    0 -0.18696522505E+02 -0.27935165390E+02 -0.19659005804E+02  0.38941108467E+02  0.51100000000E-03 0. -1.
         22    1    1    0    0    0 -0.26690329899E+02  0.27247860001E+01 -0.70826028846E+01  0.27748178904E+02  0.00000000000E+00 0.  1.
</event>
<event>
 5    1  0.1047411E-009  0.9118800E+02  0.7815553E-02  0.1125453E+00
         25   -1    0    0    0    0  0.00000000000E+00  0.00000000000E+00  0.99999998245E-14  0.12509000000E+03  0.12509000000E+03 0.  0.
        -11    1    3    3    0    0  0.18693653996E+02  0.29535430765E+02 -0.88443695113E+01  0.36055751865E+02  0.51100000000E-03 0.  1.
         23    2    1    0    0    0 -0.58336530777E+01 -0.19016122547E+02 -0.25320062964E+02  0.92891397337E+02  0.87132437621E+02 0.  0.
         11    1    3    3    0    0 -0.24527307074E+02 -0.48551553312E+02 -0.16475693453E+02  0.56835645473E+02  0.51100000000E-03 0. -1.
         22    1    1    0    0    0  0.58336530777E+01  0.19016122547E+02  0.25320062964E+02  0.32198602663E+02  0.00000000000E+00 0. -1.
</event>
<event>
 5    1  0.1047411E-009  0.9118800E+02  0.7815553E-02  0.1125453E+00
         25   -1    0    0    0    0  0.00000000000E+00  0.00000000000E+00  0.99999998245E-14  0.12509000000E+03  0.12509000000E+03 0.  0.
        -11    1    3    3    0    0  0.36169152558E+02  0.98357758625E+00  0.17381163134E+02  0.40140750538E+02  0.51100000000E-03 0.  1.
         23    2    1    0    0    0 -0.20239023438E+02  0.11589158688E+02  0.14537984296E+02  0.97607648278E+02  0.93658813499E+02 0.  0.
         11    1    3    3    0    0 -0.56408175995E+02  0.10605581102E+02 -0.28431788381E+01  0.57466897740E+02  0.51100000000E-03 0. -1.
         22    1    1    0    0    0  0.20239023438E+02 -0.11589158688E+02 -0.14537984296E+02  0.27482351722E+02  0.00000000000E+00 0. -1.
</event>
<event>
 5    1  0.1047411E-009  0.9118800E+02  0.7815553E-02  0.1125453E+00
         25   -1    0    0    0    0  0.00000000000E+00  0.00000000000E+00  0.99999998245E-14  0.12509000000E+03  0.12509000000E+03 0.  0.
        -11    1    3    3    0    0  0.19422336980E+02  0.45532781081E+01 -0.18487361092E+02  0.27198199126E+02  0.51100000000E-03 0.  1.
         23    2    1    0    0    0 -0.32590179868E+02 -0.19575572515E+02 -0.13206889331E+01  0.87049665060E+02  0.78298001920E+02 0.  0.
         11    1    3    3    0    0 -0.52012516848E+02 -0.24128850623E+02  0.17166672159E+02  0.59851465934E+02  0.51100000000E-03 0. -1.
         22    1    1    0    0    0  0.32590179868E+02  0.19575572515E+02  0.13206889331E+01  0.38040334940E+02  0.00000000000E+00 0. -1.
</event>
<event>
 5    1  0.1047411E-009  0.9118800E+02  0.7815553E-02  0.1125453E+00
         25   -1    0    0    0    0  0.00000000000E+00  0.00000000000E+00  0.99999998245E-14  0.12509000000E+03  0.12509000000E+03 0.  0.
        -11    1    3    3    0    0 -0.25046260668E+02  0.82188052218E+01 -0.27099134750E+02  0.37805119192E+02  0.51100000000E-03 0.  1.
         23    2    1    0    0    0 -0.77735066341E+01 -0.15871802035E+02  0.23040548537E+02  0.96051949409E+02  0.91557460663E+02 0.  0.
         11    1    3    3    0    0  0.17272754034E+02 -0.24090607257E+02  0.50139683287E+02  0.58246830217E+02  0.51100000000E-03 0. -1.
         22    1    1    0    0    0  0.77735066341E+01  0.15871802035E+02 -0.23040548537E+02  0.29038050591E+02  0.00000000000E+00 0. -1.
</event>
<event>
 5    1  0.1047411E-009  0.9118800E+02  0.7815553E-02  0.1125453E+00
         25   -1    0    0    0    0  0.00000000000E+00  0.00000000000E+00  0.99999998245E-14  0.12509000000E+03  0.12509000000E+03 0.  0.
        -11    1    3    3    0    0  0.27498831172E+02  0.36289950978E+02  0.17854120385E+02  0.48907216981E+02  0.51100000000E-03 0.  1.
         23    2    1    0    0    0  0.25754880660E+02 -0.93610577158E+00 -0.12003645266E+02  0.96659775388E+02  0.92384168051E+02 0.  0.
         11    1    3    3    0    0 -0.17439505121E+01 -0.37226056750E+02 -0.29857765651E+02  0.47752558407E+02  0.51100000000E-03 0. -1.
         22    1    1    0    0    0 -0.25754880660E+02  0.93610577158E+00  0.12003645266E+02  0.28430224612E+02  0.00000000000E+00 0. -1.
</event>
<event>
 5    1  0.1047411E-009  0.9118800E+02  0.7815553E-02  0.1125453E+00
         25   -1    0    0    0    0  0.00000000000E+00  0.00000000000E+00  0.99999998245E-14  0.12509000000E+03  0.12509000000E+03 0.  0.
        -11    1    3    3    0    0  0.39111556733E+01  0.43733472609E+02 -0.41834442734E+02  0.60646800116E+02  0.51100000000E-03 0.  1.
         23    2    1    0    0    0  0.58268086595E+01  0.25812738076E+02 -0.10853962562E+02  0.96488292893E+02  0.92151684824E+02 0.  0.
         11    1    3    3    0    0  0.19156529862E+01 -0.17920734533E+02  0.30980480172E+02  0.35841492777E+02  0.51100000000E-03 0. -1.
         22    1    1    0    0    0 -0.58268086595E+01 -0.25812738076E+02  0.10853962562E+02  0.28601707107E+02  0.00000000000E+00 0.  1.
</event>
<event>
 5    1  0.1047411E-009  0.9118800E+02  0.7815553E-02  0.1125453E+00
         25   -1    0    0    0    0  0.00000000000E+00  0.00000000000E+00  0.99999998245E-14  0.12509000000E+03  0.12509000000E+03 0.  0.
        -11    1    3    3    0    0  0.92879789412E+01 -0.24451060000E+02  0.22126561225E+02  0.34259387032E+02  0.51100000000E-03 0.  1.
         23    2    1    0    0    0 -0.67598570338E+01 -0.15114856796E+01 -0.30470007740E+02  0.93842574062E+02  0.88487440232E+02 0.  0.
         11    1    3    3    0    0 -0.16047835975E+02  0.22939574320E+02 -0.52596568965E+02  0.59583187030E+02  0.51100000000E-03 0. -1.
         22    1    1    0    0    0  0.67598570338E+01  0.15114856796E+01  0.30470007740E+02  0.31247425938E+02  0.00000000000E+00 0. -1.
</event>
<event>
 5    1  0.1047411E-009  0.9118800E+02  0.7815553E-02  0.1125453E+00
         25   -1    0    0    0    0  0.00000000000E+00  0.00000000000E+00  0.99999998245E-14  0.12509000000E+03  0.12509000000E+03 0.  0.
        -11    1    3    3    0    0  0.33950103688E+02 -0.15395126900E+01 -0.22594437020E+01  0.34060016528E+02  0.51100000000E-03 0.  1.
         23    2    1    0    0    0 -0.23185467506E+02 -0.15819978188E+02  0.11854640151E+02  0.94620833512E+02  0.89580868650E+02 0.  0.
         11    1    3    3    0    0 -0.57135571195E+02 -0.14280465498E+02  0.14114083853E+02  0.60560816985E+02  0.51100000000E-03 0. -1.
         22    1    1    0    0    0  0.23185467506E+02  0.15819978188E+02 -0.11854640151E+02  0.30469166488E+02  0.00000000000E+00 0. -1.
</event>
<event>
 5    1  0.1047411E-009  0.9118800E+02  0.7815553E-02  0.1125453E+00
         25   -1    0    0    0    0  0.00000000000E+00  0.00000000000E+00  0.99999998245E-14  0.12509000000E+03  0.12509000000E+03 0.  0.
        -11    1    3    3    0    0 -0.20557624721E+02  0.16865666956E+02 -0.44946930671E+02  0.52223493114E+02  0.51100000000E-03 0.  1.
         23    2    1    0    0    0 -0.35100870459E+01  0.26656653058E+02 -0.36556866419E+01  0.97955853466E+02  0.94122724780E+02 0.  0.
         11    1    3    3    0    0  0.17047537675E+02  0.97909861024E+01  0.41291244029E+02  0.45732360352E+02  0.51100000000E-03 0. -1.
         22    1    1    0    0    0  0.35100870459E+01 -0.26656653058E+02  0.36556866419E+01  0.27134146534E+02  0.00000000000E+00 0.  1.
</event>
<event>
 5    1  0.1047411E-009  0.9118800E+02  0.7815553E-02  0.1125453E+00
         25   -1    0    0    0    0  0.00000000000E+00  0.00000000000E+00  0.99999998245E-14  0.12509000000E+03  0.12509000000E+03 0.  0.
        -11    1    3    3    0    0 -0.15910472772E+02  0.10647578241E+02 -0.31484570688E+02  0.36848232765E+02  0.51100000000E-03 0.  1.
         23    2    1    0    0    0  0.17481817266E+02  0.10500545499E+02  0.18894545021E+02  0.97289294573E+02  0.93232653166E+02 0.  0.
         11    1    3    3    0    0  0.33392290038E+02 -0.14703274214E+00  0.50379115709E+02  0.60441061808E+02  0.51100000000E-03 0. -1.
         22    1    1    0    0    0 -0.17481817266E+02 -0.10500545499E+02 -0.18894545021E+02  0.27800705427E+02  0.00000000000E+00 0. -1.
</event>
<event>
 5    1  0.1047411E-009  0.9118800E+02  0.7815553E-02  0.1125453E+00
         25   -1    0    0    0    0  0.00000000000E+00  0.00000000000E+00  0.99999998245E-14  0.12509000000E+03  0.12509000000E+03 0.  0.
        -11    1    3    3    0    0  0.17427674291E+02 -0.49443597434E+02 -0.17876306027E+02  0.55389127776E+02  0.51100000000E-03 0.  1.
         23    2    1    0    0    0  0.14319308683E+02 -0.23787034705E+02  0.11957277424E+02  0.94860178555E+02  0.89914466973E+02 0.  0.
         11    1    3    3    0    0 -0.31083656085E+01  0.25656562729E+02  0.29833583451E+02  0.39471050779E+02  0.51100000000E-03 0. -1.
         22    1    1    0    0    0 -0.14319308683E+02  0.23787034705E+02 -0.11957277424E+02  0.30229821445E+02  0.00000000000E+00 0.  1.
</event>
<event>
 5    1  0.1047411E-009  0.9118800E+02  0.7815553E-02  0.1125453E+00
         25   -1    0    0    0    0  0.00000000000E+00  0.00000000000E+00  0.99999998245E-14  0.12509000000E+03  0.12509000000E+03 0.  0.
        -11    1    3    3    0    0 -0.19013251278E+01  0.12039485418E+02 -0.32728040026E+02  0.34924044018E+02  0.51100000000E-03 0. -1.
         23    2    1    0    0    0  0.12362351195E+01  0.13190286381E+02  0.27142033785E+02  0.94887319158E+02  0.89952217354E+02 0.  0.
         11    1    3    3    0    0  0.31375602473E+01  0.11508009637E+01  0.59870073810E+02  0.59963275140E+02  0.51100000000E-03 0.  1.
         22    1    1    0    0    0 -0.12362351195E+01 -0.13190286381E+02 -0.27142033785E+02  0.30202680842E+02  0.00000000000E+00 0.  1.
</event>
<event>
 5    1  0.1047411E-009  0.9118800E+02  0.7815553E-02  0.1125453E+00
         25   -1    0    0    0    0  0.00000000000E+00  0.00000000000E+00  0.99999998245E-14  0.12509000000E+03  0.12509000000E+03 0.  0.
        -11    1    3    3    0    0  0.41219320418E+02  0.30445745784E+02  0.17630726509E+02  0.54192419484E+02  0.51100000000E-03 0. -1.
         23    2    1    0    0    0  0.12723438623E+01  0.19410484178E+02  0.21833446799E+02  0.95848160899E+02  0.91278610822E+02 0.  0.
         11    1    3    3    0    0 -0.39946976556E+02 -0.11035261607E+02  0.42027202901E+01  0.41655741414E+02  0.51100000000E-03 0.  1.
         22    1    1    0    0    0 -0.12723438623E+01 -0.19410484178E+02 -0.21833446799E+02  0.29241839101E+02  0.00000000000E+00 0. -1.
</event>
<event>
 5    1  0.1047411E-009  0.9118800E+02  0.7815553E-02  0.1125453E+00
         25   -1    0    0    0    0  0.00000000000E+00  0.00000000000E+00  0.99999998245E-14  0.12509000000E+03  0.12509000000E+03 0.  0.
        -11    1    3    3    0    0  0.21866459574E+02  0.11640647618E+02  0.51916727897E+02  0.57523850419E+02  0.51100000000E-03 0.  1.
         23    2    1    0    0    0  0.27661950321E+02  0.39849362312E+01  0.20350258203E+02  0.90518389952E+02  0.83656336869E+02 0.  0.
         11    1    3    3    0    0  0.57954907473E+01 -0.76557113863E+01 -0.31566469694E+02  0.32994539533E+02  0.51100000000E-03 0. -1.
         22    1    1    0    0    0 -0.27661950321E+02 -0.39849362312E+01 -0.20350258203E+02  0.34571610048E+02  0.00000000000E+00 0.  1.
</event>
<event>
 5    1  0.1047411E-009  0.9118800E+02  0.7815553E-02  0.1125453E+00
         25   -1    0    0    0    0  0.00000000000E+00  0.00000000000E+00  0.99999998245E-14  0.12509000000E+03  0.12509000000E+03 0.  0.
        -11    1    3    3    0    0  0.12987393396E+02 -0.15366759693E+02 -0.47510191268E+02  0.51594844367E+02  0.51100000000E-03 0. -1.
         23    2    1    0    0    0 -0.19210856931E+02  0.11887702380E+01 -0.21851350369E+02  0.95970389569E+02  0.91445961979E+02 0.  0.
         11    1    3    3    0    0 -0.32198250327E+02  0.16555529931E+02  0.25658840899E+02  0.44375545202E+02  0.51100000000E-03 0.  1.
         22    1    1    0    0    0  0.19210856931E+02 -0.11887702380E+01  0.21851350369E+02  0.29119610431E+02  0.00000000000E+00 0.  1.
</event>
<event>
 5    1  0.1047411E-009  0.9118800E+02  0.7815553E-02  0.1125453E+00
         25   -1    0    0    0    0  0.00000000000E+00  0.00000000000E+00  0.99999998245E-14  0.12509000000E+03  0.12509000000E+03 0.  0.
        -11    1    3    3    0    0  0.18612491781E+02 -0.41737926303E+02 -0.37606967410E+02  0.59184147712E+02  0.51100000000E-03 0. -1.
         23    2    1    0    0    0 -0.40549884797E+01 -0.16124695325E+02 -0.23774288705E+02  0.96078527539E+02  0.91593765725E+02 0.  0.
         11    1    3    3    0    0 -0.22667480261E+02  0.25613230977E+02  0.13832678704E+02  0.36894379828E+02  0.51100000000E-03 0.  1.
         22    1    1    0    0    0  0.40549884797E+01  0.16124695325E+02  0.23774288705E+02  0.29011472461E+02  0.00000000000E+00 0. -1.
</event>
<event>
 5    1  0.1047411E-009  0.9118800E+02  0.7815553E-02  0.1125453E+00
         25   -1    0    0    0    0  0.00000000000E+00  0.00000000000E+00  0.99999998245E-14  0.12509000000E+03  0.12509000000E+03 0.  0.
        -11    1    3    3    0    0  0.11469965687E+02  0.22461246211E+02 -0.26259971066E+02  0.36409528627E+02  0.51100000000E-03 0. -1.
         23    2    1    0    0    0  0.30551970425E+02 -0.11642941925E+02  0.11186491670E+02  0.90533978970E+02  0.83679643634E+02 0.  0.
         11    1    3    3    0    0  0.19082004738E+02 -0.34104188136E+02  0.37446462735E+02  0.54124450343E+02  0.51100000000E-03 0.  1.
         22    1    1    0    0    0 -0.30551970425E+02  0.11642941925E+02 -0.11186491670E+02  0.34556021030E+02  0.00000000000E+00 0.  1.
</event>
<event>
 5    1  0.1047411E-009  0.9118800E+02  0.7815553E-02  0.1125453E+00
         25   -1    0    0    0    0  0.00000000000E+00  0.00000000000E+00  0.99999998245E-14  0.12509000000E+03  0.12509000000E+03 0.  0.
        -11    1    3    3    0    0 -0.15117619744E+02  0.44562400501E+02 -0.14451313976E+02  0.49225912293E+02  0.51100000000E-03 0. -1.
         23    2    1    0    0    0  0.19444205216E+02  0.21079886827E+02  0.60680261241E+01  0.95776868367E+02  0.91180857794E+02 0.  0.
         11    1    3    3    0    0  0.34561824960E+02 -0.23482513675E+02  0.20519340100E+02  0.46550956074E+02  0.51100000000E-03 0.  1.
         22    1    1    0    0    0 -0.19444205216E+02 -0.21079886827E+02 -0.60680261241E+01  0.29313131633E+02  0.00000000000E+00 0. -1.
</event>
<event>
 5    1  0.1047411E-009  0.9118800E+02  0.7815553E-02  0.1125453E+00
         25   -1    0    0    0    0  0.00000000000E+00  0.00000000000E+00  0.99999998245E-14  0.12509000000E+03  0.12509000000E+03 0.  0.
        -11    1    3    3    0    0 -0.49642676610E+02 -0.25576801502E+02 -0.47757437545E+01  0.56047978062E+02  0.51100000000E-03 0.  1.
         23    2    1    0    0    0 -0.27461993098E+02  0.69113259350E+01 -0.83993044588E+01  0.95552298558E+02  0.90872250733E+02 0.  0.
         11    1    3    3    0    0  0.22180683512E+02  0.32488127437E+02 -0.36235607043E+01  0.39504320496E+02  0.51100000000E-03 0. -1.
         22    1    1    0    0    0  0.27461993098E+02 -0.69113259350E+01  0.83993044588E+01  0.29537701442E+02  0.00000000000E+00 0.  1.
</event>
<event>
 5    1  0.1047411E-009  0.9118800E+02  0.7815553E-02  0.1125453E+00
         25   -1    0    0    0    0  0.00000000000E+00  0.00000000000E+00  0.99999998245E-14  0.12509000000E+03  0.12509000000E+03 0.  0.
        -11    1    3    3    0    0 -0.58473649404E+02  0.11544564525E+02 -0.12856618466E+02  0.60973250556E+02  0.51100000000E-03 0.  1.
         23    2    1    0    0    0 -0.25899787508E+02  0.12385121240E+02  0.95769872092E+00  0.96365317096E+02  0.91984601597E+02 0.  0.
         11    1    3    3    0    0  0.32573861896E+02  0.84055671469E+00  0.13814317187E+02  0.35392066540E+02  0.51100000000E-03 0. -1.
         22    1    1    0    0    0  0.25899787508E+02 -0.12385121240E+02 -0.95769872092E+00  0.28724682904E+02  0.00000000000E+00 0.  1.
</event>
<event>
 5    1  0.1047411E-009  0.9118800E+02  0.7815553E-02  0.1125453E+00
         25   -1    0    0    0    0  0.00000000000E+00  0.00000000000E+00  0.99999998245E-14  0.12509000000E+03  0.12509000000E+03 0.  0.
        -11    1    3    3    0    0 -0.51321616000E+02 -0.59407238435E+01 -0.23828207479E+02  0.56894498333E+02  0.51100000000E-03 0.  1.
         23    2    1    0    0    0 -0.20601726322E+02 -0.20085494919E+02 -0.41583237405E+01  0.96018538222E+02  0.91511801383E+02 0.  0.
         11    1    3    3    0    0  0.30719889679E+02 -0.14144771076E+02  0.19669883739E+02  0.39124039888E+02  0.51100000000E-03 0. -1.
         22    1    1    0    0    0  0.20601726322E+02  0.20085494919E+02  0.41583237405E+01  0.29071461778E+02  0.00000000000E+00 0.  1.
</event>
<event>
 5    1  0.1047411E-009  0.9118800E+02  0.7815553E-02  0.1125453E+00
         25   -1    0    0    0    0  0.00000000000E+00  0.00000000000E+00  0.99999998245E-14  0.12509000000E+03  0.12509000000E+03 0.  0.
        -11    1    3    3    0    0 -0.10832699376E+02  0.31780686885E+02 -0.19464327670E+02  0.38810043630E+02  0.51100000000E-03 0.  1.
         23    2    1    0    0    0 -0.22370250306E+02 -0.17673436669E+02  0.65062825975E+01  0.95847733062E+02  0.91278024505E+02 0.  0.
         11    1    3    3    0    0 -0.11537550930E+02 -0.49454123553E+02  0.25970610267E+02  0.57037689433E+02  0.51100000000E-03 0. -1.
         22    1    1    0    0    0  0.22370250306E+02  0.17673436669E+02 -0.65062825975E+01  0.29242266938E+02  0.00000000000E+00 0. -1.
</event>
<event>
 5    1  0.1047411E-009  0.9118800E+02  0.7815553E-02  0.1125453E+00
         25   -1    0    0    0    0  0.00000000000E+00  0.00000000000E+00  0.99999998245E-14  0.12509000000E+03  0.12509000000E+03 0.  0.
        -11    1    3    3    0    0  0.27895211465E+02  0.50588486861E+02 -0.23266029486E+02  0.62278776111E+02  0.51100000000E-03 0.  1.
         23    2    1    0    0    0  0.10209793105E+02  0.18571245296E+02 -0.43582373381E+01  0.10345379747E+03  0.10116601678E+03 0.  0.
         11    1    3    3    0    0 -0.17685418361E+02 -0.32017241564E+02  0.18907792148E+02  0.41175021362E+02  0.51100000000E-03 0. -1.
         22    1    1    0    0    0 -0.10209793105E+02 -0.18571245296E+02  0.43582373381E+01  0.21636202527E+02  0.00000000000E+00 0.  1.
</event>
<event>
 5    1  0.1047411E-009  0.9118800E+02  0.7815553E-02  0.1125453E+00
         25   -1    0    0    0    0  0.00000000000E+00  0.00000000000E+00  0.99999998245E-14  0.12509000000E+03  0.12509000000E+03 0.  0.
        -11    1    3    3    0    0  0.15094455902E+02 -0.10652540489E+02 -0.38916629209E+02  0.43079267021E+02  0.51100000000E-03 0. -1.
         23    2    1    0    0    0 -0.23850316134E+02 -0.15399970138E+02 -0.25315589394E+01  0.96587272927E+02  0.92285946064E+02 0.  0.
         11    1    3    3    0    0 -0.38944772036E+02 -0.47474296489E+01  0.36385070269E+02  0.53508005905E+02  0.51100000000E-03 0.  1.
         22    1    1    0    0    0  0.23850316134E+02  0.15399970138E+02  0.25315589394E+01  0.28502727073E+02  0.00000000000E+00 0.  1.
</event>
<event>
 5    1  0.1047411E-009  0.9118800E+02  0.7815553E-02  0.1125453E+00
         25   -1    0    0    0    0  0.00000000000E+00  0.00000000000E+00  0.99999998245E-14  0.12509000000E+03  0.12509000000E+03 0.  0.
        -11    1    3    3    0    0  0.10386469877E+02  0.68319676553E+01  0.57510976421E+02  0.58839331639E+02  0.51100000000E-03 0.  1.
         23    2    1    0    0    0 -0.48604885148E+01 -0.86543744677E+01  0.27195028688E+02  0.96140179079E+02  0.91677924834E+02 0.  0.
         11    1    3    3    0    0 -0.15246958392E+02 -0.15486342123E+02 -0.30315947733E+02  0.37300847440E+02  0.51100000000E-03 0. -1.
         22    1    1    0    0    0  0.48604885148E+01  0.86543744677E+01 -0.27195028688E+02  0.28949820921E+02  0.00000000000E+00 0.  1.
</event>
<event>
 5    1  0.1047411E-009  0.9118800E+02  0.7815553E-02  0.1125453E+00
         25   -1    0    0    0    0  0.00000000000E+00  0.00000000000E+00  0.99999998245E-14  0.12509000000E+03  0.12509000000E+03 0.  0.
        -11    1    3    3    0    0 -0.85143835109E+01 -0.13893057958E+02  0.10819007466E+02  0.19559210332E+02  0.51100000000E-03 0.  1.
         23    2    1    0    0    0 -0.16410981217E+02  0.43544378397E+02  0.97422270280E+01  0.77546922881E+02  0.61263211363E+02 0.  0.
         11    1    3    3    0    0 -0.78965977058E+01  0.57437436355E+02 -0.10767804384E+01  0.57987712549E+02  0.51100000000E-03 0. -1.
         22    1    1    0    0    0  0.16410981217E+02 -0.43544378397E+02 -0.97422270280E+01  0.47543077119E+02  0.00000000000E+00 0. -1.
</event>
<event>
 5    1  0.1047411E-009  0.9118800E+02  0.7815553E-02  0.1125453E+00
         25   -1    0    0    0    0  0.00000000000E+00  0.00000000000E+00  0.99999998245E-14  0.12509000000E+03  0.12509000000E+03 0.  0.
        -11    1    3    3    0    0 -0.11324930486E+02 -0.22846676472E+02 -0.29195769369E+02  0.38763612133E+02  0.51100000000E-03 0. -1.
         23    2    1    0    0    0  0.60296563849E+01  0.27387764368E+02 -0.86772394077E+01  0.95734576703E+02  0.91122819861E+02 0.  0.
         11    1    3    3    0    0  0.17354586871E+02  0.50234440840E+02  0.20518529961E+02  0.56970964570E+02  0.51100000000E-03 0.  1.
         22    1    1    0    0    0 -0.60296563849E+01 -0.27387764368E+02  0.86772394077E+01  0.29355423297E+02  0.00000000000E+00 0.  1.
</event>
<event>
 5    1  0.1047411E-009  0.9118800E+02  0.7815553E-02  0.1125453E+00
         25   -1    0    0    0    0  0.00000000000E+00  0.00000000000E+00  0.99999998245E-14  0.12509000000E+03  0.12509000000E+03 0.  0.
        -11    1    3    3    0    0  0.16404434364E+02 -0.57175268784E+02  0.15886876852E+02  0.61567115279E+02  0.51100000000E-03 0. -1.
         23    2    1    0    0    0  0.11953793828E+02 -0.29144301993E+02  0.10997536303E+01  0.93570276276E+02  0.88101666379E+02 0.  0.
         11    1    3    3    0    0 -0.44506405361E+01  0.28030966791E+02 -0.14787123222E+02  0.32003160998E+02  0.51100000000E-03 0.  1.
         22    1    1    0    0    0 -0.11953793828E+02  0.29144301993E+02 -0.10997536303E+01  0.31519723724E+02  0.00000000000E+00 0. -1.
</event>
<event>
 5    1  0.1047411E-009  0.9118800E+02  0.7815553E-02  0.1125453E+00
         25   -1    0    0    0    0  0.00000000000E+00  0.00000000000E+00  0.99999998245E-14  0.12509000000E+03  0.12509000000E+03 0.  0.
        -11    1    3    3    0    0  0.21399642468E+02 -0.12199179542E+02  0.40970383440E+02  0.47805198449E+02  0.51100000000E-03 0.  1.
         23    2    1    0    0    0  0.27944420560E+02 -0.29988005919E+01 -0.62011327772E+01  0.96309147109E+02  0.91908184204E+02 0.  0.
         11    1    3    3    0    0  0.65447780921E+01  0.92003789502E+01 -0.47171516217E+02  0.48503948660E+02  0.51100000000E-03 0. -1.
         22    1    1    0    0    0 -0.27944420560E+02  0.29988005919E+01  0.62011327772E+01  0.28780852891E+02  0.00000000000E+00 0. -1.
</event>
<event>
 5    1  0.1047411E-009  0.9118800E+02  0.7815553E-02  0.1125453E+00
         25   -1    0    0    0    0  0.00000000000E+00  0.00000000000E+00  0.99999998245E-14  0.12509000000E+03  0.12509000000E+03 0.  0.
        -11    1    3    3    0    0 -0.67559921490E+01 -0.34104059777E+02  0.37213010801E+02  0.50926795465E+02  0.51100000000E-03 0. -1.
         23    2    1    0    0    0 -0.62866238247E+00 -0.26586338013E+02 -0.81188617954E+01  0.97284523882E+02  0.93226252122E+02 0.  0.
         11    1    3    3    0    0  0.61273297665E+01  0.75177217646E+01 -0.45331872596E+02  0.46357728417E+02  0.51100000000E-03 0.  1.
         22    1    1    0    0    0  0.62866238247E+00  0.26586338013E+02  0.81188617954E+01  0.27805476118E+02  0.00000000000E+00 0. -1.
</event>
<event>
 5    1  0.1047411E-009  0.9118800E+02  0.7815553E-02  0.1125453E+00
         25   -1    0    0    0    0  0.00000000000E+00  0.00000000000E+00  0.99999998245E-14  0.12509000000E+03  0.12509000000E+03 0.  0.
        -11    1    3    3    0    0  0.13630182608E+02 -0.54432234598E+02 -0.23748150791E+02  0.60931311388E+02  0.51100000000E-03 0. -1.
         23    2    1    0    0    0  0.15948934353E+02 -0.22964693158E+02 -0.94087870063E+01  0.95589645566E+02  0.90923646141E+02 0.  0.
         11    1    3    3    0    0  0.23187517440E+01  0.31467541440E+02  0.14339363785E+02  0.34658334177E+02  0.51100000000E-03 0.  1.
         22    1    1    0    0    0 -0.15948934353E+02  0.22964693158E+02  0.94087870063E+01  0.29500354434E+02  0.00000000000E+00 0. -1.
</event>
<event>
 5    1  0.1047411E-009  0.9118800E+02  0.7815553E-02  0.1125453E+00
         25   -1    0    0    0    0  0.00000000000E+00  0.00000000000E+00  0.99999998245E-14  0.12509000000E+03  0.12509000000E+03 0.  0.
        -11    1    3    3    0    0 -0.52503873219E+01  0.31718396791E+02 -0.90490218991E+01  0.33399222440E+02  0.51100000000E-03 0. -1.
         23    2    1    0    0    0  0.19100802096E+01 -0.19084928384E+02  0.23954254320E+02  0.94403045152E+02  0.89276232762E+02 0.  0.
         11    1    3    3    0    0  0.71604675315E+01 -0.50803325175E+02  0.33003276219E+02  0.61003822712E+02  0.51100000000E-03 0.  1.
         22    1    1    0    0    0 -0.19100802096E+01  0.19084928384E+02 -0.23954254320E+02  0.30686954848E+02  0.00000000000E+00 0.  1.
</event>
<event>
 5    1  0.1047411E-009  0.9118800E+02  0.7815553E-02  0.1125453E+00
         25   -1    0    0    0    0  0.00000000000E+00  0.00000000000E+00  0.99999998245E-14  0.12509000000E+03  0.12509000000E+03 0.  0.
        -11    1    3    3    0    0 -0.32172993041E+02 -0.29568795727E+02  0.44696417919E+02  0.62507479049E+02  0.51100000000E-03 0.  1.
         23    2    1    0    0    0 -0.13178033463E+02 -0.11438387212E+02  0.15840219244E+02  0.10152286582E+03  0.98749594783E+02 0.  0.
         11    1    3    3    0    0  0.18994959578E+02  0.18130408516E+02 -0.28856198675E+02  0.39015386767E+02  0.51100000000E-03 0. -1.
         22    1    1    0    0    0  0.13178033463E+02  0.11438387212E+02 -0.15840219244E+02  0.23567134184E+02  0.00000000000E+00 0.  1.
</event>
<event>
 5    1  0.1047411E-009  0.9118800E+02  0.7815553E-02  0.1125453E+00
         25   -1    0    0    0    0  0.00000000000E+00  0.00000000000E+00  0.99999998245E-14  0.12509000000E+03  0.12509000000E+03 0.  0.
        -11    1    3    3    0    0 -0.25438695086E+02 -0.22005030390E+02 -0.13732553191E+02  0.36330862742E+02  0.51100000000E-03 0. -1.
         23    2    1    0    0    0 -0.93583805968E+01  0.30955327033E+02 -0.46772471649E+01  0.92414501532E+02  0.86445080214E+02 0.  0.
         11    1    3    3    0    0  0.16080314489E+02  0.52960357423E+02  0.90553060263E+01  0.56083638790E+02  0.51100000000E-03 0.  1.
         22    1    1    0    0    0  0.93583805968E+01 -0.30955327033E+02  0.46772471649E+01  0.32675498468E+02  0.00000000000E+00 0.  1.
</event>
<event>
 5    1  0.1047411E-009  0.9118800E+02  0.7815553E-02  0.1125453E+00
         25   -1    0    0    0    0  0.00000000000E+00  0.00000000000E+00  0.99999998245E-14  0.12509000000E+03  0.12509000000E+03 0.  0.
        -11    1    3    3    0    0 -0.44556043274E+02 -0.15874573994E+02 -0.13844806610E+02  0.49284092384E+02  0.51100000000E-03 0.  1.
         23    2    1    0    0    0 -0.68210006795E+01 -0.21717139837E+02  0.15592615634E+02  0.97498518067E+02  0.93512946429E+02 0.  0.
         11    1    3    3    0    0  0.37735042595E+02 -0.58425658429E+01  0.29437422244E+02  0.48214425683E+02  0.51100000000E-03 0. -1.
         22    1    1    0    0    0  0.68210006795E+01  0.21717139837E+02 -0.15592615634E+02  0.27591481933E+02  0.00000000000E+00 0.  1.
</event>
<event>
 5    1  0.1047411E-009  0.9118800E+02  0.7815553E-02  0.1125453E+00
         25   -1    0    0    0    0  0.00000000000E+00  0.00000000000E+00  0.99999998245E-14  0.12509000000E+03  0.12509000000E+03 0.  0.
        -11    1    3    3    0    0  0.75724472673E+01 -0.30353228528E+02 -0.35141572319E+02  0.47048810240E+02  0.51100000000E-03 0. -1.
         23    2    1    0    0    0 -0.69961947637E+00 -0.25404661870E+02  0.13276320254E+02  0.96416894280E+02  0.92054714767E+02 0.  0.
         11    1    3    3    0    0 -0.82720667437E+01  0.49485666577E+01  0.48417892574E+02  0.49368084039E+02  0.51100000000E-03 0.  1.
         22    1    1    0    0    0  0.69961947637E+00  0.25404661870E+02 -0.13276320254E+02  0.28673105720E+02  0.00000000000E+00 0. -1.
</event>
<event>
 5    1  0.1047411E-009  0.9118800E+02  0.7815553E-02  0.1125453E+00
         25   -1    0    0    0    0  0.00000000000E+00  0.00000000000E+00  0.99999998245E-14  0.12509000000E+03  0.12509000000E+03 0.  0.
        -11    1    3    3    0    0 -0.36123107969E+02 -0.87233727731E+01  0.10407036778E+02  0.38591224089E+02  0.51100000000E-03 0. -1.
         23    2    1    0    0    0  0.82105236937E+01 -0.16184228827E+02 -0.23855624185E+02  0.95116131926E+02  0.90269849813E+02 0.  0.
         11    1    3    3    0    0  0.44333631663E+02 -0.74608560541E+01 -0.34262660963E+02  0.56524907837E+02  0.51100000000E-03 0.  1.
         22    1    1    0    0    0 -0.82105236937E+01  0.16184228827E+02  0.23855624185E+02  0.29973868074E+02  0.00000000000E+00 0.  1.
</event>
<event>
 5    1  0.1047411E-009  0.9118800E+02  0.7815553E-02  0.1125453E+00
         25   -1    0    0    0    0  0.00000000000E+00  0.00000000000E+00  0.99999998245E-14  0.12509000000E+03  0.12509000000E+03 0.  0.
        -11    1    3    3    0    0  0.28326608631E+02  0.43707560564E+01 -0.29593474219E+02  0.41197985165E+02  0.51100000000E-03 0. -1.
         23    2    1    0    0    0 -0.22598341031E+02 -0.11165113106E+02 -0.81041787765E+01  0.98613170853E+02  0.94992289076E+02 0.  0.
         11    1    3    3    0    0 -0.50924949662E+02 -0.15535869163E+02  0.21489295443E+02  0.57415185688E+02  0.51100000000E-03 0.  1.
         22    1    1    0    0    0  0.22598341031E+02  0.11165113106E+02  0.81041787765E+01  0.26476829147E+02  0.00000000000E+00 0. -1.
</event>
<event>
 5    1  0.1047411E-009  0.9118800E+02  0.7815553E-02  0.1125453E+00
         25   -1    0    0    0    0  0.00000000000E+00  0.00000000000E+00  0.99999998245E-14  0.12509000000E+03  0.12509000000E+03 0.  0.
        -11    1    3    3    0    0  0.28585276940E+02 -0.33555786093E+01  0.37301585235E+02  0.47114607362E+02  0.51100000000E-03 0.  1.
         23    2    1    0    0    0 -0.98086294244E+01  0.19436356236E+02  0.21539193692E+02  0.94464552740E+02  0.89362372980E+02 0.  0.
         11    1    3    3    0    0 -0.38393906365E+02  0.22791934846E+02 -0.15762391543E+02  0.47349945379E+02  0.51100000000E-03 0. -1.
         22    1    1    0    0    0  0.98086294244E+01 -0.19436356236E+02 -0.21539193692E+02  0.30625447260E+02  0.00000000000E+00 0.  1.
</event>
<event>
 5    1  0.1047411E-009  0.9118800E+02  0.7815553E-02  0.1125453E+00
         25   -1    0    0    0    0  0.00000000000E+00  0.00000000000E+00  0.99999998245E-14  0.12509000000E+03  0.12509000000E+03 0.  0.
        -11    1    3    3    0    0 -0.46885885918E+02 -0.15440895480E+02 -0.56950198258E+01  0.49690449813E+02  0.51100000000E-03 0. -1.
         23    2    1    0    0    0 -0.68587579031E+01 -0.92899085568E+01 -0.27197949070E+02  0.95542184606E+02  0.90858327327E+02 0.  0.
         11    1    3    3    0    0  0.40027128014E+02  0.61509869237E+01 -0.21502929244E+02  0.45851734793E+02  0.51100000000E-03 0.  1.
         22    1    1    0    0    0  0.68587579031E+01  0.92899085568E+01  0.27197949070E+02  0.29547815394E+02  0.00000000000E+00 0. -1.
</event>
<event>
 5    1  0.1047411E-009  0.9118800E+02  0.7815553E-02  0.1125453E+00
         25   -1    0    0    0    0  0.00000000000E+00  0.00000000000E+00  0.99999998245E-14  0.12509000000E+03  0.12509000000E+03 0.  0.
        -11    1    3    3    0    0  0.91566941952E+01  0.38041300415E+02 -0.25638799474E+02  0.46779628308E+02  0.51100000000E-03 0.  1.
         23    2    1    0    0    0  0.16652744341E+02  0.17316509289E+02  0.17598287659E+02  0.95309551438E+02  0.90537481071E+02 0.  0.
         11    1    3    3    0    0  0.74960501461E+01 -0.20724791126E+02  0.43237087133E+02  0.48529923130E+02  0.51100000000E-03 0. -1.
         22    1    1    0    0    0 -0.16652744341E+02 -0.17316509289E+02 -0.17598287659E+02  0.29780448562E+02  0.00000000000E+00 0.  1.
</event>
<event>
 5    1  0.1047411E-009  0.9118800E+02  0.7815553E-02  0.1125453E+00
         25   -1    0    0    0    0  0.00000000000E+00  0.00000000000E+00  0.99999998245E-14  0.12509000000E+03  0.12509000000E+03 0.  0.
        -11    1    3    3    0    0 -0.26281403334E+02  0.14718473965E+01 -0.50040616465E+02  0.56541505041E+02  0.51100000000E-03 0. -1.
         23    2    1    0    0    0 -0.13764877900E+02  0.18898246348E+02 -0.16071747643E+02  0.96718946954E+02  0.92464252817E+02 0.  0.
         11    1    3    3    0    0  0.12516525433E+02  0.17426398952E+02  0.33968868822E+02  0.40177441913E+02  0.51100000000E-03 0.  1.
         22    1    1    0    0    0  0.13764877900E+02 -0.18898246348E+02  0.16071747643E+02  0.28371053046E+02  0.00000000000E+00 0. -1.
</event>
<event>
 5    1  0.1047411E-009  0.9118800E+02  0.7815553E-02  0.1125453E+00
         25   -1    0    0    0    0  0.00000000000E+00  0.00000000000E+00  0.99999998245E-14  0.12509000000E+03  0.12509000000E+03 0.  0.
        -11    1    3    3    0    0 -0.22250831068E+02 -0.17057927075E+02  0.22520609653E+02  0.35961788314E+02  0.51100000000E-03 0.  1.
         23    2    1    0    0    0  0.30562612238E+02 -0.71406074615E+01  0.14840361676E+01  0.93669244040E+02  0.88242072585E+02 0.  0.
         11    1    3    3    0    0  0.52813443306E+02  0.99173196135E+01 -0.21036573485E+02  0.57707455727E+02  0.51100000000E-03 0. -1.
         22    1    1    0    0    0 -0.30562612238E+02  0.71406074615E+01 -0.14840361676E+01  0.31420755960E+02  0.00000000000E+00 0. -1.
</event>
<event>
 5    1  0.1047411E-009  0.9118800E+02  0.7815553E-02  0.1125453E+00
         25   -1    0    0    0    0  0.00000000000E+00  0.00000000000E+00  0.99999998245E-14  0.12509000000E+03  0.12509000000E+03 0.  0.
        -11    1    3    3    0    0 -0.45797230473E+02  0.21221908981E+02  0.27916789333E+01  0.50552440212E+02  0.51100000000E-03 0.  1.
         23    2    1    0    0    0 -0.25870209210E+02 -0.13467235750E+02 -0.12470516354E+02  0.93370164857E+02  0.87817081163E+02 0.  0.
         11    1    3    3    0    0  0.19927021263E+02 -0.34689144731E+02 -0.15262195287E+02  0.42817724646E+02  0.51100000000E-03 0. -1.
         22    1    1    0    0    0  0.25870209210E+02  0.13467235750E+02  0.12470516354E+02  0.31719835143E+02  0.00000000000E+00 0.  1.
</event>
<event>
 5    1  0.1047411E-009  0.9118800E+02  0.7815553E-02  0.1125453E+00
         25   -1    0    0    0    0  0.00000000000E+00  0.00000000000E+00  0.99999998245E-14  0.12509000000E+03  0.12509000000E+03 0.  0.
        -11    1    3    3    0    0 -0.35387434751E+02  0.65055097650E+00  0.49929309872E+02  0.61201550139E+02  0.51100000000E-03 0. -1.
         23    2    1    0    0    0 -0.22980463337E+02  0.44358338230E+01  0.18323196257E+02  0.95365972043E+02  0.90615400379E+02 0.  0.
         11    1    3    3    0    0  0.12406971414E+02  0.37852828465E+01 -0.31606113616E+02  0.34164421904E+02  0.51100000000E-03 0.  1.
         22    1    1    0    0    0  0.22980463337E+02 -0.44358338230E+01 -0.18323196257E+02  0.29724027957E+02  0.00000000000E+00 0. -1.
</event>
<event>
 5    1  0.1047411E-009  0.9118800E+02  0.7815553E-02  0.1125453E+00
         25   -1    0    0    0    0  0.00000000000E+00  0.00000000000E+00  0.99999998245E-14  0.12509000000E+03  0.12509000000E+03 0.  0.
        -11    1    3    3    0    0  0.16056432398E+02 -0.30217599428E+02 -0.30009703678E+02  0.45513675435E+02  0.51100000000E-03 0.  1.
         23    2    1    0    0    0  0.15623570581E+02 -0.14671817941E+02  0.18700266907E+02  0.96646051931E+02  0.92365584348E+02 0.  0.
         11    1    3    3    0    0 -0.43286181722E+00  0.15545781487E+02  0.48709970585E+02  0.51132376496E+02  0.51100000000E-03 0. -1.
         22    1    1    0    0    0 -0.15623570581E+02  0.14671817941E+02 -0.18700266907E+02  0.28443948069E+02  0.00000000000E+00 0. -1.
</event>
<event>
 5    1  0.1047411E-009  0.9118800E+02  0.7815553E-02  0.1125453E+00
         25   -1    0    0    0    0  0.00000000000E+00  0.00000000000E+00  0.99999998245E-14  0.12509000000E+03  0.12509000000E+03 0.  0.
        -11    1    3    3    0    0  0.26725208885E+02  0.21221175659E+02 -0.40977467618E+02  0.53326615671E+02  0.51100000000E-03 0.  1.
         23    2    1    0    0    0  0.88531984676E+01  0.27382122984E+02 -0.24917257716E+01  0.96204562847E+02  0.91765731256E+02 0.  0.
         11    1    3    3    0    0 -0.17872010418E+02  0.61609473256E+01  0.38485741846E+02  0.42877947176E+02  0.51100000000E-03 0. -1.
         22    1    1    0    0    0 -0.88531984676E+01 -0.27382122984E+02  0.24917257716E+01  0.28885437153E+02  0.00000000000E+00 0.  1.
</event>
<event>
 5    1  0.1047411E-009  0.9118800E+02  0.7815553E-02  0.1125453E+00
         25   -1    0    0    0    0  0.00000000000E+00  0.00000000000E+00  0.99999998245E-14  0.12509000000E+03  0.12509000000E+03 0.  0.
        -11    1    3    3    0    0  0.22856479300E+02 -0.24480026149E+02  0.24738186912E+02  0.41637341632E+02  0.51100000000E-03 0.  1.
         23    2    1    0    0    0 -0.10675733312E+02 -0.21094908489E+02 -0.17501230980E+02  0.95674705819E+02  0.91040594253E+02 0.  0.
         11    1    3    3    0    0 -0.33532212612E+02  0.33851176597E+01 -0.42239417891E+02  0.54037364187E+02  0.51100000000E-03 0. -1.
         22    1    1    0    0    0  0.10675733312E+02  0.21094908489E+02  0.17501230980E+02  0.29415294181E+02  0.00000000000E+00 0. -1.
</event>
<event>
 5    1  0.1047411E-009  0.9118800E+02  0.7815553E-02  0.1125453E+00
         25   -1    0    0    0    0  0.00000000000E+00  0.00000000000E+00  0.99999998245E-14  0.12509000000E+03  0.12509000000E+03 0.  0.
        -11    1    3    3    0    0  0.31515262396E+02 -0.34863369883E+02 -0.36225829543E+02  0.59337821411E+02  0.51100000000E-03 0. -1.
         23    2    1    0    0    0  0.72990722303E+01 -0.93382608387E+01 -0.26835008676E+02  0.95754061945E+02  0.91149564548E+02 0.  0.
         11    1    3    3    0    0 -0.24216190165E+02  0.25525109044E+02  0.93908208669E+01  0.36416240534E+02  0.51100000000E-03 0.  1.
         22    1    1    0    0    0 -0.72990722303E+01  0.93382608387E+01  0.26835008676E+02  0.29335938055E+02  0.00000000000E+00 0. -1.
</event>
<event>
 5    1  0.1047411E-009  0.9118800E+02  0.7815553E-02  0.1125453E+00
         25   -1    0    0    0    0  0.00000000000E+00  0.00000000000E+00  0.99999998245E-14  0.12509000000E+03  0.12509000000E+03 0.  0.
        -11    1    3    3    0    0  0.55294210455E+02  0.14554298685E+02  0.18169412921E+02  0.59995040514E+02  0.51100000000E-03 0.  1.
         23    2    1    0    0    0  0.22363363363E+02  0.18765711479E+02  0.65337515749E+01  0.95174086879E+02  0.90350124269E+02 0.  0.
         11    1    3    3    0    0 -0.32930847092E+02  0.42114127937E+01 -0.11635661346E+02  0.35179046365E+02  0.51100000000E-03 0. -1.
         22    1    1    0    0    0 -0.22363363363E+02 -0.18765711479E+02 -0.65337515749E+01  0.29915913121E+02  0.00000000000E+00 0.  1.
</event>
<event>
 5    1  0.1047411E-009  0.9118800E+02  0.7815553E-02  0.1125453E+00
         25   -1    0    0    0    0  0.00000000000E+00  0.00000000000E+00  0.99999998245E-14  0.12509000000E+03  0.12509000000E+03 0.  0.
        -11    1    3    3    0    0  0.14499199397E+02 -0.39082806600E+02  0.19303063959E+02  0.45938010769E+02  0.51100000000E-03 0. -1.
         23    2    1    0    0    0 -0.25164183792E+02 -0.14868845909E+02  0.11179499398E+01  0.95839896810E+02  0.91267284850E+02 0.  0.
         11    1    3    3    0    0 -0.39663383188E+02  0.24213960692E+02 -0.18185114019E+02  0.49901886041E+02  0.51100000000E-03 0.  1.
         22    1    1    0    0    0  0.25164183792E+02  0.14868845909E+02 -0.11179499398E+01  0.29250103190E+02  0.00000000000E+00 0.  1.
</event>
<event>
 5    1  0.1047411E-009  0.9118800E+02  0.7815553E-02  0.1125453E+00
         25   -1    0    0    0    0  0.00000000000E+00  0.00000000000E+00  0.99999998245E-14  0.12509000000E+03  0.12509000000E+03 0.  0.
        -11    1    3    3    0    0 -0.21821393726E+02  0.40666436596E+02 -0.21587012417E+02  0.50950283561E+02  0.51100000000E-03 0.  1.
         23    2    1    0    0    0 -0.21664447433E+02 -0.53313984300E+01 -0.16728483005E+02  0.97204264660E+02  0.93118498874E+02 0.  0.
         11    1    3    3    0    0  0.15694629279E+00 -0.45997835026E+02  0.48585294117E+01  0.46253981099E+02  0.51100000000E-03 0. -1.
         22    1    1    0    0    0  0.21664447433E+02  0.53313984300E+01  0.16728483005E+02  0.27885735340E+02  0.00000000000E+00 0. -1.
</event>
<event>
 5    1  0.1047411E-009  0.9118800E+02  0.7815553E-02  0.1125453E+00
         25   -1    0    0    0    0  0.00000000000E+00  0.00000000000E+00  0.99999998245E-14  0.12509000000E+03  0.12509000000E+03 0.  0.
        -11    1    3    3    0    0  0.43442743233E+02  0.29184310846E+01  0.49830804218E+01  0.43824881863E+02  0.51100000000E-03 0. -1.
         23    2    1    0    0    0  0.33398878806E+01 -0.22697733388E+01 -0.28487858801E+02  0.96317359851E+02  0.91919361331E+02 0.  0.
         11    1    3    3    0    0 -0.40102855352E+02 -0.51882044235E+01 -0.33470939223E+02  0.52492477988E+02  0.51100000000E-03 0.  1.
         22    1    1    0    0    0 -0.33398878806E+01  0.22697733388E+01  0.28487858801E+02  0.28772640149E+02  0.00000000000E+00 0.  1.
</event>
<event>
 5    1  0.1047411E-009  0.9118800E+02  0.7815553E-02  0.1125453E+00
         25   -1    0    0    0    0  0.00000000000E+00  0.00000000000E+00  0.99999998245E-14  0.12509000000E+03  0.12509000000E+03 0.  0.
        -11    1    3    3    0    0 -0.11866512031E+02 -0.24325812846E+02  0.20610115096E+02  0.34019643192E+02  0.51100000000E-03 0.  1.
         23    2    1    0    0    0  0.22993309922E+02  0.10999411351E+02 -0.15375763325E+02  0.95322678168E+02  0.90555615640E+02 0.  0.
         11    1    3    3    0    0  0.34859821953E+02  0.35325224197E+02 -0.35985878421E+02  0.61303034975E+02  0.51100000000E-03 0. -1.
         22    1    1    0    0    0 -0.22993309922E+02 -0.10999411351E+02  0.15375763325E+02  0.29767321832E+02  0.00000000000E+00 0. -1.
</event>
<event>
 5    1  0.1047411E-009  0.9118800E+02  0.7815553E-02  0.1125453E+00
         25   -1    0    0    0    0  0.00000000000E+00  0.00000000000E+00  0.99999998245E-14  0.12509000000E+03  0.12509000000E+03 0.  0.
        -11    1    3    3    0    0  0.99227949558E+01  0.22141558928E+00 -0.41630270330E+02  0.42797082759E+02  0.51100000000E-03 0. -1.
         23    2    1    0    0    0  0.15582875539E+00 -0.29708949770E+02  0.48148548846E+00  0.95376740210E+02  0.90630264072E+02 0.  0.
         11    1    3    3    0    0 -0.97669662004E+01 -0.29930365360E+02  0.42111755819E+02  0.52579657452E+02  0.51100000000E-03 0.  1.
         22    1    1    0    0    0 -0.15582875539E+00  0.29708949770E+02 -0.48148548846E+00  0.29713259790E+02  0.00000000000E+00 0. -1.
</event>
<event>
 5    1  0.1047411E-009  0.9118800E+02  0.7815553E-02  0.1125453E+00
         25   -1    0    0    0    0  0.00000000000E+00  0.00000000000E+00  0.99999998245E-14  0.12509000000E+03  0.12509000000E+03 0.  0.
        -11    1    3    3    0    0  0.19887240908E+02 -0.37592286714E+02 -0.44883598371E+02  0.61832190438E+02  0.51100000000E-03 0. -1.
         23    2    1    0    0    0  0.15148042549E+02 -0.18840418701E+02 -0.18002573873E+02  0.94948380336E+02  0.90037090649E+02 0.  0.
         11    1    3    3    0    0 -0.47391983581E+01  0.18751868013E+02  0.26881024498E+02  0.33116189898E+02  0.51100000000E-03 0.  1.
         22    1    1    0    0    0 -0.15148042549E+02  0.18840418701E+02  0.18002573873E+02  0.30141619664E+02  0.00000000000E+00 0. -1.
</event>
<event>
 5    1  0.1047411E-009  0.9118800E+02  0.7815553E-02  0.1125453E+00
         25   -1    0    0    0    0  0.00000000000E+00  0.00000000000E+00  0.99999998245E-14  0.12509000000E+03  0.12509000000E+03 0.  0.
        -11    1    3    3    0    0  0.31295256078E+02  0.44874767727E+02  0.26475428773E+02  0.60778994402E+02  0.51100000000E-03 0.  1.
         23    2    1    0    0    0  0.22715865455E+02  0.17171846441E+02  0.68336846363E+01  0.95805497285E+02  0.91220125031E+02 0.  0.
         11    1    3    3    0    0 -0.85793906229E+01 -0.27702921285E+02 -0.19641744137E+02  0.35026502883E+02  0.51100000000E-03 0. -1.
         22    1    1    0    0    0 -0.22715865455E+02 -0.17171846441E+02 -0.68336846363E+01  0.29284502715E+02  0.00000000000E+00 0.  1.
</event>
<event>
 5    1  0.1047411E-009  0.9118800E+02  0.7815553E-02  0.1125453E+00
         25   -1    0    0    0    0  0.00000000000E+00  0.00000000000E+00  0.99999998245E-14  0.12509000000E+03  0.12509000000E+03 0.  0.
        -11    1    3    3    0    0  0.43190452441E+02 -0.36978373431E+02 -0.75398533971E+01  0.57355598447E+02  0.51100000000E-03 0.  1.
         23    2    1    0    0    0  0.18417809415E+02 -0.17969057585E+02  0.14479816108E+02  0.95564285637E+02  0.90888750022E+02 0.  0.
         11    1    3    3    0    0 -0.24772643026E+02  0.19009315846E+02  0.22019669505E+02  0.38208687190E+02  0.51100000000E-03 0. -1.
         22    1    1    0    0    0 -0.18417809415E+02  0.17969057585E+02 -0.14479816108E+02  0.29525714363E+02  0.00000000000E+00 0.  1.
</event>
<event>
 5    1  0.1047411E-009  0.9118800E+02  0.7815553E-02  0.1125453E+00
         25   -1    0    0    0    0  0.00000000000E+00  0.00000000000E+00  0.99999998245E-14  0.12509000000E+03  0.12509000000E+03 0.  0.
        -11    1    3    3    0    0 -0.32864613416E+02 -0.18117335264E+01  0.15221348017E+02  0.36263681957E+02  0.51100000000E-03 0.  1.
         23    2    1    0    0    0  0.22968991369E+02  0.16981158173E+02  0.61734924290E+01  0.95865929336E+02  0.91302957791E+02 0.  0.
         11    1    3    3    0    0  0.55833604785E+02  0.18792891699E+02 -0.90478555879E+01  0.59602247379E+02  0.51100000000E-03 0. -1.
         22    1    1    0    0    0 -0.22968991369E+02 -0.16981158173E+02 -0.61734924290E+01  0.29224070664E+02  0.00000000000E+00 0. -1.
</event>
<event>
 5    1  0.1047411E-009  0.9118800E+02  0.7815553E-02  0.1125453E+00
         25   -1    0    0    0    0  0.00000000000E+00  0.00000000000E+00  0.99999998245E-14  0.12509000000E+03  0.12509000000E+03 0.  0.
        -11    1    3    3    0    0  0.11002959425E+01  0.20572957647E+01 -0.27022675478E+02  0.27123202379E+02  0.51100000000E-03 0.  1.
         23    2    1    0    0    0 -0.51656186266E+01 -0.52166540551E+01  0.34717192237E+02  0.89605066124E+02  0.82279325125E+02 0.  0.
         11    1    3    3    0    0 -0.62659145691E+01 -0.72739498198E+01  0.61739867715E+02  0.62481863746E+02  0.51100000000E-03 0. -1.
         22    1    1    0    0    0  0.51656186266E+01  0.52166540551E+01 -0.34717192237E+02  0.35484933876E+02  0.00000000000E+00 0. -1.
</event>
<event>
 5    1  0.1047411E-009  0.9118800E+02  0.7815553E-02  0.1125453E+00
         25   -1    0    0    0    0  0.00000000000E+00  0.00000000000E+00  0.99999998245E-14  0.12509000000E+03  0.12509000000E+03 0.  0.
        -11    1    3    3    0    0  0.12996399516E+02  0.31353209207E+02  0.29260932669E+02  0.44812189289E+02  0.51100000000E-03 0.  1.
         23    2    1    0    0    0 -0.23398190460E+02  0.17302363506E+02 -0.35309864783E+01  0.95775925476E+02  0.91179564243E+02 0.  0.
         11    1    3    3    0    0 -0.36394589976E+02 -0.14050845702E+02 -0.32791919147E+02  0.50963736187E+02  0.51100000000E-03 0. -1.
         22    1    1    0    0    0  0.23398190460E+02 -0.17302363506E+02  0.35309864783E+01  0.29314074524E+02  0.00000000000E+00 0. -1.
</event>
<event>
 5    1  0.1047411E-009  0.9118800E+02  0.7815553E-02  0.1125453E+00
         25   -1    0    0    0    0  0.00000000000E+00  0.00000000000E+00  0.99999998245E-14  0.12509000000E+03  0.12509000000E+03 0.  0.
        -11    1    3    3    0    0 -0.69767283608E+01 -0.40544867379E+02 -0.41324575065E+02  0.58311932861E+02  0.51100000000E-03 0.  1.
         23    2    1    0    0    0  0.68584304386E+01 -0.77769840884E+01 -0.26106555447E+02  0.96999578378E+02  0.92843128010E+02 0.  0.
         11    1    3    3    0    0  0.13835158799E+02  0.32767883290E+02  0.15218019618E+02  0.38687645517E+02  0.51100000000E-03 0. -1.
         22    1    1    0    0    0 -0.68584304386E+01  0.77769840884E+01  0.26106555447E+02  0.28090421622E+02  0.00000000000E+00 0.  1.
</event>
<event>
 5    1  0.1047411E-009  0.9118800E+02  0.7815553E-02  0.1125453E+00
         25   -1    0    0    0    0  0.00000000000E+00  0.00000000000E+00  0.99999998245E-14  0.12509000000E+03  0.12509000000E+03 0.  0.
        -11    1    3    3    0    0  0.57016594885E+01 -0.45593042340E+02  0.15495072396E+02  0.48490532061E+02  0.51100000000E-03 0. -1.
         23    2    1    0    0    0 -0.15941205278E+02 -0.68648595444E+01  0.25760402322E+02  0.94028019219E+02  0.88749207028E+02 0.  0.
         11    1    3    3    0    0 -0.21642864767E+02  0.38728182795E+02  0.10265329925E+02  0.45537487158E+02  0.51100000000E-03 0.  1.
         22    1    1    0    0    0  0.15941205278E+02  0.68648595444E+01 -0.25760402322E+02  0.31061980781E+02  0.00000000000E+00 0.  1.
</event>
<event>
 5    1  0.1047411E-009  0.9118800E+02  0.7815553E-02  0.1125453E+00
         25   -1    0    0    0    0  0.00000000000E+00  0.00000000000E+00  0.99999998245E-14  0.12509000000E+03  0.12509000000E+03 0.  0.
        -11    1    3    3    0    0  0.16272112376E+02  0.12110320961E+02  0.31402660609E+02  0.37384068914E+02  0.51100000000E-03 0.  1.
         23    2    1    0    0    0 -0.26465156109E+02  0.25201699497E+02  0.19633691128E+02  0.83604918673E+02  0.72586296597E+02 0.  0.
         11    1    3    3    0    0 -0.42737268485E+02  0.13091378536E+02 -0.11768969481E+02  0.46220849759E+02  0.51100000000E-03 0. -1.
         22    1    1    0    0    0  0.26465156109E+02 -0.25201699497E+02 -0.19633691128E+02  0.41485081327E+02  0.00000000000E+00 0. -1.
</event>
<event>
 5    1  0.1047411E-009  0.9118800E+02  0.7815553E-02  0.1125453E+00
         25   -1    0    0    0    0  0.00000000000E+00  0.00000000000E+00  0.99999998245E-14  0.12509000000E+03  0.12509000000E+03 0.  0.
        -11    1    3    3    0    0 -0.17331438985E+02  0.31481636226E+02 -0.73795877284E+01  0.36686925628E+02  0.51100000000E-03 0.  1.
         23    2    1    0    0    0 -0.23395579534E+01  0.76949427991E+00  0.34364961382E+02  0.90636898200E+02  0.83833353098E+02 0.  0.
         11    1    3    3    0    0  0.14991881032E+02 -0.30712141946E+02  0.41744549110E+02  0.53949972572E+02  0.51100000000E-03 0. -1.
         22    1    1    0    0    0  0.23395579534E+01 -0.76949427991E+00 -0.34364961382E+02  0.34453101800E+02  0.00000000000E+00 0. -1.
</event>
<event>
 5    1  0.1047411E-009  0.9118800E+02  0.7815553E-02  0.1125453E+00
         25   -1    0    0    0    0  0.00000000000E+00  0.00000000000E+00  0.99999998245E-14  0.12509000000E+03  0.12509000000E+03 0.  0.
        -11    1    3    3    0    0 -0.28064398154E+02 -0.14366882936E+02 -0.14510852744E+02  0.34707097497E+02  0.51100000000E-03 0.  1.
         23    2    1    0    0    0  0.86915177971E+01  0.21109028267E+02  0.18651534138E+02  0.95610968779E+02  0.90952977242E+02 0.  0.
         11    1    3    3    0    0  0.36755915951E+02  0.35475911203E+02  0.33162386882E+02  0.60903871282E+02  0.51100000000E-03 0. -1.
         22    1    1    0    0    0 -0.86915177971E+01 -0.21109028267E+02 -0.18651534138E+02  0.29479031221E+02  0.00000000000E+00 0. -1.
</event>
<event>
 5    1  0.1047411E-009  0.9118800E+02  0.7815553E-02  0.1125453E+00
         25   -1    0    0    0    0  0.00000000000E+00  0.00000000000E+00  0.99999998245E-14  0.12509000000E+03  0.12509000000E+03 0.  0.
        -11    1    3    3    0    0  0.17422567952E+02  0.28951870170E+02  0.13267778413E+02  0.36301385713E+02  0.51100000000E-03 0.  1.
         23    2    1    0    0    0  0.10918488889E+02 -0.18836017953E+02 -0.20507623601E+02  0.95180610208E+02  0.90359155385E+02 0.  0.
         11    1    3    3    0    0 -0.65040790633E+01 -0.47787888123E+02 -0.33775402014E+02  0.58879224496E+02  0.51100000000E-03 0. -1.
         22    1    1    0    0    0 -0.10918488889E+02  0.18836017953E+02  0.20507623601E+02  0.29909389792E+02  0.00000000000E+00 0. -1.
</event>
<event>
 5    1  0.1047411E-009  0.9118800E+02  0.7815553E-02  0.1125453E+00
         25   -1    0    0    0    0  0.00000000000E+00  0.00000000000E+00  0.99999998245E-14  0.12509000000E+03  0.12509000000E+03 0.  0.
        -11    1    3    3    0    0 -0.39446989222E+02 -0.30046549884E+02 -0.16778132352E+02  0.52348503743E+02  0.51100000000E-03 0. -1.
         23    2    1    0    0    0  0.39858105073E+01 -0.23142617532E+02 -0.16608652519E+02  0.96326920016E+02  0.91932370522E+02 0.  0.
         11    1    3    3    0    0  0.43432799729E+02  0.69039323520E+01  0.16947983303E+00  0.43978416274E+02  0.51100000000E-03 0.  1.
         22    1    1    0    0    0 -0.39858105073E+01  0.23142617532E+02  0.16608652519E+02  0.28763079984E+02  0.00000000000E+00 0. -1.
</event>
<event>
 5    1  0.1047411E-009  0.9118800E+02  0.7815553E-02  0.1125453E+00
         25   -1    0    0    0    0  0.00000000000E+00  0.00000000000E+00  0.99999998245E-14  0.12509000000E+03  0.12509000000E+03 0.  0.
        -11    1    3    3    0    0 -0.48757236674E+02 -0.85304994998E+01  0.87321100216E+01  0.50262185542E+02  0.51100000000E-03 0.  1.
         23    2    1    0    0    0 -0.16763316561E+02  0.23586573255E+02  0.21137669719E+01  0.96076154498E+02  0.91590524795E+02 0.  0.
         11    1    3    3    0    0  0.31993920113E+02  0.32117072754E+02 -0.66183430497E+01  0.45813968956E+02  0.51100000000E-03 0. -1.
         22    1    1    0    0    0  0.16763316561E+02 -0.23586573255E+02 -0.21137669719E+01  0.29013845502E+02  0.00000000000E+00 0.  1.
</event>
<event>
 5    1  0.1047411E-009  0.9118800E+02  0.7815553E-02  0.1125453E+00
         25   -1    0    0    0    0  0.00000000000E+00  0.00000000000E+00  0.99999998245E-14  0.12509000000E+03  0.12509000000E+03 0.  0.
        -11    1    3    3    0    0 -0.25161058525E+02  0.32198291285E+02 -0.22523932064E+02  0.46659793652E+02  0.51100000000E-03 0. -1.
         23    2    1    0    0    0  0.14912267342E+02  0.29295790044E+02 -0.10868689431E+01  0.92199267024E+02  0.86133062898E+02 0.  0.
         11    1    3    3    0    0  0.40073325867E+02 -0.29025012410E+01  0.21437063121E+02  0.45539473372E+02  0.51100000000E-03 0.  1.
         22    1    1    0    0    0 -0.14912267342E+02 -0.29295790044E+02  0.10868689431E+01  0.32890732976E+02  0.00000000000E+00 0. -1.
</event>
<event>
 5    1  0.1047411E-009  0.9118800E+02  0.7815553E-02  0.1125453E+00
         25   -1    0    0    0    0  0.00000000000E+00  0.00000000000E+00  0.99999998245E-14  0.12509000000E+03  0.12509000000E+03 0.  0.
        -11    1    3    3    0    0 -0.28371529079E+02  0.28251440478E+02  0.30377221189E+02  0.50257965725E+02  0.51100000000E-03 0.  1.
         23    2    1    0    0    0 -0.19928948939E+02 -0.14270430155E+02  0.65851555931E+01  0.99709447271E+02  0.96425107821E+02 0.  0.
         11    1    3    3    0    0  0.84425801401E+01 -0.42521870633E+02 -0.23792065596E+02  0.49451481546E+02  0.51100000000E-03 0. -1.
         22    1    1    0    0    0  0.19928948939E+02  0.14270430155E+02 -0.65851555931E+01  0.25380552729E+02  0.00000000000E+00 0.  1.
</event>
<event>
 5    1  0.1047411E-009  0.9118800E+02  0.7815553E-02  0.1125453E+00
         25   -1    0    0    0    0  0.00000000000E+00  0.00000000000E+00  0.99999998245E-14  0.12509000000E+03  0.12509000000E+03 0.  0.
        -11    1    3    3    0    0  0.62691588801E+00 -0.54157015805E+02  0.17559367983E+02  0.56935988520E+02  0.51100000000E-03 0. -1.
         23    2    1    0    0    0 -0.66021393559E+01 -0.16360801625E+02  0.23322139991E+02  0.95846431687E+02  0.91276241046E+02 0.  0.
         11    1    3    3    0    0 -0.72290552439E+01  0.37796214180E+02  0.57627720077E+01  0.38910443168E+02  0.51100000000E-03 0.  1.
         22    1    1    0    0    0  0.66021393559E+01  0.16360801625E+02 -0.23322139991E+02  0.29243568313E+02  0.00000000000E+00 0. -1.
</event>
<event>
 5    1  0.1047411E-009  0.9118800E+02  0.7815553E-02  0.1125453E+00
         25   -1    0    0    0    0  0.00000000000E+00  0.00000000000E+00  0.99999998245E-14  0.12509000000E+03  0.12509000000E+03 0.  0.
        -11    1    3    3    0    0  0.98956982885E+01 -0.14420310196E+02 -0.33367822796E+01  0.17804614767E+02  0.51100000000E-03 0. -1.
         23    2    1    0    0    0  0.19455712036E+01  0.33339215938E+02  0.32846407777E+02  0.78247977515E+02  0.62678312953E+02 0.  0.
         11    1    3    3    0    0 -0.79501270849E+01  0.47759526135E+02  0.36183190056E+02  0.60443362747E+02  0.51100000000E-03 0.  1.
         22    1    1    0    0    0 -0.19455712036E+01 -0.33339215938E+02 -0.32846407777E+02  0.46842022485E+02  0.00000000000E+00 0.  1.
</event>
<event>
 5    1  0.1047411E-009  0.9118800E+02  0.7815553E-02  0.1125453E+00
         25   -1    0    0    0    0  0.00000000000E+00  0.00000000000E+00  0.99999998245E-14  0.12509000000E+03  0.12509000000E+03 0.  0.
        -11    1    3    3    0    0  0.25433843244E+02  0.11296459735E+02 -0.21236400395E+02  0.35006786296E+02  0.51100000000E-03 0.  1.
         23    2    1    0    0    0 -0.16555599247E+02  0.10959019509E+02  0.22121691925E+02  0.95365309444E+02  0.90614485689E+02 0.  0.
         11    1    3    3    0    0 -0.41989442492E+02 -0.33744022656E+00  0.43358092321E+02  0.60358523148E+02  0.51100000000E-03 0. -1.
         22    1    1    0    0    0  0.16555599247E+02 -0.10959019509E+02 -0.22121691925E+02  0.29724690556E+02  0.00000000000E+00 0. -1.
</event>
<event>
 5    1  0.1047411E-009  0.9118800E+02  0.7815553E-02  0.1125453E+00
         25   -1    0    0    0    0  0.00000000000E+00  0.00000000000E+00  0.99999998245E-14  0.12509000000E+03  0.12509000000E+03 0.  0.
        -11    1    3    3    0    0 -0.17318577940E+02  0.29906707048E+02  0.36087295001E+00  0.34561170378E+02  0.51100000000E-03 0.  1.
         23    2    1    0    0    0 -0.41430524919E+01 -0.29441246236E+02 -0.27633313683E+00  0.95357387873E+02  0.90603549589E+02 0.  0.
         11    1    3    3    0    0  0.13175525448E+02 -0.59347953284E+02 -0.63720608684E+00  0.60796217495E+02  0.51100000000E-03 0. -1.
         22    1    1    0    0    0  0.41430524919E+01  0.29441246236E+02  0.27633313683E+00  0.29732612127E+02  0.00000000000E+00 0. -1.
</event>
<event>
 5    1  0.1047411E-009  0.9118800E+02  0.7815553E-02  0.1125453E+00
         25   -1    0    0    0    0  0.00000000000E+00  0.00000000000E+00  0.99999998245E-14  0.12509000000E+03  0.12509000000E+03 0.  0.
        -11    1    3    3    0    0  0.83991508465E+01  0.26278186492E+02 -0.11417008781E+02  0.29856940734E+02  0.51100000000E-03 0. -1.
         23    2    1    0    0    0 -0.43014745134E+01 -0.26072657569E+02  0.19756451976E+02  0.92096007359E+02  0.85982969367E+02 0.  0.
         11    1    3    3    0    0 -0.12700625360E+02 -0.52350844061E+02  0.31173460757E+02  0.62239066625E+02  0.51100000000E-03 0.  1.
         22    1    1    0    0    0  0.43014745134E+01  0.26072657569E+02 -0.19756451976E+02  0.32993992641E+02  0.00000000000E+00 0.  1.
</event>
<event>
 5    1  0.1047411E-009  0.9118800E+02  0.7815553E-02  0.1125453E+00
         25   -1    0    0    0    0  0.00000000000E+00  0.00000000000E+00  0.99999998245E-14  0.12509000000E+03  0.12509000000E+03 0.  0.
        -11    1    3    3    0    0  0.37117492287E+02 -0.24508177190E+02 -0.23020158912E+02  0.50082798438E+02  0.51100000000E-03 0. -1.
         23    2    1    0    0    0 -0.78961283836E+01 -0.24602109050E+02 -0.12857712786E+02  0.96229414572E+02  0.91799601511E+02 0.  0.
         11    1    3    3    0    0 -0.45013620671E+02 -0.93931860295E-01  0.10162446126E+02  0.46146616134E+02  0.51100000000E-03 0.  1.
         22    1    1    0    0    0  0.78961283836E+01  0.24602109050E+02  0.12857712786E+02  0.28860585428E+02  0.00000000000E+00 0.  1.
</event>
<event>
 5    1  0.1047411E-009  0.9118800E+02  0.7815553E-02  0.1125453E+00
         25   -1    0    0    0    0  0.00000000000E+00  0.00000000000E+00  0.99999998245E-14  0.12509000000E+03  0.12509000000E+03 0.  0.
        -11    1    3    3    0    0 -0.14652966018E+02 -0.35664925557E+02  0.35848501894E+02  0.52647995369E+02  0.51100000000E-03 0.  1.
         23    2    1    0    0    0 -0.23693876608E+02  0.23878808279E+01  0.14544923880E+02  0.97185581457E+02  0.93093397558E+02 0.  0.
         11    1    3    3    0    0 -0.90409105893E+01  0.38052806385E+02 -0.21303578014E+02  0.44537586088E+02  0.51100000000E-03 0. -1.
         22    1    1    0    0    0  0.23693876608E+02 -0.23878808279E+01 -0.14544923880E+02  0.27904418543E+02  0.00000000000E+00 0. -1.
</event>
<event>
 5    1  0.1047411E-009  0.9118800E+02  0.7815553E-02  0.1125453E+00
         25   -1    0    0    0    0  0.00000000000E+00  0.00000000000E+00  0.99999998245E-14  0.12509000000E+03  0.12509000000E+03 0.  0.
        -11    1    3    3    0    0 -0.20044385722E+02  0.24580634358E+02  0.14537372206E+02  0.34890115726E+02  0.51100000000E-03 0.  1.
         23    2    1    0    0    0  0.86920961402E+00 -0.24898562137E+02 -0.14815245220E+02  0.96104048010E+02  0.91628612514E+02 0.  0.
         11    1    3    3    0    0  0.20913595336E+02 -0.49479196495E+02 -0.29352617427E+02  0.61213932284E+02  0.51100000000E-03 0. -1.
         22    1    1    0    0    0 -0.86920961402E+00  0.24898562137E+02  0.14815245220E+02  0.28985951990E+02  0.00000000000E+00 0. -1.
</event>
<event>
 5    1  0.1047411E-009  0.9118800E+02  0.7815553E-02  0.1125453E+00
         25   -1    0    0    0    0  0.00000000000E+00  0.00000000000E+00  0.99999998245E-14  0.12509000000E+03  0.12509000000E+03 0.  0.
        -11    1    3    3    0    0 -0.28416973076E+02  0.22258690363E+02  0.33590798660E+02  0.49308370592E+02  0.51100000000E-03 0.  1.
         23    2    1    0    0    0  0.14352769321E+01  0.30712472310E+02  0.96853663250E+00  0.94328757527E+02  0.89172083402E+02 0.  0.
         11    1    3    3    0    0  0.29852250008E+02  0.84537819465E+01 -0.32622262028E+02  0.45020386936E+02  0.51100000000E-03 0. -1.
         22    1    1    0    0    0 -0.14352769321E+01 -0.30712472310E+02 -0.96853663250E+00  0.30761242473E+02  0.00000000000E+00 0.  1.
</event>
<event>
 5    1  0.1047411E-009  0.9118800E+02  0.7815553E-02  0.1125453E+00
         25   -1    0    0    0    0  0.00000000000E+00  0.00000000000E+00  0.99999998245E-14  0.12509000000E+03  0.12509000000E+03 0.  0.
        -11    1    3    3    0    0  0.52107990188E+02 -0.14594766573E+02 -0.17790346835E+02  0.56962674565E+02  0.51100000000E-03 0. -1.
         23    2    1    0    0    0  0.27648600918E+02  0.11360151873E+02 -0.54197931069E+01  0.94711185990E+02  0.89706947395E+02 0.  0.
         11    1    3    3    0    0 -0.24459389270E+02  0.25954918446E+02  0.12370553729E+02  0.37748511425E+02  0.51100000000E-03 0.  1.
         22    1    1    0    0    0 -0.27648600918E+02 -0.11360151873E+02  0.54197931069E+01  0.30378814010E+02  0.00000000000E+00 0. -1.
</event>
<event>
 5    1  0.1047411E-009  0.9118800E+02  0.7815553E-02  0.1125453E+00
         25   -1    0    0    0    0  0.00000000000E+00  0.00000000000E+00  0.99999998245E-14  0.12509000000E+03  0.12509000000E+03 0.  0.
        -11    1    3    3    0    0  0.36258726554E+02  0.46776313031E+02 -0.46791610737E+01  0.59368453413E+02  0.51100000000E-03 0. -1.
         23    2    1    0    0    0  0.75082130652E+01 -0.26946953009E+01  0.16752583351E+01  0.11693885673E+03  0.11665442587E+03 0.  0.
         11    1    3    3    0    0 -0.28750513488E+02 -0.49471008332E+02  0.63544194088E+01  0.57570403312E+02  0.51100000000E-03 0.  1.
         22    1    1    0    0    0 -0.75082130652E+01  0.26946953009E+01 -0.16752583351E+01  0.81511432748E+01  0.00000000000E+00 0. -1.
</event>
<event>
 5    1  0.1047411E-009  0.9118800E+02  0.7815553E-02  0.1125453E+00
         25   -1    0    0    0    0  0.00000000000E+00  0.00000000000E+00  0.99999998245E-14  0.12509000000E+03  0.12509000000E+03 0.  0.
        -11    1    3    3    0    0 -0.34187853049E+02  0.38843596106E+01  0.95345628017E+01  0.35704417567E+02  0.51100000000E-03 0. -1.
         23    2    1    0    0    0  0.18448790830E+02  0.17944069333E+02 -0.14830651141E+02  0.95386536892E+02  0.90643784672E+02 0.  0.
         11    1    3    3    0    0  0.52636643879E+02  0.14059709723E+02 -0.24365213943E+02  0.59682119325E+02  0.51100000000E-03 0.  1.
         22    1    1    0    0    0 -0.18448790830E+02 -0.17944069333E+02  0.14830651141E+02  0.29703463108E+02  0.00000000000E+00 0.  1.
</event>
<event>
 5    1  0.1047411E-009  0.9118800E+02  0.7815553E-02  0.1125453E+00
         25   -1    0    0    0    0  0.00000000000E+00  0.00000000000E+00  0.99999998245E-14  0.12509000000E+03  0.12509000000E+03 0.  0.
        -11    1    3    3    0    0 -0.44318775632E+02 -0.19564883016E+02 -0.36892585239E+02  0.60893360613E+02  0.51100000000E-03 0.  1.
         23    2    1    0    0    0 -0.16642258294E+02 -0.24171429539E+01 -0.23715770811E+02  0.96016900297E+02  0.91509562431E+02 0.  0.
         11    1    3    3    0    0  0.27676517338E+02  0.17147740062E+02  0.13176814427E+02  0.35123539683E+02  0.51100000000E-03 0. -1.
         22    1    1    0    0    0  0.16642258294E+02  0.24171429539E+01  0.23715770811E+02  0.29073099703E+02  0.00000000000E+00 0.  1.
</event>
<event>
 5    1  0.1047411E-009  0.9118800E+02  0.7815553E-02  0.1125453E+00
         25   -1    0    0    0    0  0.00000000000E+00  0.00000000000E+00  0.99999998245E-14  0.12509000000E+03  0.12509000000E+03 0.  0.
        -11    1    3    3    0    0 -0.67124612755E+01 -0.49864534968E+02  0.28635401622E+02  0.57892272458E+02  0.51100000000E-03 0.  1.
         23    2    1    0    0    0 -0.84812362130E+00 -0.14045321493E+02  0.27491962304E+02  0.94206373904E+02  0.89000238895E+02 0.  0.
         11    1    3    3    0    0  0.58643376542E+01  0.35819213475E+02 -0.11434393183E+01  0.36314101446E+02  0.51100000000E-03 0. -1.
         22    1    1    0    0    0  0.84812362130E+00  0.14045321493E+02 -0.27491962304E+02  0.30883626096E+02  0.00000000000E+00 0.  1.
</event>
<event>
 5    1  0.1047411E-009  0.9118800E+02  0.7815553E-02  0.1125453E+00
         25   -1    0    0    0    0  0.00000000000E+00  0.00000000000E+00  0.99999998245E-14  0.12509000000E+03  0.12509000000E+03 0.  0.
        -11    1    3    3    0    0  0.26961629292E+02  0.35117464655E+02  0.10549529550E+02  0.45513276655E+02  0.51100000000E-03 0. -1.
         23    2    1    0    0    0  0.24669386977E+02 -0.11506586849E+02  0.17530220932E+02  0.92712711036E+02  0.86875531348E+02 0.  0.
         11    1    3    3    0    0 -0.22922423152E+01 -0.46624051504E+02  0.69806913824E+01  0.47199434381E+02  0.51100000000E-03 0.  1.
         22    1    1    0    0    0 -0.24669386977E+02  0.11506586849E+02 -0.17530220932E+02  0.32377288964E+02  0.00000000000E+00 0. -1.
</event>
<event>
 5    1  0.1047411E-009  0.9118800E+02  0.7815553E-02  0.1125453E+00
         25   -1    0    0    0    0  0.00000000000E+00  0.00000000000E+00  0.99999998245E-14  0.12509000000E+03  0.12509000000E+03 0.  0.
        -11    1    3    3    0    0 -0.20536431177E+02  0.21322714691E+02 -0.22399326550E+02  0.37123213727E+02  0.51100000000E-03 0.  1.
         23    2    1    0    0    0 -0.11267246408E+02 -0.28615384083E+02  0.35023506204E+01  0.94137495938E+02  0.88903378078E+02 0.  0.
         11    1    3    3    0    0  0.92691847694E+01 -0.49938098774E+02  0.25901677170E+02  0.57014282211E+02  0.51100000000E-03 0. -1.
         22    1    1    0    0    0  0.11267246408E+02  0.28615384083E+02 -0.35023506204E+01  0.30952504062E+02  0.00000000000E+00 0. -1.
</event>
<event>
 5    1  0.1047411E-009  0.9118800E+02  0.7815553E-02  0.1125453E+00
         25   -1    0    0    0    0  0.00000000000E+00  0.00000000000E+00  0.99999998245E-14  0.12509000000E+03  0.12509000000E+03 0.  0.
        -11    1    3    3    0    0 -0.33817619933E+02 -0.20375566944E+02  0.14125879804E+02  0.41932512764E+02  0.51100000000E-03 0. -1.
         23    2    1    0    0    0  0.16486133007E+02 -0.62851247667E+01  0.24206217345E+02  0.95136096531E+02  0.90297511207E+02 0.  0.
         11    1    3    3    0    0  0.50303752939E+02  0.14090442177E+02  0.10080337541E+02  0.53203583768E+02  0.51100000000E-03 0.  1.
         22    1    1    0    0    0 -0.16486133007E+02  0.62851247667E+01 -0.24206217345E+02  0.29953903469E+02  0.00000000000E+00 0.  1.
</event>
<event>
 5    1  0.1047411E-009  0.9118800E+02  0.7815553E-02  0.1125453E+00
         25   -1    0    0    0    0  0.00000000000E+00  0.00000000000E+00  0.99999998245E-14  0.12509000000E+03  0.12509000000E+03 0.  0.
        -11    1    3    3    0    0 -0.13275634142E+02  0.29963463584E+02 -0.29993644606E+02  0.44426009598E+02  0.51100000000E-03 0.  1.
         23    2    1    0    0    0  0.17015571958E+02  0.19626300510E+02  0.11377053995E+02  0.96732307598E+02  0.92482325959E+02 0.  0.
         11    1    3    3    0    0  0.30291206100E+02 -0.10337163074E+02  0.41370698601E+02  0.52306297999E+02  0.51100000000E-03 0. -1.
         22    1    1    0    0    0 -0.17015571958E+02 -0.19626300510E+02 -0.11377053995E+02  0.28357692402E+02  0.00000000000E+00 0. -1.
</event>
<event>
 5    1  0.1047411E-009  0.9118800E+02  0.7815553E-02  0.1125453E+00
         25   -1    0    0    0    0  0.00000000000E+00  0.00000000000E+00  0.99999998245E-14  0.12509000000E+03  0.12509000000E+03 0.  0.
        -11    1    3    3    0    0 -0.32576327238E+02 -0.66036881457E+00  0.18241867127E+02  0.37341918802E+02  0.51100000000E-03 0.  1.
         23    2    1    0    0    0  0.41758407989E+01  0.73155705425E+01 -0.27366825388E+02  0.96456132805E+02  0.92108019223E+02 0.  0.
         11    1    3    3    0    0  0.36752168037E+02  0.79759393570E+01 -0.45608692514E+02  0.59114214003E+02  0.51100000000E-03 0. -1.
         22    1    1    0    0    0 -0.41758407989E+01 -0.73155705425E+01  0.27366825388E+02  0.28633867195E+02  0.00000000000E+00 0. -1.
</event>
<event>
 5    1  0.1047411E-009  0.9118800E+02  0.7815553E-02  0.1125453E+00
         25   -1    0    0    0    0  0.00000000000E+00  0.00000000000E+00  0.99999998245E-14  0.12509000000E+03  0.12509000000E+03 0.  0.
        -11    1    3    3    0    0  0.37416302505E+02 -0.56770345080E+01 -0.31165519595E+02  0.49025483433E+02  0.51100000000E-03 0. -1.
         23    2    1    0    0    0 -0.83979318626E-01  0.21040115123E+02 -0.19216467767E+02  0.96594980604E+02  0.92296392928E+02 0.  0.
         11    1    3    3    0    0 -0.37500281823E+02  0.26717149631E+02  0.11949051828E+02  0.47569497171E+02  0.51100000000E-03 0.  1.
         22    1    1    0    0    0  0.83979318625E-01 -0.21040115123E+02  0.19216467767E+02  0.28495019396E+02  0.00000000000E+00 0. -1.
</event>
<event>
 5    1  0.1047411E-009  0.9118800E+02  0.7815553E-02  0.1125453E+00
         25   -1    0    0    0    0  0.00000000000E+00  0.00000000000E+00  0.99999998245E-14  0.12509000000E+03  0.12509000000E+03 0.  0.
        -11    1    3    3    0    0 -0.46278639823E+01  0.36081744885E+02  0.18420637376E+02  0.40775351876E+02  0.51100000000E-03 0.  1.
         23    2    1    0    0    0 -0.20225939141E+02 -0.16771195326E+02  0.11830898508E+02  0.96274522106E+02  0.91861046371E+02 0.  0.
         11    1    3    3    0    0 -0.15598075158E+02 -0.52852940211E+02 -0.65897388684E+01  0.55499170230E+02  0.51100000000E-03 0. -1.
         22    1    1    0    0    0  0.20225939141E+02  0.16771195326E+02 -0.11830898508E+02  0.28815477894E+02  0.00000000000E+00 0. -1.
</event>
<event>
 5    1  0.1047411E-009  0.9118800E+02  0.7815553E-02  0.1125453E+00
         25   -1    0    0    0    0  0.00000000000E+00  0.00000000000E+00  0.99999998245E-14  0.12509000000E+03  0.12509000000E+03 0.  0.
        -11    1    3    3    0    0  0.24673450730E+02  0.55717660227E+01  0.23614308519E+02  0.34604325086E+02  0.51100000000E-03 0.  1.
         23    2    1    0    0    0 -0.11444352221E+02 -0.17389334917E+02 -0.20362719367E+02  0.95969517404E+02  0.91444768928E+02 0.  0.
         11    1    3    3    0    0 -0.36117802951E+02 -0.22961100940E+02 -0.43977027886E+02  0.61365192319E+02  0.51100000000E-03 0. -1.
         22    1    1    0    0    0  0.11444352221E+02  0.17389334917E+02  0.20362719367E+02  0.29120482596E+02  0.00000000000E+00 0. -1.
</event>
<event>
 5    1  0.1047411E-009  0.9118800E+02  0.7815553E-02  0.1125453E+00
         25   -1    0    0    0    0  0.00000000000E+00  0.00000000000E+00  0.99999998245E-14  0.12509000000E+03  0.12509000000E+03 0.  0.
        -11    1    3    3    0    0  0.34284909799E+02  0.48362838660E+02  0.74114169652E+01  0.59744023173E+02  0.51100000000E-03 0.  1.
         23    2    1    0    0    0  0.72268877852E+01  0.25831436327E+02  0.12807466670E+02  0.95365898461E+02  0.90615298802E+02 0.  0.
         11    1    3    3    0    0 -0.27058022013E+02 -0.22531402333E+02  0.53960497052E+01  0.35621875288E+02  0.51100000000E-03 0. -1.
         22    1    1    0    0    0 -0.72268877852E+01 -0.25831436327E+02 -0.12807466670E+02  0.29724101539E+02  0.00000000000E+00 0.  1.
</event>
<event>
 5    1  0.1047411E-009  0.9118800E+02  0.7815553E-02  0.1125453E+00
         25   -1    0    0    0    0  0.00000000000E+00  0.00000000000E+00  0.99999998245E-14  0.12509000000E+03  0.12509000000E+03 0.  0.
        -11    1    3    3    0    0 -0.13364645314E+01 -0.28669159589E+02  0.22050621942E+02  0.36193048743E+02  0.51100000000E-03 0.  1.
         23    2    1    0    0    0 -0.12883668980E+02  0.26535105699E+02  0.45585098003E+01  0.95242374090E+02  0.90444618690E+02 0.  0.
         11    1    3    3    0    0 -0.11547204449E+02  0.55204265288E+02 -0.17492112142E+02  0.59049325348E+02  0.51100000000E-03 0. -1.
         22    1    1    0    0    0  0.12883668980E+02 -0.26535105699E+02 -0.45585098003E+01  0.29847625910E+02  0.00000000000E+00 0. -1.
</event>
<event>
 5    1  0.1047411E-009  0.9118800E+02  0.7815553E-02  0.1125453E+00
         25   -1    0    0    0    0  0.00000000000E+00  0.00000000000E+00  0.99999998245E-14  0.12509000000E+03  0.12509000000E+03 0.  0.
        -11    1    3    3    0    0 -0.27543154875E+02  0.31781098373E+02 -0.29592667056E+02  0.51423628208E+02  0.51100000000E-03 0. -1.
         23    2    1    0    0    0 -0.26510380365E+01  0.27982728467E+02  0.72620699176E+01  0.96059003554E+02  0.91567097853E+02 0.  0.
         11    1    3    3    0    0  0.24892116839E+02 -0.37983699058E+01  0.36854736974E+02  0.44635375346E+02  0.51100000000E-03 0.  1.
         22    1    1    0    0    0  0.26510380365E+01 -0.27982728467E+02 -0.72620699176E+01  0.29030996446E+02  0.00000000000E+00 0.  1.
</event>
<event>
 5    1  0.1047411E-009  0.9118800E+02  0.7815553E-02  0.1125453E+00
         25   -1    0    0    0    0  0.00000000000E+00  0.00000000000E+00  0.99999998245E-14  0.12509000000E+03  0.12509000000E+03 0.  0.
        -11    1    3    3    0    0  0.22688913526E+02  0.28385915793E+02  0.18150225835E+02  0.40619917657E+02  0.51100000000E-03 0.  1.
         23    2    1    0    0    0 -0.23271019942E+02  0.15369584722E+02 -0.92738652402E+01  0.95700051376E+02  0.91075412451E+02 0.  0.
         11    1    3    3    0    0 -0.45959933468E+02 -0.13016331071E+02 -0.27424091075E+02  0.55080133718E+02  0.51100000000E-03 0. -1.
         22    1    1    0    0    0  0.23271019942E+02 -0.15369584722E+02  0.92738652402E+01  0.29389948624E+02  0.00000000000E+00 0. -1.
</event>
<event>
 5    1  0.1047411E-009  0.9118800E+02  0.7815553E-02  0.1125453E+00
         25   -1    0    0    0    0  0.00000000000E+00  0.00000000000E+00  0.99999998245E-14  0.12509000000E+03  0.12509000000E+03 0.  0.
        -11    1    3    3    0    0 -0.61972275024E+01 -0.29289378456E+02  0.13843185941E+02  0.32983437000E+02  0.51100000000E-03 0. -1.
         23    2    1    0    0    0  0.32948827582E+01  0.29621250603E+02 -0.33933563755E+01  0.95093506752E+02  0.90238491893E+02 0.  0.
         11    1    3    3    0    0  0.94921102606E+01  0.58910629059E+02 -0.17236542316E+02  0.62110069752E+02  0.51100000000E-03 0.  1.
         22    1    1    0    0    0 -0.32948827582E+01 -0.29621250603E+02  0.33933563755E+01  0.29996493248E+02  0.00000000000E+00 0.  1.
</event>
<event>
 5    1  0.1047411E-009  0.9118800E+02  0.7815553E-02  0.1125453E+00
         25   -1    0    0    0    0  0.00000000000E+00  0.00000000000E+00  0.99999998245E-14  0.12509000000E+03  0.12509000000E+03 0.  0.
        -11    1    3    3    0    0  0.63476617443E+01  0.36519106460E+02  0.47849575003E+02  0.60527016898E+02  0.51100000000E-03 0.  1.
         23    2    1    0    0    0  0.10655921488E+02  0.21317236316E+02  0.15133316203E+02  0.96858980071E+02  0.92653502547E+02 0.  0.
         11    1    3    3    0    0  0.43082597435E+01 -0.15201870144E+02 -0.32716258800E+02  0.36331963174E+02  0.51100000000E-03 0. -1.
         22    1    1    0    0    0 -0.10655921488E+02 -0.21317236316E+02 -0.15133316203E+02  0.28231019929E+02  0.00000000000E+00 0.  1.
</event>
<event>
 5    1  0.1047411E-009  0.9118800E+02  0.7815553E-02  0.1125453E+00
         25   -1    0    0    0    0  0.00000000000E+00  0.00000000000E+00  0.99999998245E-14  0.12509000000E+03  0.12509000000E+03 0.  0.
        -11    1    3    3    0    0 -0.40781616018E+02  0.42034639528E+01 -0.11288313345E+02  0.42523350440E+02  0.51100000000E-03 0.  1.
         23    2    1    0    0    0  0.96854166825E+01  0.25151286658E+02 -0.64378250939E+01  0.97380072017E+02  0.93354369567E+02 0.  0.
         11    1    3    3    0    0  0.50467032700E+02  0.20947822705E+02  0.48504882514E+01  0.54856721577E+02  0.51100000000E-03 0. -1.
         22    1    1    0    0    0 -0.96854166825E+01 -0.25151286658E+02  0.64378250939E+01  0.27709927983E+02  0.00000000000E+00 0. -1.
</event>
<event>
 5    1  0.1047411E-009  0.9118800E+02  0.7815553E-02  0.1125453E+00
         25   -1    0    0    0    0  0.00000000000E+00  0.00000000000E+00  0.99999998245E-14  0.12509000000E+03  0.12509000000E+03 0.  0.
        -11    1    3    3    0    0  0.41812241546E+02 -0.15723309104E+02 -0.18683975929E+02  0.48420831768E+02  0.51100000000E-03 0. -1.
         23    2    1    0    0    0 -0.26099712760E+01 -0.24425666261E+02 -0.19549360560E+02  0.93695691269E+02  0.88279555627E+02 0.  0.
         11    1    3    3    0    0 -0.44422212822E+02 -0.87023571566E+01 -0.86538463154E+00  0.45274859502E+02  0.51100000000E-03 0.  1.
         22    1    1    0    0    0  0.26099712760E+01  0.24425666261E+02  0.19549360560E+02  0.31394308731E+02  0.00000000000E+00 0. -1.
</event>
<event>
 5    1  0.1047411E-009  0.9118800E+02  0.7815553E-02  0.1125453E+00
         25   -1    0    0    0    0  0.00000000000E+00  0.00000000000E+00  0.99999998245E-14  0.12509000000E+03  0.12509000000E+03 0.  0.
        -11    1    3    3    0    0 -0.35395944160E+01  0.49166204072E+02 -0.82178734015E+01  0.49973771071E+02  0.51100000000E-03 0. -1.
         23    2    1    0    0    0  0.24934675662E+02  0.20821504607E+02  0.48985281589E+01  0.92237775074E+02  0.86188969527E+02 0.  0.
         11    1    3    3    0    0  0.28474270078E+02 -0.28344699466E+02  0.13116401560E+02  0.42264004004E+02  0.51100000000E-03 0.  1.
         22    1    1    0    0    0 -0.24934675662E+02 -0.20821504607E+02 -0.48985281589E+01  0.32852224926E+02  0.00000000000E+00 0. -1.
</event>
<event>
 5    1  0.1047411E-009  0.9118800E+02  0.7815553E-02  0.1125453E+00
         25   -1    0    0    0    0  0.00000000000E+00  0.00000000000E+00  0.99999998245E-14  0.12509000000E+03  0.12509000000E+03 0.  0.
        -11    1    3    3    0    0  0.40867987945E+02  0.32822781774E+02 -0.55256670901E+01  0.52707309162E+02  0.51100000000E-03 0.  1.
         23    2    1    0    0    0 -0.16521761762E+01  0.29400686561E+02 -0.72771867920E+00  0.95633937281E+02  0.90984560938E+02 0.  0.
         11    1    3    3    0    0 -0.42520164121E+02 -0.34220952126E+01  0.47979484109E+01  0.42926628120E+02  0.51100000000E-03 0. -1.
         22    1    1    0    0    0  0.16521761762E+01 -0.29400686561E+02  0.72771867920E+00  0.29456062719E+02  0.00000000000E+00 0.  1.
</event>
<event>
 5    1  0.1047411E-009  0.9118800E+02  0.7815553E-02  0.1125453E+00
         25   -1    0    0    0    0  0.00000000000E+00  0.00000000000E+00  0.99999998245E-14  0.12509000000E+03  0.12509000000E+03 0.  0.
        -11    1    3    3    0    0 -0.25282445365E+02 -0.51043833910E+02  0.21138400317E+02  0.60757773100E+02  0.51100000000E-03 0.  1.
         23    2    1    0    0    0 -0.27526979236E+01 -0.24276312987E+02  0.15392935491E+02  0.96213380026E+02  0.91777749563E+02 0.  0.
         11    1    3    3    0    0  0.22529747441E+02  0.26767520923E+02 -0.57454648267E+01  0.35455606925E+02  0.51100000000E-03 0. -1.
         22    1    1    0    0    0  0.27526979236E+01  0.24276312987E+02 -0.15392935491E+02  0.28876619974E+02  0.00000000000E+00 0.  1.
</event>
<event>
 5    1  0.1047411E-009  0.9118800E+02  0.7815553E-02  0.1125453E+00
         25   -1    0    0    0    0  0.00000000000E+00  0.00000000000E+00  0.99999998245E-14  0.12509000000E+03  0.12509000000E+03 0.  0.
        -11    1    3    3    0    0 -0.22485700300E+02  0.47649748776E+02  0.17501061604E+02  0.55519297851E+02  0.51100000000E-03 0.  1.
         23    2    1    0    0    0 -0.26532385931E+02  0.13431060919E+02 -0.23040283853E+01  0.95262672808E+02  0.90472688604E+02 0.  0.
         11    1    3    3    0    0 -0.40466856309E+01 -0.34218687857E+02 -0.19805089989E+02  0.39743374957E+02  0.51100000000E-03 0. -1.
         22    1    1    0    0    0  0.26532385931E+02 -0.13431060919E+02  0.23040283853E+01  0.29827327192E+02  0.00000000000E+00 0.  1.
</event>
<event>
 5    1  0.1047411E-009  0.9118800E+02  0.7815553E-02  0.1125453E+00
         25   -1    0    0    0    0  0.00000000000E+00  0.00000000000E+00  0.99999998245E-14  0.12509000000E+03  0.12509000000E+03 0.  0.
        -11    1    3    3    0    0 -0.39256037093E+02  0.23156805364E+02  0.70838130119E+01  0.46124337285E+02  0.51100000000E-03 0. -1.
         23    2    1    0    0    0 -0.11357599972E+02  0.58078074804E+01 -0.28080689756E+02  0.94247645323E+02  0.89058227059E+02 0.  0.
         11    1    3    3    0    0  0.27898437121E+02 -0.17348997884E+02 -0.35164502768E+02  0.48123308038E+02  0.51100000000E-03 0.  1.
         22    1    1    0    0    0  0.11357599972E+02 -0.58078074804E+01  0.28080689756E+02  0.30842354677E+02  0.00000000000E+00 0.  1.
</event>
<event>
 5    1  0.1047411E-009  0.9118800E+02  0.7815553E-02  0.1125453E+00
         25   -1    0    0    0    0  0.00000000000E+00  0.00000000000E+00  0.99999998245E-14  0.12509000000E+03  0.12509000000E+03 0.  0.
        -11    1    3    3    0    0  0.90401690850E+01  0.18467466589E+02 -0.26719376035E+02  0.33714937865E+02  0.51100000000E-03 0.  1.
         23    2    1    0    0    0 -0.31840318849E+02 -0.11378526433E+02  0.67916598727E+00  0.91270803756E+02  0.84773944013E+02 0.  0.
         11    1    3    3    0    0 -0.40880487934E+02 -0.29845993022E+02  0.27398542022E+02  0.57555865890E+02  0.51100000000E-03 0. -1.
         22    1    1    0    0    0  0.31840318849E+02  0.11378526433E+02 -0.67916598727E+00  0.33819196244E+02  0.00000000000E+00 0. -1.
</event>
<event>
 5    1  0.1047411E-009  0.9118800E+02  0.7815553E-02  0.1125453E+00
         25   -1    0    0    0    0  0.00000000000E+00  0.00000000000E+00  0.99999998245E-14  0.12509000000E+03  0.12509000000E+03 0.  0.
        -11    1    3    3    0    0 -0.15494243190E+02 -0.29194977440E+02 -0.16476585913E+02  0.36930964830E+02  0.51100000000E-03 0.  1.
         23    2    1    0    0    0 -0.10506596302E+02  0.20495600110E+02  0.16483600704E+02  0.96767442173E+02  0.92529836176E+02 0.  0.
         11    1    3    3    0    0  0.49876468875E+01  0.49690577549E+02  0.32960186617E+02  0.59836477342E+02  0.51100000000E-03 0. -1.
         22    1    1    0    0    0  0.10506596302E+02 -0.20495600110E+02 -0.16483600704E+02  0.28322557827E+02  0.00000000000E+00 0. -1.
</event>
<event>
 5    1  0.1047411E-009  0.9118800E+02  0.7815553E-02  0.1125453E+00
         25   -1    0    0    0    0  0.00000000000E+00  0.00000000000E+00  0.99999998245E-14  0.12509000000E+03  0.12509000000E+03 0.  0.
        -11    1    3    3    0    0 -0.25613555702E+02  0.12825146207E+02 -0.27222541626E+02  0.39517153032E+02  0.51100000000E-03 0.  1.
         23    2    1    0    0    0  0.12996657646E+02 -0.24299101657E+02 -0.98248689987E+01  0.95834444935E+02  0.91259812261E+02 0.  0.
         11    1    3    3    0    0  0.38610213348E+02 -0.37124247864E+02  0.17397672627E+02  0.56317291903E+02  0.51100000000E-03 0. -1.
         22    1    1    0    0    0 -0.12996657646E+02  0.24299101657E+02  0.98248689987E+01  0.29255555065E+02  0.00000000000E+00 0. -1.
</event>
<event>
 5    1  0.1047411E-009  0.9118800E+02  0.7815553E-02  0.1125453E+00
         25   -1    0    0    0    0  0.00000000000E+00  0.00000000000E+00  0.99999998245E-14  0.12509000000E+03  0.12509000000E+03 0.  0.
        -11    1    3    3    0    0 -0.50333902449E+02  0.85113904428E+00  0.18715865439E+02  0.53707632538E+02  0.51100000000E-03 0.  1.
         23    2    1    0    0    0 -0.14029684332E+02  0.21871777981E+02  0.12964034915E+02  0.96050838239E+02  0.91555942519E+02 0.  0.
         11    1    3    3    0    0  0.36304218117E+02  0.21020638937E+02 -0.57518305234E+01  0.42343205701E+02  0.51100000000E-03 0. -1.
         22    1    1    0    0    0  0.14029684332E+02 -0.21871777981E+02 -0.12964034915E+02  0.29039161761E+02  0.00000000000E+00 0.  1.
</event>
<event>
 5    1  0.1047411E-009  0.9118800E+02  0.7815553E-02  0.1125453E+00
         25   -1    0    0    0    0  0.00000000000E+00  0.00000000000E+00  0.99999998245E-14  0.12509000000E+03  0.12509000000E+03 0.  0.
        -11    1    3    3    0    0 -0.47625985577E+02 -0.96177008031E+01 -0.33125283484E+02  0.58804923918E+02  0.51100000000E-03 0.  1.
         23    2    1    0    0    0 -0.18995771206E+02  0.94220401152E+01 -0.20955157400E+02  0.95278378352E+02  0.90494400910E+02 0.  0.
         11    1    3    3    0    0  0.28630214371E+02  0.19039740918E+02  0.12170126083E+02  0.36473454433E+02  0.51100000000E-03 0. -1.
         22    1    1    0    0    0  0.18995771206E+02 -0.94220401152E+01  0.20955157400E+02  0.29811621648E+02  0.00000000000E+00 0.  1.
</event>
<event>
 5    1  0.1047411E-009  0.9118800E+02  0.7815553E-02  0.1125453E+00
         25   -1    0    0    0    0  0.00000000000E+00  0.00000000000E+00  0.99999998245E-14  0.12509000000E+03  0.12509000000E+03 0.  0.
        -11    1    3    3    0    0 -0.32682421542E+01 -0.30284947309E+02 -0.22054272867E+02  0.37606520608E+02  0.51100000000E-03 0.  1.
         23    2    1    0    0    0  0.25070057044E+02  0.43778432024E+01  0.14847214688E+02  0.95626241664E+02  0.90973980014E+02 0.  0.
         11    1    3    3    0    0  0.28338299198E+02  0.34662790511E+02  0.36901487555E+02  0.58019721056E+02  0.51100000000E-03 0. -1.
         22    1    1    0    0    0 -0.25070057044E+02 -0.43778432024E+01 -0.14847214688E+02  0.29463758336E+02  0.00000000000E+00 0. -1.
</event>
<event>
 5    1  0.1047411E-009  0.9118800E+02  0.7815553E-02  0.1125453E+00
         25   -1    0    0    0    0  0.00000000000E+00  0.00000000000E+00  0.99999998245E-14  0.12509000000E+03  0.12509000000E+03 0.  0.
        -11    1    3    3    0    0 -0.27851116113E+02  0.25817886636E+02  0.19943569160E+02  0.42895149961E+02  0.51100000000E-03 0.  1.
         23    2    1    0    0    0  0.21941606196E+02  0.73969584533E+01  0.17542331410E+02  0.96040344785E+02  0.91541604522E+02 0.  0.
         11    1    3    3    0    0  0.49792722308E+02 -0.18420928182E+02 -0.24012377507E+01  0.53145194825E+02  0.51100000000E-03 0. -1.
         22    1    1    0    0    0 -0.21941606196E+02 -0.73969584533E+01 -0.17542331410E+02  0.29049655215E+02  0.00000000000E+00 0. -1.
</event>
<event>
 5    1  0.1047411E-009  0.9118800E+02  0.7815553E-02  0.1125453E+00
         25   -1    0    0    0    0  0.00000000000E+00  0.00000000000E+00  0.99999998245E-14  0.12509000000E+03  0.12509000000E+03 0.  0.
        -11    1    3    3    0    0  0.36894914288E+02  0.16555114430E+02  0.23990321510E+02  0.47019592093E+02  0.51100000000E-03 0.  1.
         23    2    1    0    0    0  0.35864012951E+01  0.22885957651E+02 -0.14066212633E+02  0.97988567018E+02  0.94166191367E+02 0.  0.
         11    1    3    3    0    0 -0.33308512993E+02  0.63308432213E+01 -0.38056534143E+02  0.50968974925E+02  0.51100000000E-03 0. -1.
         22    1    1    0    0    0 -0.35864012951E+01 -0.22885957651E+02  0.14066212633E+02  0.27101432982E+02  0.00000000000E+00 0. -1.
</event>
<event>
 5    1  0.1047411E-009  0.9118800E+02  0.7815553E-02  0.1125453E+00
         25   -1    0    0    0    0  0.00000000000E+00  0.00000000000E+00  0.99999998245E-14  0.12509000000E+03  0.12509000000E+03 0.  0.
        -11    1    3    3    0    0  0.20999642661E+02 -0.92416270439E+01  0.41475993825E+02  0.47398847310E+02  0.51100000000E-03 0.  1.
         23    2    1    0    0    0 -0.94678400652E+01 -0.26353323295E+02  0.75843650120E+01  0.96078618839E+02  0.91593890414E+02 0.  0.
         11    1    3    3    0    0 -0.30467482727E+02 -0.17111696251E+02 -0.33891628813E+02  0.48679771529E+02  0.51100000000E-03 0. -1.
         22    1    1    0    0    0  0.94678400652E+01  0.26353323295E+02 -0.75843650120E+01  0.29011381161E+02  0.00000000000E+00 0.  1.
</event>
<event>
 5    1  0.1047411E-009  0.9118800E+02  0.7815553E-02  0.1125453E+00
         25   -1    0    0    0    0  0.00000000000E+00  0.00000000000E+00  0.99999998245E-14  0.12509000000E+03  0.12509000000E+03 0.  0.
        -11    1    3    3    0    0 -0.26480378942E+02 -0.19510560902E+02 -0.10555296145E+02  0.34543982581E+02  0.51100000000E-03 0.  1.
         23    2    1    0    0    0  0.17053415308E+02  0.84266587127E+01  0.22266087839E+02  0.95805085481E+02  0.91219560323E+02 0.  0.
         11    1    3    3    0    0  0.43533794250E+02  0.27937219614E+02  0.32821383984E+02  0.61261102900E+02  0.51100000000E-03 0. -1.
         22    1    1    0    0    0 -0.17053415308E+02 -0.84266587127E+01 -0.22266087839E+02  0.29284914519E+02  0.00000000000E+00 0. -1.
</event>
<event>
 5    1  0.1047411E-009  0.9118800E+02  0.7815553E-02  0.1125453E+00
         25   -1    0    0    0    0  0.00000000000E+00  0.00000000000E+00  0.99999998245E-14  0.12509000000E+03  0.12509000000E+03 0.  0.
        -11    1    3    3    0    0 -0.12936926182E+02  0.48471120280E+02 -0.72882611840E+01  0.50694499816E+02  0.51100000000E-03 0.  1.
         23    2    1    0    0    0  0.19270831764E+02  0.16951074034E+02 -0.13341550774E+02  0.96164218337E+02  0.91710719349E+02 0.  0.
         11    1    3    3    0    0  0.32207757946E+02 -0.31520046246E+02 -0.60532895898E+01  0.45469718521E+02  0.51100000000E-03 0. -1.
         22    1    1    0    0    0 -0.19270831764E+02 -0.16951074034E+02  0.13341550774E+02  0.28925781663E+02  0.00000000000E+00 0.  1.
</event>
<event>
 5    1  0.1047411E-009  0.9118800E+02  0.7815553E-02  0.1125453E+00
         25   -1    0    0    0    0  0.00000000000E+00  0.00000000000E+00  0.99999998245E-14  0.12509000000E+03  0.12509000000E+03 0.  0.
        -11    1    3    3    0    0  0.16194204888E+02  0.43752167722E+02 -0.21719384994E+02  0.51461015702E+02  0.51100000000E-03 0.  1.
         23    2    1    0    0    0  0.19759034464E+02 -0.77174289905E+00 -0.21156831179E+02  0.96130950713E+02  0.91665332321E+02 0.  0.
         11    1    3    3    0    0  0.35648295763E+01 -0.44523910621E+02  0.56255381501E+00  0.44669935011E+02  0.51100000000E-03 0. -1.
         22    1    1    0    0    0 -0.19759034464E+02  0.77174289905E+00  0.21156831179E+02  0.28959049287E+02  0.00000000000E+00 0.  1.
</event>
<event>
 5    1  0.1047411E-009  0.9118800E+02  0.7815553E-02  0.1125453E+00
         25   -1    0    0    0    0  0.00000000000E+00  0.00000000000E+00  0.99999998245E-14  0.12509000000E+03  0.12509000000E+03 0.  0.
        -11    1    3    3    0    0  0.33733233148E+02  0.43525776058E+02 -0.19859529013E+01  0.55103250441E+02  0.51100000000E-03 0.  1.
         23    2    1    0    0    0  0.13475005705E+02  0.12522557757E+02 -0.21360715280E+02  0.96900101299E+02  0.92709003031E+02 0.  0.
         11    1    3    3    0    0 -0.20258227443E+02 -0.31003218301E+02 -0.19374762378E+02  0.41796850858E+02  0.51100000000E-03 0. -1.
         22    1    1    0    0    0 -0.13475005705E+02 -0.12522557757E+02  0.21360715280E+02  0.28189898701E+02  0.00000000000E+00 0.  1.
</event>
<event>
 5    1  0.1047411E-009  0.9118800E+02  0.7815553E-02  0.1125453E+00
         25   -1    0    0    0    0  0.00000000000E+00  0.00000000000E+00  0.99999998245E-14  0.12509000000E+03  0.12509000000E+03 0.  0.
        -11    1    3    3    0    0  0.14904464114E+02 -0.10080191166E+02 -0.37885324124E+02  0.41941043009E+02  0.51100000000E-03 0.  1.
         23    2    1    0    0    0 -0.22547778025E+02  0.14704650957E+02 -0.47433669661E+01  0.97756347047E+02  0.93857204327E+02 0.  0.
         11    1    3    3    0    0 -0.37452242138E+02  0.24784842122E+02  0.33141957158E+02  0.55815304037E+02  0.51100000000E-03 0. -1.
         22    1    1    0    0    0  0.22547778025E+02 -0.14704650957E+02  0.47433669661E+01  0.27333652953E+02  0.00000000000E+00 0. -1.
</event>
<event>
 5    1  0.1047411E-009  0.9118800E+02  0.7815553E-02  0.1125453E+00
         25   -1    0    0    0    0  0.00000000000E+00  0.00000000000E+00  0.99999998245E-14  0.12509000000E+03  0.12509000000E+03 0.  0.
        -11    1    3    3    0    0 -0.41113336731E+02  0.36274095117E+02 -0.88506717892E+01  0.55537832377E+02  0.51100000000E-03 0. -1.
         23    2    1    0    0    0 -0.62056527640E+01  0.20766571525E+02 -0.20279314671E+02  0.95408166791E+02  0.90673629396E+02 0.  0.
         11    1    3    3    0    0  0.34907683967E+02 -0.15507523593E+02 -0.11428642882E+02  0.39870334414E+02  0.51100000000E-03 0.  1.
         22    1    1    0    0    0  0.62056527640E+01 -0.20766571525E+02  0.20279314671E+02  0.29681833209E+02  0.00000000000E+00 0. -1.
</event>
<event>
 5    1  0.1047411E-009  0.9118800E+02  0.7815553E-02  0.1125453E+00
         25   -1    0    0    0    0  0.00000000000E+00  0.00000000000E+00  0.99999998245E-14  0.12509000000E+03  0.12509000000E+03 0.  0.
        -11    1    3    3    0    0 -0.26717910563E+02 -0.94891293749E+01  0.25076639391E+02  0.37851395807E+02  0.51100000000E-03 0.  1.
         23    2    1    0    0    0 -0.51501441046E+01  0.97842441656E+01 -0.26160339887E+02  0.96688964787E+02  0.92423682627E+02 0.  0.
         11    1    3    3    0    0  0.21567766459E+02  0.19273373541E+02 -0.51236979278E+02  0.58837568979E+02  0.51100000000E-03 0. -1.
         22    1    1    0    0    0  0.51501441046E+01 -0.97842441656E+01  0.26160339887E+02  0.28401035213E+02  0.00000000000E+00 0. -1.
</event>
<event>
 5    1  0.1047411E-009  0.9118800E+02  0.7815553E-02  0.1125453E+00
         25   -1    0    0    0    0  0.00000000000E+00  0.00000000000E+00  0.99999998245E-14  0.12509000000E+03  0.12509000000E+03 0.  0.
        -11    1    3    3    0    0  0.11760993702E+02  0.33491059209E+02  0.68587350218E+01  0.36152652270E+02  0.51100000000E-03 0.  1.
         23    2    1    0    0    0  0.12333306691E+01 -0.26094455444E+02  0.10872872029E+02  0.96794045243E+02  0.92565793568E+02 0.  0.
         11    1    3    3    0    0 -0.10527663033E+02 -0.59585514654E+02  0.40141370071E+01  0.60641392972E+02  0.51100000000E-03 0. -1.
         22    1    1    0    0    0 -0.12333306691E+01  0.26094455444E+02 -0.10872872029E+02  0.28295954757E+02  0.00000000000E+00 0. -1.
</event>
<event>
 5    1  0.1047411E-009  0.9118800E+02  0.7815553E-02  0.1125453E+00
         25   -1    0    0    0    0  0.00000000000E+00  0.00000000000E+00  0.99999998245E-14  0.12509000000E+03  0.12509000000E+03 0.  0.
        -11    1    3    3    0    0  0.12816041930E+02 -0.62143609771E+01  0.11870801918E+02  0.18541444160E+02  0.51100000000E-03 0. -1.
         23    2    1    0    0    0 -0.11896843510E+02 -0.30112061103E+02 -0.35481255215E+02  0.77056776279E+02  0.60254096869E+02 0.  0.
         11    1    3    3    0    0 -0.24712885440E+02 -0.23897700126E+02 -0.47352057133E+02  0.58515332119E+02  0.51100000000E-03 0.  1.
         22    1    1    0    0    0  0.11896843510E+02  0.30112061103E+02  0.35481255215E+02  0.48033223721E+02  0.00000000000E+00 0.  1.
</event>
<event>
 5    1  0.1047411E-009  0.9118800E+02  0.7815553E-02  0.1125453E+00
         25   -1    0    0    0    0  0.00000000000E+00  0.00000000000E+00  0.99999998245E-14  0.12509000000E+03  0.12509000000E+03 0.  0.
        -11    1    3    3    0    0  0.28683397392E+02  0.42450012451E+02  0.17312337577E+02  0.54078256958E+02  0.51100000000E-03 0.  1.
         23    2    1    0    0    0  0.16683034517E+02  0.31156610748E+01  0.23951758721E+02  0.95734970951E+02  0.91123361070E+02 0.  0.
         11    1    3    3    0    0 -0.12000362875E+02 -0.39334351376E+02  0.66394211436E+01  0.41656713993E+02  0.51100000000E-03 0. -1.
         22    1    1    0    0    0 -0.16683034517E+02 -0.31156610748E+01 -0.23951758721E+02  0.29355029049E+02  0.00000000000E+00 0.  1.
</event>
<event>
 5    1  0.1047411E-009  0.9118800E+02  0.7815553E-02  0.1125453E+00
         25   -1    0    0    0    0  0.00000000000E+00  0.00000000000E+00  0.99999998245E-14  0.12509000000E+03  0.12509000000E+03 0.  0.
        -11    1    3    3    0    0  0.30397243352E+02  0.28622292367E+02 -0.32598371627E+02  0.52970575386E+02  0.51100000000E-03 0. -1.
         23    2    1    0    0    0  0.22820771616E+02 -0.98041785660E+01 -0.16231029055E+02  0.95419208998E+02  0.90688861538E+02 0.  0.
         11    1    3    3    0    0 -0.75764717361E+01 -0.38426470933E+02  0.16367342572E+02  0.42448633611E+02  0.51100000000E-03 0.  1.
         22    1    1    0    0    0 -0.22820771616E+02  0.98041785660E+01  0.16231029055E+02  0.29670791002E+02  0.00000000000E+00 0. -1.
</event>
<event>
 5    1  0.1047411E-009  0.9118800E+02  0.7815553E-02  0.1125453E+00
         25   -1    0    0    0    0  0.00000000000E+00  0.00000000000E+00  0.99999998245E-14  0.12509000000E+03  0.12509000000E+03 0.  0.
        -11    1    3    3    0    0  0.31219644744E+02 -0.12598311188E+01  0.23086012061E+02  0.38848646637E+02  0.51100000000E-03 0. -1.
         23    2    1    0    0    0 -0.13721259263E+02  0.26364166253E+02  0.33120630274E+01  0.95184950602E+02  0.90365163872E+02 0.  0.
         11    1    3    3    0    0 -0.44940904007E+02  0.27623997372E+02 -0.19773949033E+02  0.56336303965E+02  0.51100000000E-03 0.  1.
         22    1    1    0    0    0  0.13721259263E+02 -0.26364166253E+02 -0.33120630274E+01  0.29905049398E+02  0.00000000000E+00 0.  1.
</event>
<event>
 5    1  0.1047411E-009  0.9118800E+02  0.7815553E-02  0.1125453E+00
         25   -1    0    0    0    0  0.00000000000E+00  0.00000000000E+00  0.99999998245E-14  0.12509000000E+03  0.12509000000E+03 0.  0.
        -11    1    3    3    0    0  0.54412120128E+01 -0.60350273119E+02  0.35865522375E+01  0.60701117049E+02  0.51100000000E-03 0. -1.
         23    2    1    0    0    0 -0.13501919931E+01 -0.25003350342E+02  0.11470639689E+02  0.97547920891E+02  0.93579008055E+02 0.  0.
         11    1    3    3    0    0 -0.67914040060E+01  0.35346922777E+02  0.78840874518E+01  0.36846803842E+02  0.51100000000E-03 0.  1.
         22    1    1    0    0    0  0.13501919931E+01  0.25003350342E+02 -0.11470639689E+02  0.27542079109E+02  0.00000000000E+00 0. -1.
</event>
<event>
 5    1  0.1047411E-009  0.9118800E+02  0.7815553E-02  0.1125453E+00
         25   -1    0    0    0    0  0.00000000000E+00  0.00000000000E+00  0.99999998245E-14  0.12509000000E+03  0.12509000000E+03 0.  0.
        -11    1    3    3    0    0  0.26485371395E+02 -0.32100329266E+02  0.10583020982E+02  0.42940730900E+02  0.51100000000E-03 0. -1.
         23    2    1    0    0    0 -0.93400538438E+01  0.94516803586E+01  0.22383696007E+02  0.99059235234E+02  0.95577881180E+02 0.  0.
         11    1    3    3    0    0 -0.35825425239E+02  0.41552009624E+02  0.11800675025E+02  0.56118504333E+02  0.51100000000E-03 0.  1.
         22    1    1    0    0    0  0.93400538438E+01 -0.94516803586E+01 -0.22383696007E+02  0.26030764766E+02  0.00000000000E+00 0. -1.
</event>
<event>
 5    1  0.1047411E-009  0.9118800E+02  0.7815553E-02  0.1125453E+00
         25   -1    0    0    0    0  0.00000000000E+00  0.00000000000E+00  0.99999998245E-14  0.12509000000E+03  0.12509000000E+03 0.  0.
        -11    1    3    3    0    0 -0.11545144549E+02  0.36215106370E+01 -0.29961529925E+02  0.32312520447E+02  0.51100000000E-03 0.  1.
         23    2    1    0    0    0  0.19278579293E+02 -0.14174081938E+02  0.20170559603E+02  0.93794318300E+02  0.88419197307E+02 0.  0.
         11    1    3    3    0    0  0.30823723842E+02 -0.17795592575E+02  0.50132089528E+02  0.61481797853E+02  0.51100000000E-03 0. -1.
         22    1    1    0    0    0 -0.19278579293E+02  0.14174081938E+02 -0.20170559603E+02  0.31295681700E+02  0.00000000000E+00 0. -1.
</event>
<event>
 5    1  0.1047411E-009  0.9118800E+02  0.7815553E-02  0.1125453E+00
         25   -1    0    0    0    0  0.00000000000E+00  0.00000000000E+00  0.99999998245E-14  0.12509000000E+03  0.12509000000E+03 0.  0.
        -11    1    3    3    0    0 -0.91582090351E+01 -0.53315083029E+02  0.67940730159E+01  0.54520916166E+02  0.51100000000E-03 0. -1.
         23    2    1    0    0    0  0.40163386146E+01 -0.19849114473E+02  0.23407110123E+02  0.94138245195E+02  0.88904432301E+02 0.  0.
         11    1    3    3    0    0  0.13174547650E+02  0.33465968556E+02  0.16613037107E+02  0.39617329029E+02  0.51100000000E-03 0.  1.
         22    1    1    0    0    0 -0.40163386146E+01  0.19849114473E+02 -0.23407110123E+02  0.30951754805E+02  0.00000000000E+00 0. -1.
</event>
<event>
 5    1  0.1047411E-009  0.9118800E+02  0.7815553E-02  0.1125453E+00
         25   -1    0    0    0    0  0.00000000000E+00  0.00000000000E+00  0.99999998245E-14  0.12509000000E+03  0.12509000000E+03 0.  0.
        -11    1    3    3    0    0 -0.54433368161E+02  0.24803599684E+02  0.56286234467E+00  0.59820790206E+02  0.51100000000E-03 0. -1.
         23    2    1    0    0    0 -0.33193996407E+02  0.60508825351E+01  0.10350692222E+02  0.89797062939E+02  0.82570703679E+02 0.  0.
         11    1    3    3    0    0  0.21239371754E+02 -0.18752717149E+02  0.97878298775E+01  0.29976272733E+02  0.51100000000E-03 0.  1.
         22    1    1    0    0    0  0.33193996407E+02 -0.60508825351E+01 -0.10350692222E+02  0.35292937061E+02  0.00000000000E+00 0. -1.
</event>
<event>
 5    1  0.1047411E-009  0.9118800E+02  0.7815553E-02  0.1125453E+00
         25   -1    0    0    0    0  0.00000000000E+00  0.00000000000E+00  0.99999998245E-14  0.12509000000E+03  0.12509000000E+03 0.  0.
        -11    1    3    3    0    0 -0.23771916458E+02  0.18644894772E+02 -0.33698632347E+02  0.45258523346E+02  0.51100000000E-03 0. -1.
         23    2    1    0    0    0  0.17824344750E+02  0.22698654684E+02 -0.54071921017E+01  0.95727201825E+02  0.91112695342E+02 0.  0.
         11    1    3    3    0    0  0.41596261209E+02  0.40537599117E+01  0.28291440245E+02  0.50468678479E+02  0.51100000000E-03 0.  1.
         22    1    1    0    0    0 -0.17824344750E+02 -0.22698654684E+02  0.54071921017E+01  0.29362798175E+02  0.00000000000E+00 0. -1.
</event>
<event>
 5    1  0.1047411E-009  0.9118800E+02  0.7815553E-02  0.1125453E+00
         25   -1    0    0    0    0  0.00000000000E+00  0.00000000000E+00  0.99999998245E-14  0.12509000000E+03  0.12509000000E+03 0.  0.
        -11    1    3    3    0    0 -0.50733778890E+02  0.85422152801E+01 -0.30090086106E+02  0.59601166469E+02  0.51100000000E-03 0. -1.
         23    2    1    0    0    0 -0.24682554135E+02 -0.94487911389E+01 -0.12009133250E+02  0.96060232277E+02  0.91568776399E+02 0.  0.
         11    1    3    3    0    0  0.26051224755E+02 -0.17991006419E+02  0.18080952856E+02  0.36459065808E+02  0.51100000000E-03 0.  1.
         22    1    1    0    0    0  0.24682554135E+02  0.94487911389E+01  0.12009133250E+02  0.29029767723E+02  0.00000000000E+00 0. -1.
</event>
<event>
 5    1  0.1047411E-009  0.9118800E+02  0.7815553E-02  0.1125453E+00
         25   -1    0    0    0    0  0.00000000000E+00  0.00000000000E+00  0.99999998245E-14  0.12509000000E+03  0.12509000000E+03 0.  0.
        -11    1    3    3    0    0  0.41307199042E+02  0.30989732988E+02  0.34607535730E+01  0.51755435067E+02  0.51100000000E-03 0.  1.
         23    2    1    0    0    0 -0.19769055040E+01  0.29076236994E+02 -0.38471396841E+01  0.95693806422E+02  0.91066834746E+02 0.  0.
         11    1    3    3    0    0 -0.43284104546E+02 -0.19134959941E+01 -0.73078932571E+01  0.43938371356E+02  0.51100000000E-03 0. -1.
         22    1    1    0    0    0  0.19769055040E+01 -0.29076236994E+02  0.38471396841E+01  0.29396193578E+02  0.00000000000E+00 0.  1.
</event>
<event>
 5    1  0.1047411E-009  0.9118800E+02  0.7815553E-02  0.1125453E+00
         25   -1    0    0    0    0  0.00000000000E+00  0.00000000000E+00  0.99999998245E-14  0.12509000000E+03  0.12509000000E+03 0.  0.
        -11    1    3    3    0    0  0.19012954761E+02  0.51089912377E+02  0.17967600856E+02  0.57397789820E+02  0.51100000000E-03 0.  1.
         23    2    1    0    0    0  0.22973897895E+02  0.11898987275E+02  0.73074630145E+01  0.98205340836E+02  0.94453713905E+02 0.  0.
         11    1    3    3    0    0  0.39609431342E+01 -0.39190925102E+02 -0.10660137842E+02  0.40807551016E+02  0.51100000000E-03 0. -1.
         22    1    1    0    0    0 -0.22973897895E+02 -0.11898987275E+02 -0.73074630145E+01  0.26884659164E+02  0.00000000000E+00 0.  1.
</event>
<event>
 5    1  0.1047411E-009  0.9118800E+02  0.7815553E-02  0.1125453E+00
         25   -1    0    0    0    0  0.00000000000E+00  0.00000000000E+00  0.99999998245E-14  0.12509000000E+03  0.12509000000E+03 0.  0.
        -11    1    3    3    0    0  0.17933419469E+02 -0.39692737642E+02 -0.22345022052E+02  0.48953252865E+02  0.51100000000E-03 0.  1.
         23    2    1    0    0    0  0.13013828780E+02  0.15216750741E+01 -0.31072593487E+02  0.91367881138E+02  0.84917067796E+02 0.  0.
         11    1    3    3    0    0 -0.49195906887E+01  0.41214412716E+02 -0.87275714351E+01  0.42414628273E+02  0.51100000000E-03 0. -1.
         22    1    1    0    0    0 -0.13013828780E+02 -0.15216750741E+01  0.31072593487E+02  0.33722118862E+02  0.00000000000E+00 0.  1.
</event>
<event>
 5    1  0.1047411E-009  0.9118800E+02  0.7815553E-02  0.1125453E+00
         25   -1    0    0    0    0  0.00000000000E+00  0.00000000000E+00  0.99999998245E-14  0.12509000000E+03  0.12509000000E+03 0.  0.
        -11    1    3    3    0    0 -0.29377033668E+02  0.17229259688E+02  0.49281897058E+02  0.59904614801E+02  0.51100000000E-03 0. -1.
         23    2    1    0    0    0 -0.45759924405E+01  0.16774678286E+02  0.25173909469E+02  0.94494979876E+02  0.89404954927E+02 0.  0.
         11    1    3    3    0    0  0.24801041228E+02 -0.45458140175E+00 -0.24107987589E+02  0.34590365076E+02  0.51100000000E-03 0.  1.
         22    1    1    0    0    0  0.45759924405E+01 -0.16774678286E+02 -0.25173909469E+02  0.30595020124E+02  0.00000000000E+00 0. -1.
</event>
<event>
 5    1  0.1047411E-009  0.9118800E+02  0.7815553E-02  0.1125453E+00
         25   -1    0    0    0    0  0.00000000000E+00  0.00000000000E+00  0.99999998245E-14  0.12509000000E+03  0.12509000000E+03 0.  0.
        -11    1    3    3    0    0  0.18574886188E+02  0.84578842096E+01  0.36977878631E+02  0.42236544727E+02  0.51100000000E-03 0. -1.
         23    2    1    0    0    0 -0.22199604116E+02  0.16629685823E+02  0.82429646743E+00  0.97340255170E+02  0.93301001809E+02 0.  0.
         11    1    3    3    0    0 -0.40774490304E+02  0.81718016131E+01 -0.36153582163E+02  0.55103710443E+02  0.51100000000E-03 0.  1.
         22    1    1    0    0    0  0.22199604116E+02 -0.16629685823E+02 -0.82429646743E+00  0.27749744830E+02  0.00000000000E+00 0.  1.
</event>
<event>
 5    1  0.1047411E-009  0.9118800E+02  0.7815553E-02  0.1125453E+00
         25   -1    0    0    0    0  0.00000000000E+00  0.00000000000E+00  0.99999998245E-14  0.12509000000E+03  0.12509000000E+03 0.  0.
        -11    1    3    3    0    0 -0.26747471065E+02  0.24873495869E+02 -0.49308064616E+01  0.36856897017E+02  0.51100000000E-03 0.  1.
         23    2    1    0    0    0  0.59795606044E+01 -0.19028800430E+02 -0.23118034858E+02  0.94556511393E+02  0.89491004689E+02 0.  0.
         11    1    3    3    0    0  0.32727031669E+02 -0.43902296298E+02 -0.18187228396E+02  0.57699614376E+02  0.51100000000E-03 0. -1.
         22    1    1    0    0    0 -0.59795606044E+01  0.19028800430E+02  0.23118034858E+02  0.30533488607E+02  0.00000000000E+00 0. -1.
</event>
<event>
 5    1  0.1047411E-009  0.9118800E+02  0.7815553E-02  0.1125453E+00
         25   -1    0    0    0    0  0.00000000000E+00  0.00000000000E+00  0.99999998245E-14  0.12509000000E+03  0.12509000000E+03 0.  0.
        -11    1    3    3    0    0  0.43621189544E+01  0.18262020048E+02 -0.28324797145E+02  0.33982695473E+02  0.51100000000E-03 0.  1.
         23    2    1    0    0    0 -0.75968335021E+01 -0.21516609996E+02  0.17870687162E+02  0.96106593633E+02  0.91632087694E+02 0.  0.
         11    1    3    3    0    0 -0.11958952456E+02 -0.39778630044E+02  0.46195484307E+02  0.62123898161E+02  0.51100000000E-03 0. -1.
         22    1    1    0    0    0  0.75968335021E+01  0.21516609996E+02 -0.17870687162E+02  0.28983406367E+02  0.00000000000E+00 0. -1.
</event>
<event>
 5    1  0.1047411E-009  0.9118800E+02  0.7815553E-02  0.1125453E+00
         25   -1    0    0    0    0  0.00000000000E+00  0.00000000000E+00  0.99999998245E-14  0.12509000000E+03  0.12509000000E+03 0.  0.
        -11    1    3    3    0    0  0.27148971336E+02 -0.24169196148E+02  0.29211105842E+02  0.46631592208E+02  0.51100000000E-03 0. -1.
         23    2    1    0    0    0  0.24746493998E+02  0.66876818129E+01 -0.10848567427E+02  0.97254672295E+02  0.93186188970E+02 0.  0.
         11    1    3    3    0    0 -0.24024773380E+01  0.30856877961E+02 -0.40059673269E+02  0.50623080087E+02  0.51100000000E-03 0.  1.
         22    1    1    0    0    0 -0.24746493998E+02 -0.66876818129E+01  0.10848567427E+02  0.27835327705E+02  0.00000000000E+00 0. -1.
</event>
<event>
 5    1  0.1047411E-009  0.9118800E+02  0.7815553E-02  0.1125453E+00
         25   -1    0    0    0    0  0.00000000000E+00  0.00000000000E+00  0.99999998245E-14  0.12509000000E+03  0.12509000000E+03 0.  0.
        -11    1    3    3    0    0 -0.13150641945E+02  0.68248453152E+01  0.42389568656E+02  0.44904269599E+02  0.51100000000E-03 0.  1.
         23    2    1    0    0    0 -0.19878287586E+02  0.19791416063E+02 -0.68080880868E+01  0.96224856132E+02  0.91793389779E+02 0.  0.
         11    1    3    3    0    0 -0.67276456414E+01  0.12966570747E+02 -0.49197656743E+02  0.51320586533E+02  0.51100000000E-03 0. -1.
         22    1    1    0    0    0  0.19878287586E+02 -0.19791416063E+02  0.68080880868E+01  0.28865143868E+02  0.00000000000E+00 0. -1.
</event>
<event>
 5    1  0.1047411E-009  0.9118800E+02  0.7815553E-02  0.1125453E+00
         25   -1    0    0    0    0  0.00000000000E+00  0.00000000000E+00  0.99999998245E-14  0.12509000000E+03  0.12509000000E+03 0.  0.
        -11    1    3    3    0    0 -0.28808423755E+02 -0.24625601048E+02 -0.37121745505E+02  0.53050631436E+02  0.51100000000E-03 0.  1.
         23    2    1    0    0    0 -0.29478402605E+02 -0.64995599429E+01  0.59010385118E+00  0.94897803621E+02  0.89966796153E+02 0.  0.
         11    1    3    3    0    0 -0.66997885010E+00  0.18126041105E+02  0.37711849356E+02  0.41847172185E+02  0.51100000000E-03 0. -1.
         22    1    1    0    0    0  0.29478402605E+02  0.64995599429E+01 -0.59010385118E+00  0.30192196379E+02  0.00000000000E+00 0.  1.
</event>
<event>
 5    1  0.1047411E-009  0.9118800E+02  0.7815553E-02  0.1125453E+00
         25   -1    0    0    0    0  0.00000000000E+00  0.00000000000E+00  0.99999998245E-14  0.12509000000E+03  0.12509000000E+03 0.  0.
        -11    1    3    3    0    0  0.36738520949E+02  0.31560846407E+00  0.29766193984E+02  0.47284720945E+02  0.51100000000E-03 0. -1.
         23    2    1    0    0    0  0.83301635054E+01  0.27958612523E+02  0.16725786453E+01  0.95868891918E+02  0.91307016598E+02 0.  0.
         11    1    3    3    0    0 -0.28408357444E+02  0.27643004059E+02 -0.28093615339E+02  0.48584170973E+02  0.51100000000E-03 0.  1.
         22    1    1    0    0    0 -0.83301635054E+01 -0.27958612523E+02 -0.16725786453E+01  0.29221108082E+02  0.00000000000E+00 0.  1.
</event>
<event>
 5    1  0.1047411E-009  0.9118800E+02  0.7815553E-02  0.1125453E+00
         25   -1    0    0    0    0  0.00000000000E+00  0.00000000000E+00  0.99999998245E-14  0.12509000000E+03  0.12509000000E+03 0.  0.
        -11    1    3    3    0    0  0.27737847084E+02  0.11246486455E+02 -0.17432245147E+02  0.34637476663E+02  0.51100000000E-03 0.  1.
         23    2    1    0    0    0 -0.14246798435E+02 -0.27761570146E+01  0.25145619187E+02  0.96055873912E+02  0.91562822342E+02 0.  0.
         11    1    3    3    0    0 -0.41984645518E+02 -0.14022643470E+02  0.42577864334E+02  0.61418397249E+02  0.51100000000E-03 0. -1.
         22    1    1    0    0    0  0.14246798435E+02  0.27761570146E+01 -0.25145619187E+02  0.29034126088E+02  0.00000000000E+00 0. -1.
</event>
<event>
 5    1  0.1047411E-009  0.9118800E+02  0.7815553E-02  0.1125453E+00
         25   -1    0    0    0    0  0.00000000000E+00  0.00000000000E+00  0.99999998245E-14  0.12509000000E+03  0.12509000000E+03 0.  0.
        -11    1    3    3    0    0 -0.11369751512E+02  0.42915305822E+02  0.40442617661E+02  0.60054975205E+02  0.51100000000E-03 0. -1.
         23    2    1    0    0    0  0.32504421865E+01  0.12969557004E+02  0.24903768012E+02  0.96823899376E+02  0.92606128555E+02 0.  0.
         11    1    3    3    0    0  0.14620193698E+02 -0.29945748818E+02 -0.15538849649E+02  0.36768924171E+02  0.51100000000E-03 0.  1.
         22    1    1    0    0    0 -0.32504421865E+01 -0.12969557004E+02 -0.24903768012E+02  0.28266100624E+02  0.00000000000E+00 0. -1.
</event>
<event>
 5    1  0.1047411E-009  0.9118800E+02  0.7815553E-02  0.1125453E+00
         25   -1    0    0    0    0  0.00000000000E+00  0.00000000000E+00  0.99999998245E-14  0.12509000000E+03  0.12509000000E+03 0.  0.
        -11    1    3    3    0    0 -0.43659095249E+01  0.63792455475E+01  0.31621879692E+02  0.32553021600E+02  0.51100000000E-03 0. -1.
         23    2    1    0    0    0 -0.20712841382E+01  0.32749470198E+01 -0.30273924822E+02  0.94569088806E+02  0.89508583597E+02 0.  0.
         11    1    3    3    0    0  0.22946253867E+01 -0.31042985277E+01 -0.61895804514E+02  0.62016067207E+02  0.51100000000E-03 0.  1.
         22    1    1    0    0    0  0.20712841382E+01 -0.32749470198E+01  0.30273924822E+02  0.30520911194E+02  0.00000000000E+00 0.  1.
</event>
<event>
 5    1  0.1047411E-009  0.9118800E+02  0.7815553E-02  0.1125453E+00
         25   -1    0    0    0    0  0.00000000000E+00  0.00000000000E+00  0.99999998245E-14  0.12509000000E+03  0.12509000000E+03 0.  0.
        -11    1    3    3    0    0  0.53126403555E+02 -0.20291119382E+01  0.13956413273E+02  0.54966476344E+02  0.51100000000E-03 0. -1.
         23    2    1    0    0    0  0.19148082849E+02  0.20257806841E+02  0.83781389091E+01  0.95982938548E+02  0.91463126264E+02 0.  0.
         11    1    3    3    0    0 -0.33978320706E+02  0.22286918779E+02 -0.55782743642E+01  0.41016462205E+02  0.51100000000E-03 0.  1.
         22    1    1    0    0    0 -0.19148082849E+02 -0.20257806841E+02 -0.83781389091E+01  0.29107061452E+02  0.00000000000E+00 0. -1.
</event>
<event>
 5    1  0.1047411E-009  0.9118800E+02  0.7815553E-02  0.1125453E+00
         25   -1    0    0    0    0  0.00000000000E+00  0.00000000000E+00  0.99999998245E-14  0.12509000000E+03  0.12509000000E+03 0.  0.
        -11    1    3    3    0    0  0.12779259167E+02 -0.60239672304E+01 -0.60010503640E+02  0.61651100504E+02  0.51100000000E-03 0.  1.
         23    2    1    0    0    0  0.12758668937E+02 -0.50518985134E+01 -0.25866638092E+02  0.95808806755E+02  0.91224663189E+02 0.  0.
         11    1    3    3    0    0 -0.20590229951E-01  0.97206871699E+00  0.34143865547E+02  0.34157706251E+02  0.51100000000E-03 0. -1.
         22    1    1    0    0    0 -0.12758668937E+02  0.50518985134E+01  0.25866638092E+02  0.29281193245E+02  0.00000000000E+00 0.  1.
</event>
<event>
 5    1  0.1047411E-009  0.9118800E+02  0.7815553E-02  0.1125453E+00
         25   -1    0    0    0    0  0.00000000000E+00  0.00000000000E+00  0.99999998245E-14  0.12509000000E+03  0.12509000000E+03 0.  0.
        -11    1    3    3    0    0 -0.36644362702E+02 -0.42502782864E+02 -0.15232936623E+02  0.58149275382E+02  0.51100000000E-03 0. -1.
         23    2    1    0    0    0 -0.21947700924E+02 -0.15074384391E+02  0.83409654917E+01  0.97188201743E+02  0.93096918381E+02 0.  0.
         11    1    3    3    0    0  0.14696661778E+02  0.27428398473E+02  0.23573902115E+02  0.39038926361E+02  0.51100000000E-03 0.  1.
         22    1    1    0    0    0  0.21947700924E+02  0.15074384391E+02 -0.83409654917E+01  0.27901798257E+02  0.00000000000E+00 0. -1.
</event>
<event>
 5    1  0.1047411E-009  0.9118800E+02  0.7815553E-02  0.1125453E+00
         25   -1    0    0    0    0  0.00000000000E+00  0.00000000000E+00  0.99999998245E-14  0.12509000000E+03  0.12509000000E+03 0.  0.
        -11    1    3    3    0    0  0.22573202216E+02  0.31553818486E+01 -0.57953580145E+02  0.62274580246E+02  0.51100000000E-03 0.  1.
         23    2    1    0    0    0  0.17553191193E+02  0.58267671365E+01 -0.42553574339E+02  0.78690943702E+02  0.63556212877E+02 0.  0.
         11    1    3    3    0    0 -0.50200110224E+01  0.26713852879E+01  0.15400005806E+02  0.16416363456E+02  0.51100000000E-03 0. -1.
         22    1    1    0    0    0 -0.17553191193E+02 -0.58267671365E+01  0.42553574339E+02  0.46399056298E+02  0.00000000000E+00 0.  1.
</event>
<event>
 5    1  0.1047411E-009  0.9118800E+02  0.7815553E-02  0.1125453E+00
         25   -1    0    0    0    0  0.00000000000E+00  0.00000000000E+00  0.99999998245E-14  0.12509000000E+03  0.12509000000E+03 0.  0.
        -11    1    3    3    0    0  0.40714247550E+01 -0.23967325061E+02 -0.24481504120E+02  0.34501495828E+02  0.51100000000E-03 0. -1.
         23    2    1    0    0    0 -0.26587185170E+01  0.22410160543E+02  0.16801474950E+02  0.96955081478E+02  0.92783156791E+02 0.  0.
         11    1    3    3    0    0 -0.67301432721E+01  0.46377485605E+02  0.41282979070E+02  0.62453585650E+02  0.51100000000E-03 0.  1.
         22    1    1    0    0    0  0.26587185170E+01 -0.22410160543E+02 -0.16801474950E+02  0.28134918522E+02  0.00000000000E+00 0.  1.
</event>
<event>
 5    1  0.1047411E-009  0.9118800E+02  0.7815553E-02  0.1125453E+00
         25   -1    0    0    0    0  0.00000000000E+00  0.00000000000E+00  0.99999998245E-14  0.12509000000E+03  0.12509000000E+03 0.  0.
        -11    1    3    3    0    0  0.27682551584E+02 -0.44288097909E+02  0.30697963531E+02  0.60581550358E+02  0.51100000000E-03 0.  1.
         23    2    1    0    0    0  0.78755206672E+01 -0.26266677042E+02  0.59813120906E+01  0.97023325046E+02  0.92875117013E+02 0.  0.
         11    1    3    3    0    0 -0.19807030917E+02  0.18021420867E+02 -0.24716651440E+02  0.36441774689E+02  0.51100000000E-03 0. -1.
         22    1    1    0    0    0 -0.78755206672E+01  0.26266677042E+02 -0.59813120906E+01  0.28066674954E+02  0.00000000000E+00 0.  1.
</event>
<event>
 5    1  0.1047411E-009  0.9118800E+02  0.7815553E-02  0.1125453E+00
         25   -1    0    0    0    0  0.00000000000E+00  0.00000000000E+00  0.99999998245E-14  0.12509000000E+03  0.12509000000E+03 0.  0.
        -11    1    3    3    0    0 -0.45919001258E+01 -0.29727159298E+02 -0.54743356149E+02  0.62462985755E+02  0.51100000000E-03 0. -1.
         23    2    1    0    0    0 -0.18145418054E+01 -0.14762342450E+02 -0.22497540747E+02  0.98120412383E+02  0.94341171659E+02 0.  0.
         11    1    3    3    0    0  0.27773583204E+01  0.14964816848E+02  0.32245815402E+02  0.35657426628E+02  0.51100000000E-03 0.  1.
         22    1    1    0    0    0  0.18145418054E+01  0.14762342450E+02  0.22497540747E+02  0.26969587617E+02  0.00000000000E+00 0. -1.
</event>
<event>
 5    1  0.1047411E-009  0.9118800E+02  0.7815553E-02  0.1125453E+00
         25   -1    0    0    0    0  0.00000000000E+00  0.00000000000E+00  0.99999998245E-14  0.12509000000E+03  0.12509000000E+03 0.  0.
        -11    1    3    3    0    0 -0.40824378463E+01  0.22542819429E+02  0.47558146383E+02  0.52788467436E+02  0.51100000000E-03 0. -1.
         23    2    1    0    0    0 -0.24110465577E+02  0.12595066440E+02  0.10783692300E+02  0.95828450680E+02  0.91251595554E+02 0.  0.
         11    1    3    3    0    0 -0.20028027731E+02 -0.99477529886E+01 -0.36774454083E+02  0.43039983244E+02  0.51100000000E-03 0.  1.
         22    1    1    0    0    0  0.24110465577E+02 -0.12595066440E+02 -0.10783692300E+02  0.29261549320E+02  0.00000000000E+00 0. -1.
</event>
<event>
 5    1  0.1047411E-009  0.9118800E+02  0.7815553E-02  0.1125453E+00
         25   -1    0    0    0    0  0.00000000000E+00  0.00000000000E+00  0.99999998245E-14  0.12509000000E+03  0.12509000000E+03 0.  0.
        -11    1    3    3    0    0 -0.44815379207E+02  0.87825688159E+01 -0.33020364330E+02  0.56355090180E+02  0.51100000000E-03 0.  1.
         23    2    1    0    0    0 -0.33449517290E+02  0.23740278042E+02 -0.18527803826E+02  0.80081661627E+02  0.66236862893E+02 0.  0.
         11    1    3    3    0    0  0.11365861917E+02  0.14957709226E+02  0.14492560504E+02  0.23726571447E+02  0.51100000000E-03 0. -1.
         22    1    1    0    0    0  0.33449517290E+02 -0.23740278042E+02  0.18527803826E+02  0.45008338373E+02  0.00000000000E+00 0.  1.
</event>
<event>
 5    1  0.1047411E-009  0.9118800E+02  0.7815553E-02  0.1125453E+00
         25   -1    0    0    0    0  0.00000000000E+00  0.00000000000E+00  0.99999998245E-14  0.12509000000E+03  0.12509000000E+03 0.  0.
        -11    1    3    3    0    0 -0.37987324814E+02  0.59673343281E+01 -0.15268436598E+02  0.41373555346E+02  0.51100000000E-03 0.  1.
         23    2    1    0    0    0 -0.28936836630E+01  0.97661860659E+01  0.26876540612E+02  0.96348040591E+02  0.91961104251E+02 0.  0.
         11    1    3    3    0    0  0.35093641151E+02  0.37988517379E+01  0.42144977209E+02  0.54974485246E+02  0.51100000000E-03 0. -1.
         22    1    1    0    0    0  0.28936836630E+01 -0.97661860659E+01 -0.26876540612E+02  0.28741959409E+02  0.00000000000E+00 0. -1.
</event>
<event>
 5    1  0.1047411E-009  0.9118800E+02  0.7815553E-02  0.1125453E+00
         25   -1    0    0    0    0  0.00000000000E+00  0.00000000000E+00  0.99999998245E-14  0.12509000000E+03  0.12509000000E+03 0.  0.
        -11    1    3    3    0    0  0.72170729158E+01  0.43081262731E+02 -0.98057543561E+01  0.44768673855E+02  0.51100000000E-03 0. -1.
         23    2    1    0    0    0 -0.81488089291E+01 -0.43951158395E+01 -0.26206722898E+02  0.97295891717E+02  0.93241504116E+02 0.  0.
         11    1    3    3    0    0 -0.15365881845E+02 -0.47476378570E+02 -0.16400968542E+02  0.52527217862E+02  0.51100000000E-03 0.  1.
         22    1    1    0    0    0  0.81488089291E+01  0.43951158395E+01  0.26206722898E+02  0.27794108283E+02  0.00000000000E+00 0.  1.
</event>
<event>
 5    1  0.1047411E-009  0.9118800E+02  0.7815553E-02  0.1125453E+00
         25   -1    0    0    0    0  0.00000000000E+00  0.00000000000E+00  0.99999998245E-14  0.12509000000E+03  0.12509000000E+03 0.  0.
        -11    1    3    3    0    0  0.50253181603E+00 -0.37946959598E+02 -0.30654667566E+01  0.38073893518E+02  0.51100000000E-03 0.  1.
         23    2    1    0    0    0  0.54621292390E+00  0.13423022530E+02 -0.27141293901E+02  0.94805916440E+02  0.89838945202E+02 0.  0.
         11    1    3    3    0    0  0.43681107868E-01  0.51369982128E+02 -0.24075827145E+02  0.56732022922E+02  0.51100000000E-03 0. -1.
         22    1    1    0    0    0 -0.54621292390E+00 -0.13423022530E+02  0.27141293901E+02  0.30284083560E+02  0.00000000000E+00 0. -1.
</event>
<event>
 5    1  0.1047411E-009  0.9118800E+02  0.7815553E-02  0.1125453E+00
         25   -1    0    0    0    0  0.00000000000E+00  0.00000000000E+00  0.99999998245E-14  0.12509000000E+03  0.12509000000E+03 0.  0.
        -11    1    3    3    0    0 -0.39844306940E+02  0.14650022739E+02 -0.28194578476E+02  0.50962007589E+02  0.51100000000E-03 0. -1.
         23    2    1    0    0    0 -0.15667595184E+02 -0.15650312389E+02 -0.27565690017E+02  0.89730799177E+02  0.82470256688E+02 0.  0.
         11    1    3    3    0    0  0.24176711756E+02 -0.30300335128E+02  0.62888845937E+00  0.38768791588E+02  0.51100000000E-03 0.  1.
         22    1    1    0    0    0  0.15667595184E+02  0.15650312389E+02  0.27565690017E+02  0.35359200823E+02  0.00000000000E+00 0. -1.
</event>
<event>
 5    1  0.1047411E-009  0.9118800E+02  0.7815553E-02  0.1125453E+00
         25   -1    0    0    0    0  0.00000000000E+00  0.00000000000E+00  0.99999998245E-14  0.12509000000E+03  0.12509000000E+03 0.  0.
        -11    1    3    3    0    0  0.33673033373E+02  0.15378960327E+02 -0.25416645296E+02  0.44904247635E+02  0.51100000000E-03 0. -1.
         23    2    1    0    0    0 -0.11138094653E+02 -0.76163917640E+01 -0.26576345646E+02  0.95284485009E+02  0.90502841721E+02 0.  0.
         11    1    3    3    0    0 -0.44811128026E+02 -0.22995352091E+02 -0.11597003504E+01  0.50380237374E+02  0.51100000000E-03 0.  1.
         22    1    1    0    0    0  0.11138094653E+02  0.76163917640E+01  0.26576345646E+02  0.29805514991E+02  0.00000000000E+00 0.  1.
</event>
<event>
 5    1  0.1047411E-009  0.9118800E+02  0.7815553E-02  0.1125453E+00
         25   -1    0    0    0    0  0.00000000000E+00  0.00000000000E+00  0.99999998245E-14  0.12509000000E+03  0.12509000000E+03 0.  0.
        -11    1    3    3    0    0 -0.20024408692E+02  0.45487021293E+01  0.53028680228E+02  0.56865706375E+02  0.51100000000E-03 0. -1.
         23    2    1    0    0    0  0.94324519474E+01  0.30973362748E+01  0.27431094859E+02  0.95917588257E+02  0.91373705902E+02 0.  0.
         11    1    3    3    0    0  0.29456860639E+02 -0.14513658545E+01 -0.25597585369E+02  0.39051881882E+02  0.51100000000E-03 0.  1.
         22    1    1    0    0    0 -0.94324519474E+01 -0.30973362748E+01 -0.27431094859E+02  0.29172411743E+02  0.00000000000E+00 0. -1.
</event>
<event>
 5    1  0.1047411E-009  0.9118800E+02  0.7815553E-02  0.1125453E+00
         25   -1    0    0    0    0  0.00000000000E+00  0.00000000000E+00  0.99999998245E-14  0.12509000000E+03  0.12509000000E+03 0.  0.
        -11    1    3    3    0    0  0.10885140276E+01  0.21692424693E+02  0.25744546064E+02  0.33682752324E+02  0.51100000000E-03 0. -1.
         23    2    1    0    0    0 -0.44554066558E+00 -0.26043074486E+02 -0.13731204138E+02  0.95645370570E+02  0.91000278622E+02 0.  0.
         11    1    3    3    0    0 -0.15340546932E+01 -0.47735499179E+02 -0.39475750202E+02  0.61962618246E+02  0.51100000000E-03 0.  1.
         22    1    1    0    0    0  0.44554066558E+00  0.26043074486E+02  0.13731204138E+02  0.29444629430E+02  0.00000000000E+00 0.  1.
</event>
<event>
 5    1  0.1047411E-009  0.9118800E+02  0.7815553E-02  0.1125453E+00
         25   -1    0    0    0    0  0.00000000000E+00  0.00000000000E+00  0.99999998245E-14  0.12509000000E+03  0.12509000000E+03 0.  0.
        -11    1    3    3    0    0  0.98556738465E+01  0.28163627925E+02 -0.28919017692E+02  0.41552783654E+02  0.51100000000E-03 0.  1.
         23    2    1    0    0    0 -0.28940591916E+02 -0.13148133807E+01 -0.55471304443E+01  0.95593267116E+02  0.90928628423E+02 0.  0.
         11    1    3    3    0    0 -0.38796265763E+02 -0.29478441306E+02  0.23371887248E+02  0.54040483461E+02  0.51100000000E-03 0. -1.
         22    1    1    0    0    0  0.28940591916E+02  0.13148133807E+01  0.55471304443E+01  0.29496732884E+02  0.00000000000E+00 0. -1.
</event>
<event>
 5    1  0.1047411E-009  0.9118800E+02  0.7815553E-02  0.1125453E+00
         25   -1    0    0    0    0  0.00000000000E+00  0.00000000000E+00  0.99999998245E-14  0.12509000000E+03  0.12509000000E+03 0.  0.
        -11    1    3    3    0    0  0.42664677631E+02 -0.72704156241E+00  0.21353319584E+02  0.47715485582E+02  0.51100000000E-03 0. -1.
         23    2    1    0    0    0  0.91882818112E+01 -0.27104556799E+02 -0.21561888828E+01  0.96389291431E+02  0.92017198556E+02 0.  0.
         11    1    3    3    0    0 -0.33476395820E+02 -0.26377515236E+02 -0.23509508467E+02  0.48673805848E+02  0.51100000000E-03 0.  1.
         22    1    1    0    0    0 -0.91882818112E+01  0.27104556799E+02  0.21561888828E+01  0.28700708569E+02  0.00000000000E+00 0.  1.
</event>
<event>
 5    1  0.1047411E-009  0.9118800E+02  0.7815553E-02  0.1125453E+00
         25   -1    0    0    0    0  0.00000000000E+00  0.00000000000E+00  0.99999998245E-14  0.12509000000E+03  0.12509000000E+03 0.  0.
        -11    1    3    3    0    0  0.43009193922E+02 -0.11787933248E+02  0.38625582310E+02  0.58997302830E+02  0.51100000000E-03 0.  1.
         23    2    1    0    0    0  0.21887678712E+02  0.92683997077E+01  0.15901649322E+02  0.96492165052E+02  0.92156940882E+02 0.  0.
         11    1    3    3    0    0 -0.21121515210E+02  0.21056332956E+02 -0.22723932989E+02  0.37494862222E+02  0.51100000000E-03 0. -1.
         22    1    1    0    0    0 -0.21887678712E+02 -0.92683997077E+01 -0.15901649322E+02  0.28597834948E+02  0.00000000000E+00 0.  1.
</event>
<event>
 5    1  0.1047411E-009  0.9118800E+02  0.7815553E-02  0.1125453E+00
         25   -1    0    0    0    0  0.00000000000E+00  0.00000000000E+00  0.99999998245E-14  0.12509000000E+03  0.12509000000E+03 0.  0.
        -11    1    3    3    0    0 -0.42446862657E+02  0.10089452975E+02  0.23612400233E+02  0.49609259778E+02  0.51100000000E-03 0. -1.
         23    2    1    0    0    0 -0.10593811439E+02  0.27108256811E+02 -0.48403399301E+01  0.95585503415E+02  0.90917947317E+02 0.  0.
         11    1    3    3    0    0  0.31853051218E+02  0.17018803836E+02 -0.28452740163E+02  0.45976243637E+02  0.51100000000E-03 0.  1.
         22    1    1    0    0    0  0.10593811439E+02 -0.27108256811E+02  0.48403399301E+01  0.29504496585E+02  0.00000000000E+00 0.  1.
</event>
<event>
 5    1  0.1047411E-009  0.9118800E+02  0.7815553E-02  0.1125453E+00
         25   -1    0    0    0    0  0.00000000000E+00  0.00000000000E+00  0.99999998245E-14  0.12509000000E+03  0.12509000000E+03 0.  0.
        -11    1    3    3    0    0 -0.22676964404E+02 -0.35521444360E+02  0.16945579092E+02  0.45422135298E+02  0.51100000000E-03 0. -1.
         23    2    1    0    0    0 -0.18187996849E+02 -0.27730292629E+01 -0.21939010603E+02  0.96457621354E+02  0.92110040769E+02 0.  0.
         11    1    3    3    0    0  0.44889675552E+01  0.32748415097E+02 -0.38884589694E+02  0.51035486057E+02  0.51100000000E-03 0.  1.
         22    1    1    0    0    0  0.18187996849E+02  0.27730292629E+01  0.21939010603E+02  0.28632378646E+02  0.00000000000E+00 0.  1.
</event>
<event>
 5    1  0.1047411E-009  0.9118800E+02  0.7815553E-02  0.1125453E+00
         25   -1    0    0    0    0  0.00000000000E+00  0.00000000000E+00  0.99999998245E-14  0.12509000000E+03  0.12509000000E+03 0.  0.
        -11    1    3    3    0    0  0.10810195116E+02 -0.30543634268E+02  0.17037102762E+02  0.36606512857E+02  0.51100000000E-03 0.  1.
         23    2    1    0    0    0  0.10030926832E+02  0.13622392999E+02 -0.23212743798E+02  0.96366828887E+02  0.91986657462E+02 0.  0.
         11    1    3    3    0    0 -0.77926828467E+00  0.44166027268E+02 -0.40249846560E+02  0.59760316030E+02  0.51100000000E-03 0. -1.
         22    1    1    0    0    0 -0.10030926832E+02 -0.13622392999E+02  0.23212743798E+02  0.28723171113E+02  0.00000000000E+00 0. -1.
</event>
<event>
 5    1  0.1047411E-009  0.9118800E+02  0.7815553E-02  0.1125453E+00
         25   -1    0    0    0    0  0.00000000000E+00  0.00000000000E+00  0.99999998245E-14  0.12509000000E+03  0.12509000000E+03 0.  0.
        -11    1    3    3    0    0 -0.34649185486E+02  0.44938759890E+02  0.49667765778E+01  0.56962505784E+02  0.51100000000E-03 0.  1.
         23    2    1    0    0    0 -0.14999903441E+02  0.19254713922E+02 -0.16365831084E+02  0.95703242122E+02  0.91079794764E+02 0.  0.
         11    1    3    3    0    0  0.19649282045E+02 -0.25684045968E+02 -0.21332607662E+02  0.38740736339E+02  0.51100000000E-03 0. -1.
         22    1    1    0    0    0  0.14999903441E+02 -0.19254713922E+02  0.16365831084E+02  0.29386757878E+02  0.00000000000E+00 0. -1.
</event>
<event>
 5    1  0.1047411E-009  0.9118800E+02  0.7815553E-02  0.1125453E+00
         25   -1    0    0    0    0  0.00000000000E+00  0.00000000000E+00  0.99999998245E-14  0.12509000000E+03  0.12509000000E+03 0.  0.
        -11    1    3    3    0    0 -0.14668074429E+02 -0.10754228584E+01 -0.28569187791E+02  0.32132653688E+02  0.51100000000E-03 0. -1.
         23    2    1    0    0    0 -0.66868349022E+01 -0.37273462557E+01  0.31441555193E+02  0.92729866130E+02  0.86900229047E+02 0.  0.
         11    1    3    3    0    0  0.79812395266E+01 -0.26519233973E+01  0.60010742983E+02  0.60597212442E+02  0.51100000000E-03 0.  1.
         22    1    1    0    0    0  0.66868349022E+01  0.37273462557E+01 -0.31441555193E+02  0.32360133870E+02  0.00000000000E+00 0.  1.
</event>
<event>
 5    1  0.1047411E-009  0.9118800E+02  0.7815553E-02  0.1125453E+00
         25   -1    0    0    0    0  0.00000000000E+00  0.00000000000E+00  0.99999998245E-14  0.12509000000E+03  0.12509000000E+03 0.  0.
        -11    1    3    3    0    0  0.33829378110E+02 -0.20821965030E+02  0.32557787202E+02  0.51361372244E+02  0.51100000000E-03 0.  1.
         23    2    1    0    0    0  0.60418949786E+01  0.15813478489E+02  0.19718396161E+02  0.99101815300E+02  0.95633592694E+02 0.  0.
         11    1    3    3    0    0 -0.27787483131E+02  0.36635443519E+02 -0.12839391041E+02  0.47740443056E+02  0.51100000000E-03 0. -1.
         22    1    1    0    0    0 -0.60418949786E+01 -0.15813478489E+02 -0.19718396161E+02  0.25988184700E+02  0.00000000000E+00 0.  1.
</event>
<event>
 5    1  0.1047411E-009  0.9118800E+02  0.7815553E-02  0.1125453E+00
         25   -1    0    0    0    0  0.00000000000E+00  0.00000000000E+00  0.99999998245E-14  0.12509000000E+03  0.12509000000E+03 0.  0.
        -11    1    3    3    0    0  0.11269526413E+02  0.28885572505E+02 -0.30135666554E+02  0.43238141998E+02  0.51100000000E-03 0. -1.
         23    2    1    0    0    0  0.19052339188E+02  0.75129227922E+01  0.18855372926E+02  0.97251883584E+02  0.93182445423E+02 0.  0.
         11    1    3    3    0    0  0.77828127753E+01 -0.21372649713E+02  0.48991039480E+02  0.54013741586E+02  0.51100000000E-03 0.  1.
         22    1    1    0    0    0 -0.19052339188E+02 -0.75129227922E+01 -0.18855372926E+02  0.27838116416E+02  0.00000000000E+00 0.  1.
</event>
<event>
 5    1  0.1047411E-009  0.9118800E+02  0.7815553E-02  0.1125453E+00
         25   -1    0    0    0    0  0.00000000000E+00  0.00000000000E+00  0.99999998245E-14  0.12509000000E+03  0.12509000000E+03 0.  0.
        -11    1    3    3    0    0  0.14531869735E+02  0.15749789442E+02 -0.22468367161E+02  0.31049293528E+02  0.51100000000E-03 0. -1.
         23    2    1    0    0    0 -0.23778022479E+02 -0.85736829649E+01  0.19736133196E+02  0.93021053243E+02  0.87318377219E+02 0.  0.
         11    1    3    3    0    0 -0.38309892214E+02 -0.24323472407E+02  0.42204500357E+02  0.61971759714E+02  0.51100000000E-03 0.  1.
         22    1    1    0    0    0  0.23778022479E+02  0.85736829649E+01 -0.19736133196E+02  0.32068946757E+02  0.00000000000E+00 0.  1.
</event>
<event>
 5    1  0.1047411E-009  0.9118800E+02  0.7815553E-02  0.1125453E+00
         25   -1    0    0    0    0  0.00000000000E+00  0.00000000000E+00  0.99999998245E-14  0.12509000000E+03  0.12509000000E+03 0.  0.
        -11    1    3    3    0    0  0.48099269456E+02  0.20061982940E+02  0.26617366023E+02  0.58519287897E+02  0.51100000000E-03 0.  1.
         23    2    1    0    0    0  0.19101572069E+02 -0.32671989887E+01  0.21596445605E+02  0.96073606228E+02  0.91587044423E+02 0.  0.
         11    1    3    3    0    0 -0.28997697387E+02 -0.23329181928E+02 -0.50209204178E+01  0.37554318331E+02  0.51100000000E-03 0. -1.
         22    1    1    0    0    0 -0.19101572069E+02  0.32671989887E+01 -0.21596445605E+02  0.29016393772E+02  0.00000000000E+00 0.  1.
</event>
<event>
 5    1  0.1047411E-009  0.9118800E+02  0.7815553E-02  0.1125453E+00
         25   -1    0    0    0    0  0.00000000000E+00  0.00000000000E+00  0.99999998245E-14  0.12509000000E+03  0.12509000000E+03 0.  0.
        -11    1    3    3    0    0 -0.22415027613E+02  0.10228972264E+02  0.30240880630E+02  0.39007386455E+02  0.51100000000E-03 0. -1.
         23    2    1    0    0    0  0.97176848254E+01  0.21750703700E+02 -0.15933544337E+02  0.96429847437E+02  0.92072314686E+02 0.  0.
         11    1    3    3    0    0  0.32132712439E+02  0.11521731437E+02 -0.46174424967E+02  0.57422460982E+02  0.51100000000E-03 0.  1.
         22    1    1    0    0    0 -0.97176848254E+01 -0.21750703700E+02  0.15933544337E+02  0.28660152563E+02  0.00000000000E+00 0.  1.
</event>
<event>
 5    1  0.1047411E-009  0.9118800E+02  0.7815553E-02  0.1125453E+00
         25   -1    0    0    0    0  0.00000000000E+00  0.00000000000E+00  0.99999998245E-14  0.12509000000E+03  0.12509000000E+03 0.  0.
        -11    1    3    3    0    0  0.17875693004E+02 -0.36024696428E+02 -0.59282602805E+00  0.40220275932E+02  0.51100000000E-03 0.  1.
         23    2    1    0    0    0 -0.21319714070E+02 -0.19796608141E+01 -0.20140028274E+02  0.95694932321E+02  0.91068381275E+02 0.  0.
         11    1    3    3    0    0 -0.39195407074E+02  0.34045035614E+02 -0.19547202246E+02  0.55474656389E+02  0.51100000000E-03 0. -1.
         22    1    1    0    0    0  0.21319714070E+02  0.19796608141E+01  0.20140028274E+02  0.29395067679E+02  0.00000000000E+00 0. -1.
</event>
<event>
 5    1  0.1047411E-009  0.9118800E+02  0.7815553E-02  0.1125453E+00
         25   -1    0    0    0    0  0.00000000000E+00  0.00000000000E+00  0.99999998245E-14  0.12509000000E+03  0.12509000000E+03 0.  0.
        -11    1    3    3    0    0  0.14242024694E+02 -0.47477035812E+02 -0.36574303207E+02  0.61600193605E+02  0.51100000000E-03 0. -1.
         23    2    1    0    0    0  0.52672334428E+00 -0.19748519633E+02 -0.21083803216E+02  0.96196951992E+02  0.91755355970E+02 0.  0.
         11    1    3    3    0    0 -0.13715301349E+02  0.27728516180E+02  0.15490499991E+02  0.34596758386E+02  0.51100000000E-03 0.  1.
         22    1    1    0    0    0 -0.52672334428E+00  0.19748519633E+02  0.21083803216E+02  0.28893048008E+02  0.00000000000E+00 0. -1.
</event>
<event>
 5    1  0.1047411E-009  0.9118800E+02  0.7815553E-02  0.1125453E+00
         25   -1    0    0    0    0  0.00000000000E+00  0.00000000000E+00  0.99999998245E-14  0.12509000000E+03  0.12509000000E+03 0.  0.
        -11    1    3    3    0    0 -0.54392693528E+02  0.24395598518E+02 -0.10346006631E+02  0.60504133659E+02  0.51100000000E-03 0. -1.
         23    2    1    0    0    0 -0.24663489058E+02 -0.95414850501E+00 -0.39159755789E+01  0.10009934261E+03  0.96929590090E+02 0.  0.
         11    1    3    3    0    0  0.29729204470E+02 -0.25349747023E+02  0.64300310521E+01  0.39595208954E+02  0.51100000000E-03 0.  1.
         22    1    1    0    0    0  0.24663489058E+02  0.95414850501E+00  0.39159755789E+01  0.24990657387E+02  0.00000000000E+00 0. -1.
</event>
<event>
 5    1  0.1047411E-009  0.9118800E+02  0.7815553E-02  0.1125453E+00
         25   -1    0    0    0    0  0.00000000000E+00  0.00000000000E+00  0.99999998245E-14  0.12509000000E+03  0.12509000000E+03 0.  0.
        -11    1    3    3    0    0  0.30143434477E+02 -0.10113055876E+02 -0.25934018620E+01  0.31900255088E+02  0.51100000000E-03 0. -1.
         23    2    1    0    0    0 -0.31037007792E+02 -0.42664546152E+01  0.30235287903E+01  0.93615562531E+02  0.88165942029E+02 0.  0.
         11    1    3    3    0    0 -0.61180442269E+02  0.58466012605E+01  0.56169306522E+01  0.61715307443E+02  0.51100000000E-03 0.  1.
         22    1    1    0    0    0  0.31037007792E+02  0.42664546152E+01 -0.30235287903E+01  0.31474437469E+02  0.00000000000E+00 0.  1.
</event>
<event>
 5    1  0.1047411E-009  0.9118800E+02  0.7815553E-02  0.1125453E+00
         25   -1    0    0    0    0  0.00000000000E+00  0.00000000000E+00  0.99999998245E-14  0.12509000000E+03  0.12509000000E+03 0.  0.
        -11    1    3    3    0    0  0.55880601667E+02 -0.16482574916E+02  0.22026226887E+02  0.62285404307E+02  0.51100000000E-03 0. -1.
         23    2    1    0    0    0  0.24606300361E+02 -0.11444708101E+02  0.10277047226E+02  0.96071573773E+02  0.91584268445E+02 0.  0.
         11    1    3    3    0    0 -0.31274301306E+02  0.50378668148E+01 -0.11749179661E+02  0.33786169466E+02  0.51100000000E-03 0.  1.
         22    1    1    0    0    0 -0.24606300361E+02  0.11444708101E+02 -0.10277047226E+02  0.29018426227E+02  0.00000000000E+00 0. -1.
</event>
<event>
 5    1  0.1047411E-009  0.9118800E+02  0.7815553E-02  0.1125453E+00
         25   -1    0    0    0    0  0.00000000000E+00  0.00000000000E+00  0.99999998245E-14  0.12509000000E+03  0.12509000000E+03 0.  0.
        -11    1    3    3    0    0 -0.17541417182E+02 -0.10273012436E+02  0.35088926815E+02  0.40552051570E+02  0.51100000000E-03 0. -1.
         23    2    1    0    0    0  0.15594442382E+02  0.24372569581E+02  0.14475843794E+02  0.92736347429E+02  0.86909558161E+02 0.  0.
         11    1    3    3    0    0  0.33135859564E+02  0.34645582017E+02 -0.20613083021E+02  0.52184295858E+02  0.51100000000E-03 0.  1.
         22    1    1    0    0    0 -0.15594442382E+02 -0.24372569581E+02 -0.14475843794E+02  0.32353652571E+02  0.00000000000E+00 0. -1.
</event>
<event>
 5    1  0.1047411E-009  0.9118800E+02  0.7815553E-02  0.1125453E+00
         25   -1    0    0    0    0  0.00000000000E+00  0.00000000000E+00  0.99999998245E-14  0.12509000000E+03  0.12509000000E+03 0.  0.
        -11    1    3    3    0    0  0.21638689177E+01  0.26947318309E+02  0.54599214218E+02  0.60925483061E+02  0.51100000000E-03 0.  1.
         23    2    1    0    0    0  0.92274130085E+01  0.70674607491E+01  0.27236152901E+02  0.95477465878E+02  0.90769181517E+02 0.  0.
         11    1    3    3    0    0  0.70635440908E+01 -0.19879857560E+02 -0.27363061316E+02  0.34551982817E+02  0.51100000000E-03 0. -1.
         22    1    1    0    0    0 -0.92274130085E+01 -0.70674607491E+01 -0.27236152901E+02  0.29612534122E+02  0.00000000000E+00 0.  1.
</event>
<event>
 5    1  0.1047411E-009  0.9118800E+02  0.7815553E-02  0.1125453E+00
         25   -1    0    0    0    0  0.00000000000E+00  0.00000000000E+00  0.99999998245E-14  0.12509000000E+03  0.12509000000E+03 0.  0.
        -11    1    3    3    0    0  0.25166155314E+02 -0.48005412673E+02 -0.18039414209E+02  0.57125086297E+02  0.51100000000E-03 0.  1.
         23    2    1    0    0    0  0.19280406439E+01 -0.24277467454E+02 -0.24034297075E+02  0.90873626689E+02  0.84185841001E+02 0.  0.
         11    1    3    3    0    0 -0.23238114670E+02  0.23727945219E+02 -0.59948828656E+01  0.33748540392E+02  0.51100000000E-03 0. -1.
         22    1    1    0    0    0 -0.19280406439E+01  0.24277467454E+02  0.24034297075E+02  0.34216373311E+02  0.00000000000E+00 0.  1.
</event>
<event>
 5    1  0.1047411E-009  0.9118800E+02  0.7815553E-02  0.1125453E+00
         25   -1    0    0    0    0  0.00000000000E+00  0.00000000000E+00  0.99999998245E-14  0.12509000000E+03  0.12509000000E+03 0.  0.
        -11    1    3    3    0    0  0.47902837532E+02  0.23916743768E+02 -0.90621167820E+01  0.54302987366E+02  0.51100000000E-03 0.  1.
         23    2    1    0    0    0  0.14927313891E+02  0.18724729460E+02  0.16210609173E+02  0.96172461323E+02  0.91721961786E+02 0.  0.
         11    1    3    3    0    0 -0.32975523641E+02 -0.51920143075E+01  0.25272725955E+02  0.41869473957E+02  0.51100000000E-03 0. -1.
         22    1    1    0    0    0 -0.14927313891E+02 -0.18724729460E+02 -0.16210609173E+02  0.28917538677E+02  0.00000000000E+00 0.  1.
</event>
<event>
 5    1  0.1047411E-009  0.9118800E+02  0.7815553E-02  0.1125453E+00
         25   -1    0    0    0    0  0.00000000000E+00  0.00000000000E+00  0.99999998245E-14  0.12509000000E+03  0.12509000000E+03 0.  0.
        -11    1    3    3    0    0  0.35595356899E+02 -0.34696691363E+02 -0.34319198327E+02  0.60404446843E+02  0.51100000000E-03 0. -1.
         23    2    1    0    0    0  0.14765157110E+02 -0.24548936186E+02 -0.82583573298E+01  0.95276234754E+02  0.90491437776E+02 0.  0.
         11    1    3    3    0    0 -0.20830199789E+02  0.10147755177E+02  0.26060840997E+02  0.34871787911E+02  0.51100000000E-03 0.  1.
         22    1    1    0    0    0 -0.14765157110E+02  0.24548936186E+02  0.82583573298E+01  0.29813765246E+02  0.00000000000E+00 0. -1.
</event>
<event>
 5    1  0.1047411E-009  0.9118800E+02  0.7815553E-02  0.1125453E+00
         25   -1    0    0    0    0  0.00000000000E+00  0.00000000000E+00  0.99999998245E-14  0.12509000000E+03  0.12509000000E+03 0.  0.
        -11    1    3    3    0    0  0.12118522103E+02  0.45453320073E+02  0.12152398299E+02  0.48585426501E+02  0.51100000000E-03 0. -1.
         23    2    1    0    0    0 -0.22361332117E+02  0.16221496594E+02  0.14578114726E+02  0.93854002261E+02  0.88503594197E+02 0.  0.
         11    1    3    3    0    0 -0.34479854220E+02 -0.29231823479E+02  0.24257164263E+01  0.45268575760E+02  0.51100000000E-03 0.  1.
         22    1    1    0    0    0  0.22361332117E+02 -0.16221496594E+02 -0.14578114726E+02  0.31235997739E+02  0.00000000000E+00 0.  1.
</event>
<event>
 5    1  0.1047411E-009  0.9118800E+02  0.7815553E-02  0.1125453E+00
         25   -1    0    0    0    0  0.00000000000E+00  0.00000000000E+00  0.99999998245E-14  0.12509000000E+03  0.12509000000E+03 0.  0.
        -11    1    3    3    0    0 -0.31101616955E+02 -0.45561356323E+01  0.17573645678E+02  0.36012525207E+02  0.51100000000E-03 0.  1.
         23    2    1    0    0    0  0.60826302330E+01  0.11861253853E+02 -0.26166693811E+02  0.95723631506E+02  0.91107793465E+02 0.  0.
         11    1    3    3    0    0  0.37184247188E+02  0.16417389485E+02 -0.43740339489E+02  0.59711106298E+02  0.51100000000E-03 0. -1.
         22    1    1    0    0    0 -0.60826302330E+01 -0.11861253853E+02  0.26166693811E+02  0.29366368494E+02  0.00000000000E+00 0. -1.
</event>
<event>
 5    1  0.1047411E-009  0.9118800E+02  0.7815553E-02  0.1125453E+00
         25   -1    0    0    0    0  0.00000000000E+00  0.00000000000E+00  0.99999998245E-14  0.12509000000E+03  0.12509000000E+03 0.  0.
        -11    1    3    3    0    0  0.23442564824E+02 -0.22922731712E+02  0.32063671810E+02  0.45859399526E+02  0.51100000000E-03 0.  1.
         23    2    1    0    0    0 -0.17542608799E+02 -0.24830207360E+02  0.71570993455E+01  0.93856902298E+02  0.88507692982E+02 0.  0.
         11    1    3    3    0    0 -0.40985173623E+02 -0.19074756477E+01 -0.24906572464E+02  0.47997502773E+02  0.51100000000E-03 0. -1.
         22    1    1    0    0    0  0.17542608799E+02  0.24830207360E+02 -0.71570993455E+01  0.31233097702E+02  0.00000000000E+00 0. -1.
</event>
<event>
 5    1  0.1047411E-009  0.9118800E+02  0.7815553E-02  0.1125453E+00
         25   -1    0    0    0    0  0.00000000000E+00  0.00000000000E+00  0.99999998245E-14  0.12509000000E+03  0.12509000000E+03 0.  0.
        -11    1    3    3    0    0  0.25619014474E+02  0.14194056501E+02  0.22097683511E+02  0.36689409363E+02  0.51100000000E-03 0.  1.
         23    2    1    0    0    0  0.12857974993E+02 -0.20856227906E+02 -0.20380402665E+02  0.93220412990E+02  0.87603509186E+02 0.  0.
         11    1    3    3    0    0 -0.12761039481E+02 -0.35050284407E+02 -0.42478086176E+02  0.56531003627E+02  0.51100000000E-03 0. -1.
         22    1    1    0    0    0 -0.12857974993E+02  0.20856227906E+02  0.20380402665E+02  0.31869587010E+02  0.00000000000E+00 0. -1.
</event>
<event>
 5    1  0.1047411E-009  0.9118800E+02  0.7815553E-02  0.1125453E+00
         25   -1    0    0    0    0  0.00000000000E+00  0.00000000000E+00  0.99999998245E-14  0.12509000000E+03  0.12509000000E+03 0.  0.
        -11    1    3    3    0    0 -0.54733360573E+02 -0.17157115505E+02 -0.69794135559E+01  0.57782519726E+02  0.51100000000E-03 0. -1.
         23    2    1    0    0    0 -0.22576105773E+02 -0.50027526980E+01 -0.19973931156E+02  0.94534051115E+02  0.89459604336E+02 0.  0.
         11    1    3    3    0    0  0.32157254799E+02  0.12154362807E+02 -0.12994517600E+02  0.36751531389E+02  0.51100000000E-03 0.  1.
         22    1    1    0    0    0  0.22576105773E+02  0.50027526980E+01  0.19973931156E+02  0.30555948885E+02  0.00000000000E+00 0. -1.
</event>
<event>
 5    1  0.1047411E-009  0.9118800E+02  0.7815553E-02  0.1125453E+00
         25   -1    0    0    0    0  0.00000000000E+00  0.00000000000E+00  0.99999998245E-14  0.12509000000E+03  0.12509000000E+03 0.  0.
        -11    1    3    3    0    0 -0.33800381157E+02 -0.29192432565E+01  0.10459508707E+02  0.35501958681E+02  0.51100000000E-03 0.  1.
         23    2    1    0    0    0  0.19654788032E+02  0.20509814741E+02 -0.58174678244E+01  0.96093342862E+02  0.91613996841E+02 0.  0.
         11    1    3    3    0    0  0.53455169189E+02  0.23429057997E+02 -0.16276976531E+02  0.60591384181E+02  0.51100000000E-03 0. -1.
         22    1    1    0    0    0 -0.19654788032E+02 -0.20509814741E+02  0.58174678244E+01  0.28996657138E+02  0.00000000000E+00 0. -1.
</event>
<event>
 5    1  0.1047411E-009  0.9118800E+02  0.7815553E-02  0.1125453E+00
         25   -1    0    0    0    0  0.00000000000E+00  0.00000000000E+00  0.99999998245E-14  0.12509000000E+03  0.12509000000E+03 0.  0.
        -11    1    3    3    0    0 -0.16344955712E+01 -0.45243558416E+02  0.26756603688E+02  0.52588658426E+02  0.51100000000E-03 0. -1.
         23    2    1    0    0    0  0.16462055424E+02 -0.37494566211E+01  0.20881325940E+02  0.98236928169E+02  0.94495537404E+02 0.  0.
         11    1    3    3    0    0  0.18096550995E+02  0.41494101794E+02 -0.58752777474E+01  0.45648269743E+02  0.51100000000E-03 0.  1.
         22    1    1    0    0    0 -0.16462055424E+02  0.37494566211E+01 -0.20881325940E+02  0.26853071831E+02  0.00000000000E+00 0.  1.
</event>
<event>
 5    1  0.1047411E-009  0.9118800E+02  0.7815553E-02  0.1125453E+00
         25   -1    0    0    0    0  0.00000000000E+00  0.00000000000E+00  0.99999998245E-14  0.12509000000E+03  0.12509000000E+03 0.  0.
        -11    1    3    3    0    0 -0.21999800193E+02 -0.30760724215E+02 -0.34952274534E+02  0.51496357717E+02  0.51100000000E-03 0.  1.
         23    2    1    0    0    0  0.58537852153E+01  0.40281926053E+01 -0.27507527878E+02  0.96679487386E+02  0.92410854634E+02 0.  0.
         11    1    3    3    0    0  0.27853585408E+02  0.34788916820E+02  0.74447466557E+01  0.45183129669E+02  0.51100000000E-03 0. -1.
         22    1    1    0    0    0 -0.58537852153E+01 -0.40281926053E+01  0.27507527878E+02  0.28410512614E+02  0.00000000000E+00 0. -1.
</event>
<event>
 5    1  0.1047411E-009  0.9118800E+02  0.7815553E-02  0.1125453E+00
         25   -1    0    0    0    0  0.00000000000E+00  0.00000000000E+00  0.99999998245E-14  0.12509000000E+03  0.12509000000E+03 0.  0.
        -11    1    3    3    0    0  0.33086480086E+02 -0.25659284170E+02  0.17796762115E+01  0.41908009691E+02  0.51100000000E-03 0. -1.
         23    2    1    0    0    0 -0.32908441016E+01 -0.83355412814E+01 -0.30351709889E+02  0.93442927520E+02  0.87920665983E+02 0.  0.
         11    1    3    3    0    0 -0.36377324187E+02  0.17323742888E+02 -0.32131386101E+02  0.51534917829E+02  0.51100000000E-03 0.  1.
         22    1    1    0    0    0  0.32908441016E+01  0.83355412814E+01  0.30351709889E+02  0.31647072480E+02  0.00000000000E+00 0.  1.
</event>
<event>
 5    1  0.1047411E-009  0.9118800E+02  0.7815553E-02  0.1125453E+00
         25   -1    0    0    0    0  0.00000000000E+00  0.00000000000E+00  0.99999998245E-14  0.12509000000E+03  0.12509000000E+03 0.  0.
        -11    1    3    3    0    0  0.11155710969E+02  0.34115035514E+02 -0.10215001045E+01  0.35907227658E+02  0.51100000000E-03 0.  1.
         23    2    1    0    0    0  0.11776747865E+02 -0.25131935086E+02 -0.94865969189E+01  0.95759103789E+02  0.91156483510E+02 0.  0.
         11    1    3    3    0    0  0.62103689539E+00 -0.59246970600E+02 -0.84650968144E+01  0.59851876131E+02  0.51100000000E-03 0. -1.
         22    1    1    0    0    0 -0.11776747865E+02  0.25131935086E+02  0.94865969189E+01  0.29330896211E+02  0.00000000000E+00 0. -1.
</event>
<event>
 5    1  0.1047411E-009  0.9118800E+02  0.7815553E-02  0.1125453E+00
         25   -1    0    0    0    0  0.00000000000E+00  0.00000000000E+00  0.99999998245E-14  0.12509000000E+03  0.12509000000E+03 0.  0.
        -11    1    3    3    0    0  0.46427536767E+02 -0.24343956652E+02  0.28813487717E+01  0.52501872031E+02  0.51100000000E-03 0.  1.
         23    2    1    0    0    0  0.10234607059E+02 -0.13392244832E+02  0.23961247300E+02  0.95794253287E+02  0.91204704854E+02 0.  0.
         11    1    3    3    0    0 -0.36192929708E+02  0.10951711821E+02  0.21079898528E+02  0.43292381256E+02  0.51100000000E-03 0. -1.
         22    1    1    0    0    0 -0.10234607059E+02  0.13392244832E+02 -0.23961247300E+02  0.29295746713E+02  0.00000000000E+00 0.  1.
</event>
<event>
 5    1  0.1047411E-009  0.9118800E+02  0.7815553E-02  0.1125453E+00
         25   -1    0    0    0    0  0.00000000000E+00  0.00000000000E+00  0.99999998245E-14  0.12509000000E+03  0.12509000000E+03 0.  0.
        -11    1    3    3    0    0 -0.20910822848E+02  0.66627026233E+01  0.34124861450E+02  0.40572900903E+02  0.51100000000E-03 0. -1.
         23    2    1    0    0    0 -0.12340286333E+02 -0.26200009964E+02 -0.83438816593E+01  0.94951261639E+02  0.90041093600E+02 0.  0.
         11    1    3    3    0    0  0.85705365153E+01 -0.32862712587E+02 -0.42468743109E+02  0.54378360736E+02  0.51100000000E-03 0.  1.
         22    1    1    0    0    0  0.12340286333E+02  0.26200009964E+02  0.83438816593E+01  0.30138738361E+02  0.00000000000E+00 0.  1.
</event>
<event>
 5    1  0.1047411E-009  0.9118800E+02  0.7815553E-02  0.1125453E+00
         25   -1    0    0    0    0  0.00000000000E+00  0.00000000000E+00  0.99999998245E-14  0.12509000000E+03  0.12509000000E+03 0.  0.
        -11    1    3    3    0    0 -0.33154353976E+02 -0.65290324001E+01  0.33890838060E+01  0.33960644001E+02  0.51100000000E-03 0. -1.
         23    2    1    0    0    0  0.23813775874E+02  0.13805768794E+02 -0.98014669371E+01  0.95870761004E+02  0.91309577198E+02 0.  0.
         11    1    3    3    0    0  0.56968129850E+02  0.20334801194E+02 -0.13190550743E+02  0.61910117003E+02  0.51100000000E-03 0.  1.
         22    1    1    0    0    0 -0.23813775874E+02 -0.13805768794E+02  0.98014669371E+01  0.29219238996E+02  0.00000000000E+00 0.  1.
</event>
<event>
 5    1  0.1047411E-009  0.9118800E+02  0.7815553E-02  0.1125453E+00
         25   -1    0    0    0    0  0.00000000000E+00  0.00000000000E+00  0.99999998245E-14  0.12509000000E+03  0.12509000000E+03 0.  0.
        -11    1    3    3    0    0  0.25334782299E+02 -0.92337817385E+01 -0.17577166175E+02  0.32188051981E+02  0.51100000000E-03 0.  1.
         23    2    1    0    0    0 -0.21597804740E+02 -0.48454199933E+01  0.22107385240E+02  0.93806142395E+02  0.88435923721E+02 0.  0.
         11    1    3    3    0    0 -0.46932587039E+02  0.43883617451E+01  0.39684551415E+02  0.61618090414E+02  0.51100000000E-03 0. -1.
         22    1    1    0    0    0  0.21597804740E+02  0.48454199933E+01 -0.22107385240E+02  0.31283857605E+02  0.00000000000E+00 0. -1.
</event>
<event>
 5    1  0.1047411E-009  0.9118800E+02  0.7815553E-02  0.1125453E+00
         25   -1    0    0    0    0  0.00000000000E+00  0.00000000000E+00  0.99999998245E-14  0.12509000000E+03  0.12509000000E+03 0.  0.
        -11    1    3    3    0    0  0.32675663797E+02  0.11095346258E+02  0.82994749504E+01  0.35492069507E+02  0.51100000000E-03 0.  1.
         23    2    1    0    0    0 -0.19926745868E+02  0.13710744891E+02 -0.18549410384E+02  0.94608196380E+02  0.89563220522E+02 0.  0.
         11    1    3    3    0    0 -0.52602409665E+02  0.26153986330E+01 -0.26848885334E+02  0.59116126873E+02  0.51100000000E-03 0. -1.
         22    1    1    0    0    0  0.19926745868E+02 -0.13710744891E+02  0.18549410384E+02  0.30481803620E+02  0.00000000000E+00 0. -1.
</event>
<event>
 5    1  0.1047411E-009  0.9118800E+02  0.7815553E-02  0.1125453E+00
         25   -1    0    0    0    0  0.00000000000E+00  0.00000000000E+00  0.99999998245E-14  0.12509000000E+03  0.12509000000E+03 0.  0.
        -11    1    3    3    0    0  0.35084665002E+02 -0.41311172362E+01 -0.36681469698E+02  0.50926712709E+02  0.51100000000E-03 0. -1.
         23    2    1    0    0    0  0.23267728558E+02  0.19282535382E+02 -0.14661900963E+01  0.94835197465E+02  0.89879706285E+02 0.  0.
         11    1    3    3    0    0 -0.11816936444E+02  0.23413652618E+02  0.35215279602E+02  0.43908484756E+02  0.51100000000E-03 0.  1.
         22    1    1    0    0    0 -0.23267728558E+02 -0.19282535382E+02  0.14661900963E+01  0.30254802535E+02  0.00000000000E+00 0. -1.
</event>
<event>
 5    1  0.1047411E-009  0.9118800E+02  0.7815553E-02  0.1125453E+00
         25   -1    0    0    0    0  0.00000000000E+00  0.00000000000E+00  0.99999998245E-14  0.12509000000E+03  0.12509000000E+03 0.  0.
        -11    1    3    3    0    0 -0.35646951019E+02 -0.82058851043E+00 -0.29254351430E+02  0.46121530333E+02  0.51100000000E-03 0.  1.
         23    2    1    0    0    0 -0.96344743010E+01  0.25220812803E+02  0.63751881215E+01  0.97349136331E+02  0.93312908150E+02 0.  0.
         11    1    3    3    0    0  0.26012476718E+02  0.26041401313E+02  0.35629539552E+02  0.51227605998E+02  0.51100000000E-03 0. -1.
         22    1    1    0    0    0  0.96344743010E+01 -0.25220812803E+02 -0.63751881215E+01  0.27740863669E+02  0.00000000000E+00 0. -1.
</event>
<event>
 5    1  0.1047411E-009  0.9118800E+02  0.7815553E-02  0.1125453E+00
         25   -1    0    0    0    0  0.00000000000E+00  0.00000000000E+00  0.99999998245E-14  0.12509000000E+03  0.12509000000E+03 0.  0.
        -11    1    3    3    0    0  0.21275554744E+02 -0.24031894918E+02 -0.32576626751E+02  0.45732021754E+02  0.51100000000E-03 0.  1.
         23    2    1    0    0    0  0.10836698258E+02  0.21636444615E+02 -0.18444812572E+02  0.94663352542E+02  0.89640222217E+02 0.  0.
         11    1    3    3    0    0 -0.10438856486E+02  0.45668339533E+02  0.14131814179E+02  0.48931330788E+02  0.51100000000E-03 0. -1.
         22    1    1    0    0    0 -0.10836698258E+02 -0.21636444615E+02  0.18444812572E+02  0.30426647458E+02  0.00000000000E+00 0.  1.
</event>
<event>
 5    1  0.1047411E-009  0.9118800E+02  0.7815553E-02  0.1125453E+00
         25   -1    0    0    0    0  0.00000000000E+00  0.00000000000E+00  0.99999998245E-14  0.12509000000E+03  0.12509000000E+03 0.  0.
        -11    1    3    3    0    0 -0.21592917317E+02  0.21868269334E+02 -0.27053835285E+02  0.40943684321E+02  0.51100000000E-03 0. -1.
         23    2    1    0    0    0 -0.53263543008E+01 -0.27337866993E+02 -0.92002908425E+01  0.95757861083E+02  0.91154778184E+02 0.  0.
         11    1    3    3    0    0  0.16266563017E+02 -0.49206136327E+02  0.17853544442E+02  0.54814176761E+02  0.51100000000E-03 0.  1.
         22    1    1    0    0    0  0.53263543008E+01  0.27337866993E+02  0.92002908425E+01  0.29332138917E+02  0.00000000000E+00 0.  1.
</event>
<event>
 5    1  0.1047411E-009  0.9118800E+02  0.7815553E-02  0.1125453E+00
         25   -1    0    0    0    0  0.00000000000E+00  0.00000000000E+00  0.99999998245E-14  0.12509000000E+03  0.12509000000E+03 0.  0.
        -11    1    3    3    0    0 -0.52350686304E+02 -0.30814516347E+02  0.31448581669E+01  0.60827780720E+02  0.51100000000E-03 0.  1.
         23    2    1    0    0    0 -0.24717742802E+02 -0.39485856355E+01  0.55781068367E+01  0.99444855945E+02  0.96081246663E+02 0.  0.
         11    1    3    3    0    0  0.27632943502E+02  0.26865930711E+02  0.24332486698E+01  0.38617075225E+02  0.51100000000E-03 0. -1.
         22    1    1    0    0    0  0.24717742802E+02  0.39485856355E+01 -0.55781068367E+01  0.25645144055E+02  0.00000000000E+00 0.  1.
</event>
<event>
 5    1  0.1047411E-009  0.9118800E+02  0.7815553E-02  0.1125453E+00
         25   -1    0    0    0    0  0.00000000000E+00  0.00000000000E+00  0.99999998245E-14  0.12509000000E+03  0.12509000000E+03 0.  0.
        -11    1    3    3    0    0 -0.10028960855E+02 -0.11359933773E+02  0.34648992473E+02  0.37817731698E+02  0.51100000000E-03 0.  1.
         23    2    1    0    0    0 -0.14973572911E+02 -0.41036315584E+01 -0.23663642940E+02  0.96787779683E+02  0.92557326134E+02 0.  0.
         11    1    3    3    0    0 -0.49446120562E+01  0.72563022144E+01 -0.58312635413E+02  0.58970047984E+02  0.51100000000E-03 0. -1.
         22    1    1    0    0    0  0.14973572911E+02  0.41036315584E+01  0.23663642940E+02  0.28302220317E+02  0.00000000000E+00 0. -1.
</event>
<event>
 5    1  0.1047411E-009  0.9118800E+02  0.7815553E-02  0.1125453E+00
         25   -1    0    0    0    0  0.00000000000E+00  0.00000000000E+00  0.99999998245E-14  0.12509000000E+03  0.12509000000E+03 0.  0.
        -11    1    3    3    0    0 -0.53493634465E+02 -0.21835942215E-01 -0.20033448090E+02  0.57121873636E+02  0.51100000000E-03 0.  1.
         23    2    1    0    0    0 -0.17151277093E+02 -0.13190663417E+01 -0.25940685477E+02  0.93964039694E+02  0.88658983474E+02 0.  0.
         11    1    3    3    0    0  0.36342357372E+02 -0.12972303995E+01 -0.59072373874E+01  0.36842166058E+02  0.51100000000E-03 0. -1.
         22    1    1    0    0    0  0.17151277093E+02  0.13190663417E+01  0.25940685477E+02  0.31125960306E+02  0.00000000000E+00 0.  1.
</event>
<event>
 5    1  0.1047411E-009  0.9118800E+02  0.7815553E-02  0.1125453E+00
         25   -1    0    0    0    0  0.00000000000E+00  0.00000000000E+00  0.99999998245E-14  0.12509000000E+03  0.12509000000E+03 0.  0.
        -11    1    3    3    0    0  0.22867771898E+01  0.49309072532E+02  0.18765691926E+02  0.52808760425E+02  0.51100000000E-03 0.  1.
         23    2    1    0    0    0 -0.22942202010E+02  0.15956795498E+02  0.86793822163E+01  0.95827470524E+02  0.91250251922E+02 0.  0.
         11    1    3    3    0    0 -0.25228979200E+02 -0.33352277034E+02 -0.10086309710E+02  0.43018710100E+02  0.51100000000E-03 0. -1.
         22    1    1    0    0    0  0.22942202010E+02 -0.15956795498E+02 -0.86793822163E+01  0.29262529476E+02  0.00000000000E+00 0.  1.
</event>
<event>
 5    1  0.1047411E-009  0.9118800E+02  0.7815553E-02  0.1125453E+00
         25   -1    0    0    0    0  0.00000000000E+00  0.00000000000E+00  0.99999998245E-14  0.12509000000E+03  0.12509000000E+03 0.  0.
        -11    1    3    3    0    0  0.25451831295E+02  0.10832903532E+02 -0.27332400939E+02  0.38887114274E+02  0.51100000000E-03 0.  1.
         23    2    1    0    0    0 -0.21596326868E+02  0.16549607890E+02 -0.27671811434E+02  0.86282526447E+02  0.77062665192E+02 0.  0.
         11    1    3    3    0    0 -0.47048158164E+02  0.57167043585E+01 -0.33941049512E+00  0.47395412173E+02  0.51100000000E-03 0. -1.
         22    1    1    0    0    0  0.21596326868E+02 -0.16549607890E+02  0.27671811434E+02  0.38807473553E+02  0.00000000000E+00 0. -1.
</event>
<event>
 5    1  0.1047411E-009  0.9118800E+02  0.7815553E-02  0.1125453E+00
         25   -1    0    0    0    0  0.00000000000E+00  0.00000000000E+00  0.99999998245E-14  0.12509000000E+03  0.12509000000E+03 0.  0.
        -11    1    3    3    0    0 -0.21790466386E+02 -0.46253061486E+02 -0.11163784400E+02  0.52333547601E+02  0.51100000000E-03 0. -1.
         23    2    1    0    0    0  0.15649452535E+02 -0.17906011090E+02 -0.99543794110E+01  0.99309769837E+02  0.95905214237E+02 0.  0.
         11    1    3    3    0    0  0.37439918921E+02  0.28347050395E+02  0.12094049886E+01  0.46976222236E+02  0.51100000000E-03 0.  1.
         22    1    1    0    0    0 -0.15649452535E+02  0.17906011090E+02  0.99543794110E+01  0.25780230163E+02  0.00000000000E+00 0.  1.
</event>
<event>
 5    1  0.1047411E-009  0.9118800E+02  0.7815553E-02  0.1125453E+00
         25   -1    0    0    0    0  0.00000000000E+00  0.00000000000E+00  0.99999998245E-14  0.12509000000E+03  0.12509000000E+03 0.  0.
        -11    1    3    3    0    0  0.26791926910E+02  0.26788958533E+02 -0.36265815342E+02  0.52446782642E+02  0.51100000000E-03 0. -1.
         23    2    1    0    0    0  0.55531456484E+01  0.27776208755E+02  0.24933229440E+01  0.96654602013E+02  0.92377162933E+02 0.  0.
         11    1    3    3    0    0 -0.21238781262E+02  0.98725022234E+00  0.38759138286E+02  0.44207819370E+02  0.51100000000E-03 0.  1.
         22    1    1    0    0    0 -0.55531456484E+01 -0.27776208755E+02 -0.24933229440E+01  0.28435397987E+02  0.00000000000E+00 0. -1.
</event>
<event>
 5    1  0.1047411E-009  0.9118800E+02  0.7815553E-02  0.1125453E+00
         25   -1    0    0    0    0  0.00000000000E+00  0.00000000000E+00  0.99999998245E-14  0.12509000000E+03  0.12509000000E+03 0.  0.
        -11    1    3    3    0    0 -0.33607416073E+02 -0.32446018274E+02 -0.22838445627E+02  0.51998049155E+02  0.51100000000E-03 0.  1.
         23    2    1    0    0    0  0.88775853635E+01 -0.81011372931E+01 -0.20874219189E+02  0.10100321993E+03  0.98089130195E+02 0.  0.
         11    1    3    3    0    0  0.42485001437E+02  0.24344880981E+02  0.19642264381E+01  0.49005170777E+02  0.51100000000E-03 0. -1.
         22    1    1    0    0    0 -0.88775853635E+01  0.81011372931E+01  0.20874219189E+02  0.24086780069E+02  0.00000000000E+00 0. -1.
</event>
<event>
 5    1  0.1047411E-009  0.9118800E+02  0.7815553E-02  0.1125453E+00
         25   -1    0    0    0    0  0.00000000000E+00  0.00000000000E+00  0.99999998245E-14  0.12509000000E+03  0.12509000000E+03 0.  0.
        -11    1    3    3    0    0 -0.25189280611E+02  0.85161174066E+01 -0.50149491114E+02  0.56762624786E+02  0.51100000000E-03 0. -1.
         23    2    1    0    0    0 -0.48544615591E+01 -0.13764486701E+02 -0.25458850324E+02  0.95744132302E+02  0.91135936486E+02 0.  0.
         11    1    3    3    0    0  0.20334819052E+02 -0.22280604108E+02  0.24690640790E+02  0.38981507515E+02  0.51100000000E-03 0.  1.
         22    1    1    0    0    0  0.48544615591E+01  0.13764486701E+02  0.25458850324E+02  0.29345867698E+02  0.00000000000E+00 0. -1.
</event>
<event>
 5    1  0.1047411E-009  0.9118800E+02  0.7815553E-02  0.1125453E+00
         25   -1    0    0    0    0  0.00000000000E+00  0.00000000000E+00  0.99999998245E-14  0.12509000000E+03  0.12509000000E+03 0.  0.
        -11    1    3    3    0    0  0.70016545589E+00 -0.29714819190E+02 -0.31657417099E+01  0.29891179836E+02  0.51100000000E-03 0.  1.
         23    2    1    0    0    0  0.22555421501E+01  0.32661448554E+02 -0.17858011929E+01  0.92302094029E+02  0.86282268075E+02 0.  0.
         11    1    3    3    0    0  0.15553766942E+01  0.62376267744E+02  0.13799405170E+01  0.62410914193E+02  0.51100000000E-03 0. -1.
         22    1    1    0    0    0 -0.22555421501E+01 -0.32661448554E+02  0.17858011929E+01  0.32787905971E+02  0.00000000000E+00 0. -1.
</event>
<event>
 5    1  0.1047411E-009  0.9118800E+02  0.7815553E-02  0.1125453E+00
         25   -1    0    0    0    0  0.00000000000E+00  0.00000000000E+00  0.99999998245E-14  0.12509000000E+03  0.12509000000E+03 0.  0.
        -11    1    3    3    0    0 -0.16342827959E+02  0.33036985759E+02 -0.40098408966E+02  0.54464785464E+02  0.51100000000E-03 0. -1.
         23    2    1    0    0    0 -0.13918137125E+02  0.25900471273E+02  0.42554158814E+00  0.95683707496E+02  0.91052961738E+02 0.  0.
         11    1    3    3    0    0  0.24246908335E+01 -0.71365144865E+01  0.40523950554E+02  0.41218922032E+02  0.51100000000E-03 0.  1.
         22    1    1    0    0    0  0.13918137125E+02 -0.25900471273E+02 -0.42554158814E+00  0.29406292504E+02  0.00000000000E+00 0. -1.
</event>
<event>
 5    1  0.1047411E-009  0.9118800E+02  0.7815553E-02  0.1125453E+00
         25   -1    0    0    0    0  0.00000000000E+00  0.00000000000E+00  0.99999998245E-14  0.12509000000E+03  0.12509000000E+03 0.  0.
        -11    1    3    3    0    0 -0.33264909443E+02  0.39748147335E+02 -0.21800247702E+02  0.56229175851E+02  0.51100000000E-03 0.  1.
         23    2    1    0    0    0  0.16815805013E+01  0.23495260189E+02 -0.18918829963E+02  0.94877798964E+02  0.89938977339E+02 0.  0.
         11    1    3    3    0    0  0.34946489944E+02 -0.16252887147E+02  0.28814177390E+01  0.38648623112E+02  0.51100000000E-03 0. -1.
         22    1    1    0    0    0 -0.16815805013E+01 -0.23495260189E+02  0.18918829963E+02  0.30212201036E+02  0.00000000000E+00 0.  1.
</event>
<event>
 5    1  0.1047411E-009  0.9118800E+02  0.7815553E-02  0.1125453E+00
         25   -1    0    0    0    0  0.00000000000E+00  0.00000000000E+00  0.99999998245E-14  0.12509000000E+03  0.12509000000E+03 0.  0.
        -11    1    3    3    0    0 -0.24322606424E+01 -0.18576049838E+02 -0.28920591595E+02  0.34458469755E+02  0.51100000000E-03 0.  1.
         23    2    1    0    0    0  0.10150912450E+02  0.23331243580E+02  0.14251271903E+02  0.95926894860E+02  0.91386445691E+02 0.  0.
         11    1    3    3    0    0  0.12583173092E+02  0.41907293418E+02  0.43171863498E+02  0.61468425105E+02  0.51100000000E-03 0. -1.
         22    1    1    0    0    0 -0.10150912450E+02 -0.23331243580E+02 -0.14251271903E+02  0.29163105140E+02  0.00000000000E+00 0. -1.
</event>
<event>
 5    1  0.1047411E-009  0.9118800E+02  0.7815553E-02  0.1125453E+00
         25   -1    0    0    0    0  0.00000000000E+00  0.00000000000E+00  0.99999998245E-14  0.12509000000E+03  0.12509000000E+03 0.  0.
        -11    1    3    3    0    0  0.15274269354E+02 -0.34662427887E+02 -0.48862404419E+02  0.61824928445E+02  0.51100000000E-03 0.  1.
         23    2    1    0    0    0  0.76466925531E+00 -0.18296727873E+02 -0.21953194113E+02  0.96501580986E+02  0.92169720793E+02 0.  0.
         11    1    3    3    0    0 -0.14509600099E+02  0.16365700014E+02  0.26909210305E+02  0.34676652541E+02  0.51100000000E-03 0. -1.
         22    1    1    0    0    0 -0.76466925531E+00  0.18296727873E+02  0.21953194113E+02  0.28588419014E+02  0.00000000000E+00 0.  1.
</event>
<event>
 5    1  0.1047411E-009  0.9118800E+02  0.7815553E-02  0.1125453E+00
         25   -1    0    0    0    0  0.00000000000E+00  0.00000000000E+00  0.99999998245E-14  0.12509000000E+03  0.12509000000E+03 0.  0.
        -11    1    3    3    0    0  0.55280802552E+02  0.17244869582E+02 -0.21862094491E+02  0.61897526877E+02  0.51100000000E-03 0. -1.
         23    2    1    0    0    0  0.27782427036E+02  0.21699606342E+01 -0.88248489257E+01  0.95859024311E+02  0.91293497042E+02 0.  0.
         11    1    3    3    0    0 -0.27498375516E+02 -0.15074908948E+02  0.13037245565E+02  0.33961497434E+02  0.51100000000E-03 0.  1.
         22    1    1    0    0    0 -0.27782427036E+02 -0.21699606342E+01  0.88248489257E+01  0.29230975689E+02  0.00000000000E+00 0. -1.
</event>
<event>
 5    1  0.1047411E-009  0.9118800E+02  0.7815553E-02  0.1125453E+00
         25   -1    0    0    0    0  0.00000000000E+00  0.00000000000E+00  0.99999998245E-14  0.12509000000E+03  0.12509000000E+03 0.  0.
        -11    1    3    3    0    0  0.11705706705E+02 -0.43300439724E+02 -0.30361049250E+02  0.54164055993E+02  0.51100000000E-03 0. -1.
         23    2    1    0    0    0  0.21193247919E+02 -0.40103758936E+01 -0.19489174069E+02  0.96020002098E+02  0.91513802374E+02 0.  0.
         11    1    3    3    0    0  0.94875412131E+01  0.39290063831E+02  0.10871875182E+02  0.41855946105E+02  0.51100000000E-03 0.  1.
         22    1    1    0    0    0 -0.21193247919E+02  0.40103758936E+01  0.19489174069E+02  0.29069997902E+02  0.00000000000E+00 0. -1.
</event>
<event>
 5    1  0.1047411E-009  0.9118800E+02  0.7815553E-02  0.1125453E+00
         25   -1    0    0    0    0  0.00000000000E+00  0.00000000000E+00  0.99999998245E-14  0.12509000000E+03  0.12509000000E+03 0.  0.
        -11    1    3    3    0    0  0.39182586399E+02 -0.13177308626E+02 -0.20029872024E+02  0.45935958824E+02  0.51100000000E-03 0. -1.
         23    2    1    0    0    0  0.13221683282E+01 -0.26519309597E+02  0.10672012469E+02  0.96473330719E+02  0.92131372394E+02 0.  0.
         11    1    3    3    0    0 -0.37860418070E+02 -0.13342000971E+02  0.30701884493E+02  0.50537371895E+02  0.51100000000E-03 0.  1.
         22    1    1    0    0    0 -0.13221683282E+01  0.26519309597E+02 -0.10672012469E+02  0.28616669281E+02  0.00000000000E+00 0. -1.
</event>
<event>
 5    1  0.1047411E-009  0.9118800E+02  0.7815553E-02  0.1125453E+00
         25   -1    0    0    0    0  0.00000000000E+00  0.00000000000E+00  0.99999998245E-14  0.12509000000E+03  0.12509000000E+03 0.  0.
        -11    1    3    3    0    0 -0.10409237268E+02 -0.52654191116E+02  0.16728462729E+02  0.56219725436E+02  0.51100000000E-03 0.  1.
         23    2    1    0    0    0  0.43370047004E+01 -0.32812442889E+02  0.26387154191E+02  0.82760956490E+02  0.71117002150E+02 0.  0.
         11    1    3    3    0    0  0.14746241968E+02  0.19841748226E+02  0.96586914624E+01  0.26541231055E+02  0.51100000000E-03 0. -1.
         22    1    1    0    0    0 -0.43370047004E+01  0.32812442889E+02 -0.26387154191E+02  0.42329043510E+02  0.00000000000E+00 0.  1.
</event>
<event>
 5    1  0.1047411E-009  0.9118800E+02  0.7815553E-02  0.1125453E+00
         25   -1    0    0    0    0  0.00000000000E+00  0.00000000000E+00  0.99999998245E-14  0.12509000000E+03  0.12509000000E+03 0.  0.
        -11    1    3    3    0    0 -0.41067377123E+02 -0.54767598520E+01 -0.36445858442E+02  0.55179932585E+02  0.51100000000E-03 0.  1.
         23    2    1    0    0    0 -0.17217101279E+02 -0.20557613629E+02 -0.43364908937E+01  0.97926620095E+02  0.94083865330E+02 0.  0.
         11    1    3    3    0    0  0.23850275844E+02 -0.15080853777E+02  0.32109367548E+02  0.42746687510E+02  0.51100000000E-03 0. -1.
         22    1    1    0    0    0  0.17217101279E+02  0.20557613629E+02  0.43364908937E+01  0.27163379905E+02  0.00000000000E+00 0.  1.
</event>
<event>
 5    1  0.1047411E-009  0.9118800E+02  0.7815553E-02  0.1125453E+00
         25   -1    0    0    0    0  0.00000000000E+00  0.00000000000E+00  0.99999998245E-14  0.12509000000E+03  0.12509000000E+03 0.  0.
        -11    1    3    3    0    0 -0.19159389112E+02 -0.34918061921E+02 -0.31360410676E+02  0.50693476873E+02  0.51100000000E-03 0. -1.
         23    2    1    0    0    0 -0.22423419498E+02 -0.16737586109E+02  0.95040497684E+01  0.95538629596E+02  0.90853432805E+02 0.  0.
         11    1    3    3    0    0 -0.32640303853E+01  0.18180475811E+02  0.40864460444E+02  0.44845152723E+02  0.51100000000E-03 0.  1.
         22    1    1    0    0    0  0.22423419498E+02  0.16737586109E+02 -0.95040497684E+01  0.29551370404E+02  0.00000000000E+00 0. -1.
</event>
<event>
 5    1  0.1047411E-009  0.9118800E+02  0.7815553E-02  0.1125453E+00
         25   -1    0    0    0    0  0.00000000000E+00  0.00000000000E+00  0.99999998245E-14  0.12509000000E+03  0.12509000000E+03 0.  0.
        -11    1    3    3    0    0 -0.22629347578E+02  0.33404383103E+02  0.27654885400E+02  0.48915568779E+02  0.51100000000E-03 0.  1.
         23    2    1    0    0    0  0.18843097217E+02  0.16313554085E+02  0.16695884007E+02  0.95090884973E+02  0.90234857470E+02 0.  0.
         11    1    3    3    0    0  0.41472444795E+02 -0.17090829017E+02 -0.10959001393E+02  0.46175316194E+02  0.51100000000E-03 0. -1.
         22    1    1    0    0    0 -0.18843097217E+02 -0.16313554085E+02 -0.16695884007E+02  0.29999115027E+02  0.00000000000E+00 0.  1.
</event>
<event>
 5    1  0.1047411E-009  0.9118800E+02  0.7815553E-02  0.1125453E+00
         25   -1    0    0    0    0  0.00000000000E+00  0.00000000000E+00  0.99999998245E-14  0.12509000000E+03  0.12509000000E+03 0.  0.
        -11    1    3    3    0    0 -0.78287952802E+01  0.40858405399E+02  0.27223254498E+02  0.49717249652E+02  0.51100000000E-03 0. -1.
         23    2    1    0    0    0 -0.19428845017E+02  0.17618570159E+02 -0.11586659512E+02  0.96416934036E+02  0.92054768790E+02 0.  0.
         11    1    3    3    0    0 -0.11600049737E+02 -0.23239835239E+02 -0.38809914009E+02  0.46699684384E+02  0.51100000000E-03 0.  1.
         22    1    1    0    0    0  0.19428845017E+02 -0.17618570159E+02  0.11586659512E+02  0.28673065964E+02  0.00000000000E+00 0.  1.
</event>
<event>
 5    1  0.1047411E-009  0.9118800E+02  0.7815553E-02  0.1125453E+00
         25   -1    0    0    0    0  0.00000000000E+00  0.00000000000E+00  0.99999998245E-14  0.12509000000E+03  0.12509000000E+03 0.  0.
        -11    1    3    3    0    0  0.14643499534E+02 -0.49763022959E+01  0.10365437232E+00  0.15466299093E+02  0.51100000000E-03 0.  1.
         23    2    1    0    0    0 -0.13899463189E+02  0.47615354386E+02  0.31997033917E+01  0.75384314691E+02  0.56675742161E+02 0.  0.
         11    1    3    3    0    0 -0.28542962722E+02  0.52591656682E+02  0.30960490194E+01  0.59918015599E+02  0.51100000000E-03 0. -1.
         22    1    1    0    0    0  0.13899463189E+02 -0.47615354386E+02 -0.31997033917E+01  0.49705685309E+02  0.00000000000E+00 0. -1.
</event>
<event>
 5    1  0.1047411E-009  0.9118800E+02  0.7815553E-02  0.1125453E+00
         25   -1    0    0    0    0  0.00000000000E+00  0.00000000000E+00  0.99999998245E-14  0.12509000000E+03  0.12509000000E+03 0.  0.
        -11    1    3    3    0    0 -0.34407970280E+02  0.29381614706E+01  0.17359577286E+02  0.38650952581E+02  0.51100000000E-03 0. -1.
         23    2    1    0    0    0  0.89774954769E+01 -0.27688743887E+02 -0.36336548212E+01  0.95756309294E+02  0.91152648667E+02 0.  0.
         11    1    3    3    0    0  0.43385465756E+02 -0.30626905358E+02 -0.20993232107E+02  0.57105356713E+02  0.51100000000E-03 0.  1.
         22    1    1    0    0    0 -0.89774954769E+01  0.27688743887E+02  0.36336548212E+01  0.29333690706E+02  0.00000000000E+00 0.  1.
</event>
<event>
 5    1  0.1047411E-009  0.9118800E+02  0.7815553E-02  0.1125453E+00
         25   -1    0    0    0    0  0.00000000000E+00  0.00000000000E+00  0.99999998245E-14  0.12509000000E+03  0.12509000000E+03 0.  0.
        -11    1    3    3    0    0  0.15686066515E+02 -0.44916458934E+01 -0.48665142832E+02  0.51327611406E+02  0.51100000000E-03 0.  1.
         23    2    1    0    0    0  0.31981717981E+02 -0.10995745353E+02 -0.17698135087E+02  0.86919845607E+02  0.78090325098E+02 0.  0.
         11    1    3    3    0    0  0.16295651466E+02 -0.65040994596E+01  0.30967007745E+02  0.35592234201E+02  0.51100000000E-03 0. -1.
         22    1    1    0    0    0 -0.31981717981E+02  0.10995745353E+02  0.17698135087E+02  0.38170154393E+02  0.00000000000E+00 0.  1.
</event>
<event>
 5    1  0.1047411E-009  0.9118800E+02  0.7815553E-02  0.1125453E+00
         25   -1    0    0    0    0  0.00000000000E+00  0.00000000000E+00  0.99999998245E-14  0.12509000000E+03  0.12509000000E+03 0.  0.
        -11    1    3    3    0    0  0.31363176173E+02 -0.75727328120E+01  0.17019338249E+02  0.36478116407E+02  0.51100000000E-03 0. -1.
         23    2    1    0    0    0 -0.26076764422E+02 -0.12196350602E+02  0.10392298430E+02  0.94483652989E+02  0.89389105627E+02 0.  0.
         11    1    3    3    0    0 -0.57439940595E+02 -0.46236177902E+01 -0.66270398196E+01  0.58005536581E+02  0.51100000000E-03 0.  1.
         22    1    1    0    0    0  0.26076764422E+02  0.12196350602E+02 -0.10392298430E+02  0.30606347011E+02  0.00000000000E+00 0.  1.
</event>
<event>
 5    1  0.1047411E-009  0.9118800E+02  0.7815553E-02  0.1125453E+00
         25   -1    0    0    0    0  0.00000000000E+00  0.00000000000E+00  0.99999998245E-14  0.12509000000E+03  0.12509000000E+03 0.  0.
        -11    1    3    3    0    0  0.34820695149E+02  0.48635374020E+01  0.12120665729E+02  0.37189317615E+02  0.51100000000E-03 0.  1.
         23    2    1    0    0    0 -0.19729896755E+02  0.21817907259E+02 -0.40665443907E+00  0.95671378840E+02  0.91036022860E+02 0.  0.
         11    1    3    3    0    0 -0.54550591903E+02  0.16954369857E+02 -0.12527320169E+02  0.58482061225E+02  0.51100000000E-03 0. -1.
         22    1    1    0    0    0  0.19729896755E+02 -0.21817907259E+02  0.40665443907E+00  0.29418621160E+02  0.00000000000E+00 0. -1.
</event>
<event>
 5    1  0.1047411E-009  0.9118800E+02  0.7815553E-02  0.1125453E+00
         25   -1    0    0    0    0  0.00000000000E+00  0.00000000000E+00  0.99999998245E-14  0.12509000000E+03  0.12509000000E+03 0.  0.
        -11    1    3    3    0    0 -0.21329728650E+02  0.36636238110E+02 -0.36715385355E+02  0.56082000581E+02  0.51100000000E-03 0.  1.
         23    2    1    0    0    0 -0.26235043399E+02  0.14347859302E+02 -0.56025492176E+01  0.94667522678E+02  0.89646041316E+02 0.  0.
         11    1    3    3    0    0 -0.49053147486E+01 -0.22288378808E+02  0.31112836138E+02  0.38585522097E+02  0.51100000000E-03 0. -1.
         22    1    1    0    0    0  0.26235043399E+02 -0.14347859302E+02  0.56025492176E+01  0.30422477322E+02  0.00000000000E+00 0.  1.
</event>
<event>
 5    1  0.1047411E-009  0.9118800E+02  0.7815553E-02  0.1125453E+00
         25   -1    0    0    0    0  0.00000000000E+00  0.00000000000E+00  0.99999998245E-14  0.12509000000E+03  0.12509000000E+03 0.  0.
        -11    1    3    3    0    0  0.29967962606E+02 -0.13052263085E+01  0.40659311672E+02  0.50526844591E+02  0.51100000000E-03 0.  1.
         23    2    1    0    0    0 -0.90765190185E+01  0.14249503032E+02  0.24006440901E+02  0.95734579055E+02  0.91122823090E+02 0.  0.
         11    1    3    3    0    0 -0.39044481624E+02  0.15554729341E+02 -0.16652870771E+02  0.45207734463E+02  0.51100000000E-03 0. -1.
         22    1    1    0    0    0  0.90765190185E+01 -0.14249503032E+02 -0.24006440901E+02  0.29355420945E+02  0.00000000000E+00 0.  1.
</event>
<event>
 5    1  0.1047411E-009  0.9118800E+02  0.7815553E-02  0.1125453E+00
         25   -1    0    0    0    0  0.00000000000E+00  0.00000000000E+00  0.99999998245E-14  0.12509000000E+03  0.12509000000E+03 0.  0.
        -11    1    3    3    0    0 -0.37244216333E+02 -0.18941647338E+02  0.38227526814E+01  0.41958683159E+02  0.51100000000E-03 0. -1.
         23    2    1    0    0    0 -0.69594664011E+01  0.19071888820E+02 -0.20440208371E+02  0.96280743953E+02  0.91869518461E+02 0.  0.
         11    1    3    3    0    0  0.30284749932E+02  0.38013536157E+02 -0.24262961052E+02  0.54322060794E+02  0.51100000000E-03 0.  1.
         22    1    1    0    0    0  0.69594664011E+01 -0.19071888820E+02  0.20440208371E+02  0.28809256047E+02  0.00000000000E+00 0.  1.
</event>
<event>
 5    1  0.1047411E-009  0.9118800E+02  0.7815553E-02  0.1125453E+00
         25   -1    0    0    0    0  0.00000000000E+00  0.00000000000E+00  0.99999998245E-14  0.12509000000E+03  0.12509000000E+03 0.  0.
        -11    1    3    3    0    0 -0.41481296949E+00  0.60257946995E+01  0.35986300834E+02  0.36489671409E+02  0.51100000000E-03 0.  1.
         23    2    1    0    0    0 -0.12869231303E+02 -0.22254171362E+02 -0.14420555145E+02  0.95614286811E+02  0.90957540503E+02 0.  0.
         11    1    3    3    0    0 -0.12454418334E+02 -0.28279966061E+02 -0.50406855979E+02  0.59124615402E+02  0.51100000000E-03 0. -1.
         22    1    1    0    0    0  0.12869231303E+02  0.22254171362E+02  0.14420555145E+02  0.29475713189E+02  0.00000000000E+00 0. -1.
</event>
<event>
 5    1  0.1047411E-009  0.9118800E+02  0.7815553E-02  0.1125453E+00
         25   -1    0    0    0    0  0.00000000000E+00  0.00000000000E+00  0.99999998245E-14  0.12509000000E+03  0.12509000000E+03 0.  0.
        -11    1    3    3    0    0 -0.55445375139E+01  0.56910253215E+01 -0.55395940284E+02  0.55962843617E+02  0.51100000000E-03 0.  1.
         23    2    1    0    0    0  0.73801173225E+01 -0.15127489697E+02 -0.23457241109E+02  0.96218747228E+02  0.91785064588E+02 0.  0.
         11    1    3    3    0    0  0.12924654836E+02 -0.20818515018E+02  0.31938699176E+02  0.40255903611E+02  0.51100000000E-03 0. -1.
         22    1    1    0    0    0 -0.73801173225E+01  0.15127489697E+02  0.23457241109E+02  0.28871252772E+02  0.00000000000E+00 0.  1.
</event>
<event>
 5    1  0.1047411E-009  0.9118800E+02  0.7815553E-02  0.1125453E+00
         25   -1    0    0    0    0  0.00000000000E+00  0.00000000000E+00  0.99999998245E-14  0.12509000000E+03  0.12509000000E+03 0.  0.
        -11    1    3    3    0    0 -0.53127616949E+02 -0.11010634780E+02  0.20222789760E+02  0.57902840922E+02  0.51100000000E-03 0.  1.
         23    2    1    0    0    0 -0.25707929372E+02  0.10993650776E+02  0.32524948076E+01  0.96941523798E+02  0.92764876563E+02 0.  0.
         11    1    3    3    0    0  0.27419687577E+02  0.22004285557E+02 -0.16970294952E+02  0.39038682876E+02  0.51100000000E-03 0. -1.
         22    1    1    0    0    0  0.25707929372E+02 -0.10993650776E+02 -0.32524948076E+01  0.28148476202E+02  0.00000000000E+00 0.  1.
</event>
<event>
 5    1  0.1047411E-009  0.9118800E+02  0.7815553E-02  0.1125453E+00
         25   -1    0    0    0    0  0.00000000000E+00  0.00000000000E+00  0.99999998245E-14  0.12509000000E+03  0.12509000000E+03 0.  0.
        -11    1    3    3    0    0 -0.14118739022E+02 -0.36577765157E+01 -0.35423310389E+02  0.38308341648E+02  0.51100000000E-03 0.  1.
         23    2    1    0    0    0  0.12381735815E+02  0.23005513667E+02  0.98628340051E+01  0.97164446550E+02  0.93064994160E+02 0.  0.
         11    1    3    3    0    0  0.26500474837E+02  0.26663290183E+02  0.45286144394E+02  0.58856104903E+02  0.51100000000E-03 0. -1.
         22    1    1    0    0    0 -0.12381735815E+02 -0.23005513667E+02 -0.98628340051E+01  0.27925553450E+02  0.00000000000E+00 0. -1.
</event>
<event>
 5    1  0.1047411E-009  0.9118800E+02  0.7815553E-02  0.1125453E+00
         25   -1    0    0    0    0  0.00000000000E+00  0.00000000000E+00  0.99999998245E-14  0.12509000000E+03  0.12509000000E+03 0.  0.
        -11    1    3    3    0    0  0.15546809022E+02  0.14556349444E+02 -0.43726190104E+02  0.48637128628E+02  0.51100000000E-03 0. -1.
         23    2    1    0    0    0  0.74032577068E+01 -0.22318466849E+02 -0.90873977591E+01  0.99880815459E+02  0.96647164012E+02 0.  0.
         11    1    3    3    0    0 -0.81435513150E+01 -0.36874816293E+02  0.34638792345E+02  0.51243686831E+02  0.51100000000E-03 0.  1.
         22    1    1    0    0    0 -0.74032577068E+01  0.22318466849E+02  0.90873977591E+01  0.25209184541E+02  0.00000000000E+00 0. -1.
</event>
<event>
 5    1  0.1047411E-009  0.9118800E+02  0.7815553E-02  0.1125453E+00
         25   -1    0    0    0    0  0.00000000000E+00  0.00000000000E+00  0.99999998245E-14  0.12509000000E+03  0.12509000000E+03 0.  0.
        -11    1    3    3    0    0 -0.28111232568E+02 -0.51717988042E+02 -0.89373417267E+01  0.59538792069E+02  0.51100000000E-03 0.  1.
         23    2    1    0    0    0 -0.14069870924E+01 -0.29535648687E+02  0.50838231704E+00  0.95516488058E+02  0.90822942489E+02 0.  0.
         11    1    3    3    0    0  0.26704245476E+02  0.22182339355E+02  0.94457240437E+01  0.35977695989E+02  0.51100000000E-03 0. -1.
         22    1    1    0    0    0  0.14069870924E+01  0.29535648687E+02 -0.50838231704E+00  0.29573511942E+02  0.00000000000E+00 0.  1.
</event>
<event>
 5    1  0.1047411E-009  0.9118800E+02  0.7815553E-02  0.1125453E+00
         25   -1    0    0    0    0  0.00000000000E+00  0.00000000000E+00  0.99999998245E-14  0.12509000000E+03  0.12509000000E+03 0.  0.
        -11    1    3    3    0    0  0.34618347989E+02 -0.11821205228E+02  0.54807915778E+01  0.36989322610E+02  0.51100000000E-03 0.  1.
         23    2    1    0    0    0 -0.12444063525E+02  0.35415544162E+01 -0.26272893135E+02  0.95804129032E+02  0.91218248729E+02 0.  0.
         11    1    3    3    0    0 -0.47062411514E+02  0.15362759644E+02 -0.31753684712E+02  0.58814806422E+02  0.51100000000E-03 0. -1.
         22    1    1    0    0    0  0.12444063525E+02 -0.35415544162E+01  0.26272893135E+02  0.29285870968E+02  0.00000000000E+00 0. -1.
</event>
<event>
 5    1  0.1047411E-009  0.9118800E+02  0.7815553E-02  0.1125453E+00
         25   -1    0    0    0    0  0.00000000000E+00  0.00000000000E+00  0.99999998245E-14  0.12509000000E+03  0.12509000000E+03 0.  0.
        -11    1    3    3    0    0  0.37397367549E+02 -0.55561950562E+01  0.37983244038E+02  0.53592548279E+02  0.51100000000E-03 0.  1.
         23    2    1    0    0    0  0.14987086894E+02  0.20593124394E+02  0.10983189224E+02  0.97353381760E+02  0.93318599158E+02 0.  0.
         11    1    3    3    0    0 -0.22410280656E+02  0.26149319450E+02 -0.27000054814E+02  0.43760833481E+02  0.51100000000E-03 0. -1.
         22    1    1    0    0    0 -0.14987086894E+02 -0.20593124394E+02 -0.10983189224E+02  0.27736618240E+02  0.00000000000E+00 0.  1.
</event>
<event>
 5    1  0.1047411E-009  0.9118800E+02  0.7815553E-02  0.1125453E+00
         25   -1    0    0    0    0  0.00000000000E+00  0.00000000000E+00  0.99999998245E-14  0.12509000000E+03  0.12509000000E+03 0.  0.
        -11    1    3    3    0    0  0.26035011865E+02  0.15866892925E+02  0.40324960332E+02  0.50553759108E+02  0.51100000000E-03 0.  1.
         23    2    1    0    0    0 -0.91952060233E+01  0.24515095108E+02  0.13799706447E+02  0.95493148816E+02  0.90790791773E+02 0.  0.
         11    1    3    3    0    0 -0.35230217888E+02  0.86482021834E+01 -0.26525253885E+02  0.44939389708E+02  0.51100000000E-03 0. -1.
         22    1    1    0    0    0  0.91952060233E+01 -0.24515095108E+02 -0.13799706447E+02  0.29596851184E+02  0.00000000000E+00 0. -1.
</event>
<event>
 5    1  0.1047411E-009  0.9118800E+02  0.7815553E-02  0.1125453E+00
         25   -1    0    0    0    0  0.00000000000E+00  0.00000000000E+00  0.99999998245E-14  0.12509000000E+03  0.12509000000E+03 0.  0.
        -11    1    3    3    0    0  0.51614358570E+00 -0.30164894717E+02 -0.20905765130E+02  0.36704744835E+02  0.51100000000E-03 0.  1.
         23    2    1    0    0    0  0.35957588445E+01  0.27425738336E+02 -0.11475624296E+02  0.95143538474E+02  0.90307820012E+02 0.  0.
         11    1    3    3    0    0  0.30796152588E+01  0.57590633053E+02  0.94301408335E+01  0.58438793639E+02  0.51100000000E-03 0. -1.
         22    1    1    0    0    0 -0.35957588445E+01 -0.27425738336E+02  0.11475624296E+02  0.29946461526E+02  0.00000000000E+00 0. -1.
</event>
<event>
 5    1  0.1047411E-009  0.9118800E+02  0.7815553E-02  0.1125453E+00
         25   -1    0    0    0    0  0.00000000000E+00  0.00000000000E+00  0.99999998245E-14  0.12509000000E+03  0.12509000000E+03 0.  0.
        -11    1    3    3    0    0 -0.98972525430E+01  0.90866748058E+01 -0.31249598566E+02  0.34015594626E+02  0.51100000000E-03 0.  1.
         23    2    1    0    0    0  0.24031538369E+02 -0.36906228071E+01  0.17762443006E+02  0.94979538120E+02  0.90080368266E+02 0.  0.
         11    1    3    3    0    0  0.33928790912E+02 -0.12777297613E+02  0.49012041572E+02  0.60963943494E+02  0.51100000000E-03 0. -1.
         22    1    1    0    0    0 -0.24031538369E+02  0.36906228071E+01 -0.17762443006E+02  0.30110461880E+02  0.00000000000E+00 0. -1.
</event>
<event>
 5    1  0.1047411E-009  0.9118800E+02  0.7815553E-02  0.1125453E+00
         25   -1    0    0    0    0  0.00000000000E+00  0.00000000000E+00  0.99999998245E-14  0.12509000000E+03  0.12509000000E+03 0.  0.
        -11    1    3    3    0    0 -0.17418552947E+02 -0.48461731592E+02  0.26687208147E+02  0.58001314594E+02  0.51100000000E-03 0.  1.
         23    2    1    0    0    0 -0.16211207151E+02 -0.11129527791E+02  0.21898065653E+02  0.95658810668E+02  0.91018751655E+02 0.  0.
         11    1    3    3    0    0  0.12073457964E+01  0.37332203801E+02 -0.47891424938E+01  0.37657496074E+02  0.51100000000E-03 0. -1.
         22    1    1    0    0    0  0.16211207151E+02  0.11129527791E+02 -0.21898065653E+02  0.29431189332E+02  0.00000000000E+00 0.  1.
</event>
<event>
 5    1  0.1047411E-009  0.9118800E+02  0.7815553E-02  0.1125453E+00
         25   -1    0    0    0    0  0.00000000000E+00  0.00000000000E+00  0.99999998245E-14  0.12509000000E+03  0.12509000000E+03 0.  0.
        -11    1    3    3    0    0  0.25337381515E+02 -0.18677606117E+02  0.12193926923E+02  0.33756891539E+02  0.51100000000E-03 0. -1.
         23    2    1    0    0    0 -0.80085623358E+01  0.26919393217E+02 -0.11140279455E+02  0.94875820743E+02  0.89936225924E+02 0.  0.
         11    1    3    3    0    0 -0.33345943851E+02  0.45596999333E+02 -0.23334206377E+02  0.61118929204E+02  0.51100000000E-03 0.  1.
         22    1    1    0    0    0  0.80085623358E+01 -0.26919393217E+02  0.11140279455E+02  0.30214179257E+02  0.00000000000E+00 0.  1.
</event>
<event>
 4    1  0.1047411E-009  0.9118800E+02  0.7815553E-02  0.1125453E+00
         25   -1    0    0    0    0  0.00000000000E+00  0.00000000000E+00  0.99999998245E-14  0.12509000000E+03  0.12509000000E+03 0.  0.
        -11    1    1    0    0    0 -0.67248055116E+01  0.81708720764E+01 -0.53638507719E+02  0.54672439769E+02  0.51100000000E-03 0.  1.
         11    1    1    0    0    0  0.81354267522E+01  0.90388600637E+01 -0.18532957005E+01  0.12301254607E+02  0.51100000000E-03 0. -1.
         22    1    1    0    0    0 -0.14106212406E+01 -0.17209732140E+02  0.55491803420E+02  0.58116305624E+02  0.00000000000E+00 0.  1.
</event>
<event>
 4    1  0.1047411E-009  0.9118800E+02  0.7815553E-02  0.1125453E+00
         25   -1    0    0    0    0  0.00000000000E+00  0.00000000000E+00  0.99999998245E-14  0.12509000000E+03  0.12509000000E+03 0.  0.
        -11    1    1    0    0    0 -0.10344136181E+02 -0.65896981187E+01 -0.64638397703E+01  0.13863855866E+02  0.51100000000E-03 0. -1.
         11    1    1    0    0    0 -0.48436835769E+02 -0.65730721987E+01  0.13152093054E+02  0.50619264015E+02  0.51100000000E-03 0.  1.
         22    1    1    0    0    0  0.58780971950E+02  0.13162770317E+02 -0.66882532836E+01  0.60606880119E+02  0.00000000000E+00 0.  1.
</event>
<event>
 5    1  0.1047411E-009  0.9118800E+02  0.7815553E-02  0.1125453E+00
         25   -1    0    0    0    0  0.00000000000E+00  0.00000000000E+00  0.99999998245E-14  0.12509000000E+03  0.12509000000E+03 0.  0.
        -11    1    3    3    0    0  0.14721151488E+02 -0.25853165056E+02  0.23919231713E+01  0.29846603513E+02  0.51100000000E-03 0.  1.
         23    2    1    0    0    0 -0.12885002653E+02  0.30143021253E+02  0.67119291904E+00  0.92301655675E+02  0.86281632557E+02 0.  0.
         11    1    3    3    0    0 -0.27606154142E+02  0.55996186309E+02 -0.17207302523E+01  0.62455052162E+02  0.51100000000E-03 0. -1.
         22    1    1    0    0    0  0.12885002653E+02 -0.30143021253E+02 -0.67119291904E+00  0.32788344325E+02  0.00000000000E+00 0. -1.
</event>
<event>
 5    1  0.1047411E-009  0.9118800E+02  0.7815553E-02  0.1125453E+00
         25   -1    0    0    0    0  0.00000000000E+00  0.00000000000E+00  0.99999998245E-14  0.12509000000E+03  0.12509000000E+03 0.  0.
        -11    1    3    3    0    0  0.16079939364E+02 -0.57454354915E+02 -0.12238120506E+02  0.60904342558E+02  0.51100000000E-03 0.  1.
         23    2    1    0    0    0 -0.50864365288E+00 -0.26394534150E+02 -0.11935674540E+02  0.96117763667E+02  0.91647335009E+02 0.  0.
         11    1    3    3    0    0 -0.16588583017E+02  0.31059820765E+02  0.30244596533E+00  0.35213421110E+02  0.51100000000E-03 0. -1.
         22    1    1    0    0    0  0.50864365288E+00  0.26394534150E+02  0.11935674540E+02  0.28972236333E+02  0.00000000000E+00 0.  1.
</event>
<event>
 5    1  0.1047411E-009  0.9118800E+02  0.7815553E-02  0.1125453E+00
         25   -1    0    0    0    0  0.00000000000E+00  0.00000000000E+00  0.99999998245E-14  0.12509000000E+03  0.12509000000E+03 0.  0.
        -11    1    3    3    0    0  0.23352132553E+02  0.56408292384E+01 -0.39473659328E+02  0.46209423609E+02  0.51100000000E-03 0. -1.
         23    2    1    0    0    0  0.64488337951E+01 -0.27261543850E+02 -0.52802406696E+01  0.96582804909E+02  0.92279889641E+02 0.  0.
         11    1    3    3    0    0 -0.16903298758E+02 -0.32902373089E+02  0.34193418659E+02  0.50373381300E+02  0.51100000000E-03 0.  1.
         22    1    1    0    0    0 -0.64488337951E+01  0.27261543850E+02  0.52802406696E+01  0.28507195091E+02  0.00000000000E+00 0.  1.
</event>
<event>
 5    1  0.1047411E-009  0.9118800E+02  0.7815553E-02  0.1125453E+00
         25   -1    0    0    0    0  0.00000000000E+00  0.00000000000E+00  0.99999998245E-14  0.12509000000E+03  0.12509000000E+03 0.  0.
        -11    1    3    3    0    0  0.85730538636E+01  0.10985566111E+02  0.58310082477E+02  0.59952027772E+02  0.51100000000E-03 0.  1.
         23    2    1    0    0    0  0.16772246637E+02  0.78905756341E+01  0.27944791795E+02  0.91556720567E+02  0.85194790049E+02 0.  0.
         11    1    3    3    0    0  0.81991927731E+01 -0.30949904770E+01 -0.30365290682E+02  0.31604692794E+02  0.51100000000E-03 0. -1.
         22    1    1    0    0    0 -0.16772246637E+02 -0.78905756341E+01 -0.27944791795E+02  0.33533279433E+02  0.00000000000E+00 0.  1.
</event>
<event>
 5    1  0.1047411E-009  0.9118800E+02  0.7815553E-02  0.1125453E+00
         25   -1    0    0    0    0  0.00000000000E+00  0.00000000000E+00  0.99999998245E-14  0.12509000000E+03  0.12509000000E+03 0.  0.
        -11    1    3    3    0    0 -0.58793348901E+01 -0.30810053071E+02 -0.14022759737E+02  0.34357877406E+02  0.51100000000E-03 0.  1.
         23    2    1    0    0    0  0.34864663742E+00  0.28999473354E+02 -0.69851582580E-01  0.96088346797E+02  0.91607174947E+02 0.  0.
         11    1    3    3    0    0  0.62279815275E+01  0.59809526424E+02  0.13952908154E+02  0.61730469391E+02  0.51100000000E-03 0. -1.
         22    1    1    0    0    0 -0.34864663742E+00 -0.28999473354E+02  0.69851582580E-01  0.29001653203E+02  0.00000000000E+00 0. -1.
</event>
<event>
 5    1  0.1047411E-009  0.9118800E+02  0.7815553E-02  0.1125453E+00
         25   -1    0    0    0    0  0.00000000000E+00  0.00000000000E+00  0.99999998245E-14  0.12509000000E+03  0.12509000000E+03 0.  0.
        -11    1    3    3    0    0  0.33410845012E+02 -0.25637131320E+01 -0.40874699746E+02  0.52854500934E+02  0.51100000000E-03 0.  1.
         23    2    1    0    0    0 -0.73986224531E+01  0.91969219143E+01 -0.23598491960E+02  0.98704174076E+02  0.95112050606E+02 0.  0.
         11    1    3    3    0    0 -0.40809467465E+02  0.11760635046E+02  0.17276207786E+02  0.45849673142E+02  0.51100000000E-03 0. -1.
         22    1    1    0    0    0  0.73986224531E+01 -0.91969219143E+01  0.23598491960E+02  0.26385825924E+02  0.00000000000E+00 0.  1.
</event>
<event>
 5    1  0.1047411E-009  0.9118800E+02  0.7815553E-02  0.1125453E+00
         25   -1    0    0    0    0  0.00000000000E+00  0.00000000000E+00  0.99999998245E-14  0.12509000000E+03  0.12509000000E+03 0.  0.
        -11    1    3    3    0    0 -0.34755677648E+00 -0.42530727061E+02  0.33073889308E+01  0.42660548073E+02  0.51100000000E-03 0. -1.
         23    2    1    0    0    0  0.16527457786E+02  0.43753062625E+01  0.23147737563E+02  0.96312961931E+02  0.91913376153E+02 0.  0.
         11    1    3    3    0    0  0.16875014563E+02  0.46906033324E+02  0.19840348632E+02  0.53652413858E+02  0.51100000000E-03 0.  1.
         22    1    1    0    0    0 -0.16527457786E+02 -0.43753062625E+01 -0.23147737563E+02  0.28777038069E+02  0.00000000000E+00 0.  1.
</event>
<event>
 5    1  0.1047411E-009  0.9118800E+02  0.7815553E-02  0.1125453E+00
         25   -1    0    0    0    0  0.00000000000E+00  0.00000000000E+00  0.99999998245E-14  0.12509000000E+03  0.12509000000E+03 0.  0.
        -11    1    3    3    0    0 -0.56718534288E+01 -0.37615771347E+02 -0.42089384540E+02  0.56732992751E+02  0.51100000000E-03 0.  1.
         23    2    1    0    0    0  0.16321271977E+02 -0.16772726154E+02 -0.20957271598E+02  0.93674788805E+02  0.88249932369E+02 0.  0.
         11    1    3    3    0    0  0.21993125406E+02  0.20843045192E+02  0.21132112942E+02  0.36941796053E+02  0.51100000000E-03 0. -1.
         22    1    1    0    0    0 -0.16321271977E+02  0.16772726154E+02  0.20957271598E+02  0.31415211195E+02  0.00000000000E+00 0. -1.
</event>
<event>
 5    1  0.1047411E-009  0.9118800E+02  0.7815553E-02  0.1125453E+00
         25   -1    0    0    0    0  0.00000000000E+00  0.00000000000E+00  0.99999998245E-14  0.12509000000E+03  0.12509000000E+03 0.  0.
        -11    1    3    3    0    0  0.37207767596E+01  0.52458391460E+02  0.40299833618E+01  0.52744362547E+02  0.51100000000E-03 0.  1.
         23    2    1    0    0    0 -0.21182756359E+02  0.19039476450E+02 -0.68037432425E+01  0.95806869147E+02  0.91222006244E+02 0.  0.
         11    1    3    3    0    0 -0.24903533119E+02 -0.33418915010E+02 -0.10833726604E+02  0.43062506600E+02  0.51100000000E-03 0. -1.
         22    1    1    0    0    0  0.21182756359E+02 -0.19039476450E+02  0.68037432425E+01  0.29283130853E+02  0.00000000000E+00 0.  1.
</event>
<event>
 5    1  0.1047411E-009  0.9118800E+02  0.7815553E-02  0.1125453E+00
         25   -1    0    0    0    0  0.00000000000E+00  0.00000000000E+00  0.99999998245E-14  0.12509000000E+03  0.12509000000E+03 0.  0.
        -11    1    3    3    0    0 -0.46205007692E+01  0.28186264479E+02  0.22594623927E+02  0.36418835282E+02  0.51100000000E-03 0. -1.
         23    2    1    0    0    0  0.85143846546E+01 -0.27366060760E+02  0.74848559669E+01  0.95468739115E+02  0.90757154274E+02 0.  0.
         11    1    3    3    0    0  0.13134885424E+02 -0.55552325239E+02 -0.15109767960E+02  0.59049903833E+02  0.51100000000E-03 0.  1.
         22    1    1    0    0    0 -0.85143846546E+01  0.27366060760E+02 -0.74848559669E+01  0.29621260885E+02  0.00000000000E+00 0.  1.
</event>
<event>
 4    1  0.1047411E-009  0.9118800E+02  0.7815553E-02  0.1125453E+00
         25   -1    0    0    0    0  0.00000000000E+00  0.00000000000E+00  0.99999998245E-14  0.12509000000E+03  0.12509000000E+03 0.  0.
        -11    1    1    0    0    0 -0.25657418247E+02 -0.37670186109E+02 -0.23459281012E+02  0.51260939305E+02  0.51100000000E-03 0. -1.
         11    1    1    0    0    0 -0.63913274488E+01  0.74730899811E+01 -0.13250200319E+02  0.16500422697E+02  0.51100000000E-03 0.  1.
         22    1    1    0    0    0  0.32048745696E+02  0.30197096128E+02  0.36709481330E+02  0.57328637998E+02  0.00000000000E+00 0. -1.
</event>
<event>
 5    1  0.1047411E-009  0.9118800E+02  0.7815553E-02  0.1125453E+00
         25   -1    0    0    0    0  0.00000000000E+00  0.00000000000E+00  0.99999998245E-14  0.12509000000E+03  0.12509000000E+03 0.  0.
        -11    1    3    3    0    0 -0.19359660481E+02  0.29610805988E+02  0.22202006930E+02  0.41767516052E+02  0.51100000000E-03 0.  1.
         23    2    1    0    0    0  0.15100772730E+02 -0.11965258757E+02  0.22103230718E+02  0.95768445431E+02  0.91169301730E+02 0.  0.
         11    1    3    3    0    0  0.34460433211E+02 -0.41576064745E+02 -0.98776211488E-01  0.54000929379E+02  0.51100000000E-03 0. -1.
         22    1    1    0    0    0 -0.15100772730E+02  0.11965258757E+02 -0.22103230718E+02  0.29321554569E+02  0.00000000000E+00 0. -1.
</event>
<event>
 5    1  0.1047411E-009  0.9118800E+02  0.7815553E-02  0.1125453E+00
         25   -1    0    0    0    0  0.00000000000E+00  0.00000000000E+00  0.99999998245E-14  0.12509000000E+03  0.12509000000E+03 0.  0.
        -11    1    3    3    0    0  0.11406367720E+02  0.25277613800E+02  0.21141587298E+02  0.34871617366E+02  0.51100000000E-03 0.  1.
         23    2    1    0    0    0 -0.23442816380E+01 -0.29237966981E+02 -0.20425204458E+01  0.95687172596E+02  0.91057722023E+02 0.  0.
         11    1    3    3    0    0 -0.13750649358E+02 -0.54515580782E+02 -0.23184107744E+02  0.60815555229E+02  0.51100000000E-03 0. -1.
         22    1    1    0    0    0  0.23442816380E+01  0.29237966981E+02  0.20425204458E+01  0.29402827404E+02  0.00000000000E+00 0. -1.
</event>
<event>
 5    1  0.1047411E-009  0.9118800E+02  0.7815553E-02  0.1125453E+00
         25   -1    0    0    0    0  0.00000000000E+00  0.00000000000E+00  0.99999998245E-14  0.12509000000E+03  0.12509000000E+03 0.  0.
        -11    1    3    3    0    0  0.54692321475E+02  0.11593709863E+01 -0.21947318807E+02  0.58943014620E+02  0.51100000000E-03 0.  1.
         23    2    1    0    0    0  0.20051920205E+02 -0.11016166199E+02 -0.18206849803E+02  0.95850902863E+02  0.91282368386E+02 0.  0.
         11    1    3    3    0    0 -0.34640401270E+02 -0.12175537185E+02  0.37404690037E+01  0.36907888243E+02  0.51100000000E-03 0. -1.
         22    1    1    0    0    0 -0.20051920205E+02  0.11016166199E+02  0.18206849803E+02  0.29239097137E+02  0.00000000000E+00 0.  1.
</event>
<event>
 5    1  0.1047411E-009  0.9118800E+02  0.7815553E-02  0.1125453E+00
         25   -1    0    0    0    0  0.00000000000E+00  0.00000000000E+00  0.99999998245E-14  0.12509000000E+03  0.12509000000E+03 0.  0.
        -11    1    3    3    0    0  0.90453921758E+01 -0.53874319446E+02  0.27717476562E+02  0.61257815196E+02  0.51100000000E-03 0. -1.
         23    2    1    0    0    0  0.80259518088E+01 -0.19824998415E+02  0.19146200402E+02  0.96384191277E+02  0.92010265045E+02 0.  0.
         11    1    3    3    0    0 -0.10194403670E+01  0.34049321030E+02 -0.85712761603E+01  0.35126376081E+02  0.51100000000E-03 0.  1.
         22    1    1    0    0    0 -0.80259518088E+01  0.19824998415E+02 -0.19146200402E+02  0.28705808723E+02  0.00000000000E+00 0. -1.
</event>
<event>
 5    1  0.1047411E-009  0.9118800E+02  0.7815553E-02  0.1125453E+00
         25   -1    0    0    0    0  0.00000000000E+00  0.00000000000E+00  0.99999998245E-14  0.12509000000E+03  0.12509000000E+03 0.  0.
        -11    1    3    3    0    0  0.26389199816E+02 -0.49289682547E+02  0.13003442889E+01  0.55924534581E+02  0.51100000000E-03 0. -1.
         23    2    1    0    0    0  0.28617263692E+02 -0.10968618577E+02  0.26023381635E+01  0.94332390558E+02  0.89177179647E+02 0.  0.
         11    1    3    3    0    0  0.22280638755E+01  0.38321063970E+02  0.13019938746E+01  0.38407855977E+02  0.51100000000E-03 0.  1.
         22    1    1    0    0    0 -0.28617263692E+02  0.10968618577E+02 -0.26023381635E+01  0.30757609442E+02  0.00000000000E+00 0. -1.
</event>
<event>
 5    1  0.1047411E-009  0.9118800E+02  0.7815553E-02  0.1125453E+00
         25   -1    0    0    0    0  0.00000000000E+00  0.00000000000E+00  0.99999998245E-14  0.12509000000E+03  0.12509000000E+03 0.  0.
        -11    1    3    3    0    0 -0.13827934488E+02  0.33209507218E+02 -0.12823929654E+02  0.38190788339E+02  0.51100000000E-03 0.  1.
         23    2    1    0    0    0 -0.75299125919E+01 -0.13800583548E+02  0.22719937947E+02  0.97461187680E+02  0.93462997136E+02 0.  0.
         11    1    3    3    0    0  0.62980218962E+01 -0.47010090767E+02  0.35543867602E+02  0.59270399341E+02  0.51100000000E-03 0. -1.
         22    1    1    0    0    0  0.75299125919E+01  0.13800583548E+02 -0.22719937947E+02  0.27628812320E+02  0.00000000000E+00 0. -1.
</event>
<event>
 5    1  0.1047411E-009  0.9118800E+02  0.7815553E-02  0.1125453E+00
         25   -1    0    0    0    0  0.00000000000E+00  0.00000000000E+00  0.99999998245E-14  0.12509000000E+03  0.12509000000E+03 0.  0.
        -11    1    3    3    0    0 -0.48312992761E+02  0.10114595647E+02  0.32498838674E+01  0.49467282723E+02  0.51100000000E-03 0.  1.
         23    2    1    0    0    0 -0.76254994573E+01  0.25784902760E+02 -0.11982228227E+02  0.95652213983E+02  0.91009685167E+02 0.  0.
         11    1    3    3    0    0  0.40687493303E+02  0.15670307113E+02 -0.15232112095E+02  0.46184931260E+02  0.51100000000E-03 0. -1.
         22    1    1    0    0    0  0.76254994573E+01 -0.25784902760E+02  0.11982228227E+02  0.29437786017E+02  0.00000000000E+00 0.  1.
</event>
<event>
 5    1  0.1047411E-009  0.9118800E+02  0.7815553E-02  0.1125453E+00
         25   -1    0    0    0    0  0.00000000000E+00  0.00000000000E+00  0.99999998245E-14  0.12509000000E+03  0.12509000000E+03 0.  0.
        -11    1    3    3    0    0 -0.40418848831E+02 -0.44080005691E+02 -0.16754972087E+02  0.62108448157E+02  0.51100000000E-03 0.  1.
         23    2    1    0    0    0 -0.22512153008E+02 -0.19324412970E+02 -0.12249960164E+02  0.92991845945E+02  0.87276525587E+02 0.  0.
         11    1    3    3    0    0  0.17906695823E+02  0.24755592721E+02  0.45050119232E+01  0.30883397788E+02  0.51100000000E-03 0. -1.
         22    1    1    0    0    0  0.22512153008E+02  0.19324412970E+02  0.12249960164E+02  0.32098154055E+02  0.00000000000E+00 0.  1.
</event>
<event>
 5    1  0.1047411E-009  0.9118800E+02  0.7815553E-02  0.1125453E+00
         25   -1    0    0    0    0  0.00000000000E+00  0.00000000000E+00  0.99999998245E-14  0.12509000000E+03  0.12509000000E+03 0.  0.
        -11    1    3    3    0    0  0.21734242947E+02  0.24629922654E+02 -0.10272509199E+02  0.34417072100E+02  0.51100000000E-03 0. -1.
         23    2    1    0    0    0 -0.85531741522E+01 -0.17692521912E+02  0.21950142769E+02  0.95628314928E+02  0.90976830725E+02 0.  0.
         11    1    3    3    0    0 -0.30287417099E+02 -0.42322444566E+02  0.32222651968E+02  0.61211242829E+02  0.51100000000E-03 0.  1.
         22    1    1    0    0    0  0.85531741522E+01  0.17692521912E+02 -0.21950142769E+02  0.29461685072E+02  0.00000000000E+00 0.  1.
</event>
<event>
 5    1  0.1047411E-009  0.9118800E+02  0.7815553E-02  0.1125453E+00
         25   -1    0    0    0    0  0.00000000000E+00  0.00000000000E+00  0.99999998245E-14  0.12509000000E+03  0.12509000000E+03 0.  0.
        -11    1    3    3    0    0 -0.72009176787E+01  0.42040131363E+02  0.97921198528E+01  0.43761986608E+02  0.51100000000E-03 0.  1.
         23    2    1    0    0    0 -0.26797369149E+02 -0.68547122489E+01 -0.45965100564E+00  0.97425991752E+02  0.93415879359E+02 0.  0.
         11    1    3    3    0    0 -0.19596451470E+02 -0.48894843612E+02 -0.10251770858E+02  0.53664005144E+02  0.51100000000E-03 0. -1.
         22    1    1    0    0    0  0.26797369149E+02  0.68547122489E+01  0.45965100564E+00  0.27664008248E+02  0.00000000000E+00 0. -1.
</event>
<event>
 5    1  0.1047411E-009  0.9118800E+02  0.7815553E-02  0.1125453E+00
         25   -1    0    0    0    0  0.00000000000E+00  0.00000000000E+00  0.99999998245E-14  0.12509000000E+03  0.12509000000E+03 0.  0.
        -11    1    3    3    0    0  0.81789001567E+01 -0.30017425778E+02 -0.45131427939E+02  0.54815928763E+02  0.51100000000E-03 0.  1.
         23    2    1    0    0    0 -0.34672816985E+01  0.57731272120E+01 -0.28218530779E+02  0.96079027602E+02  0.91594448660E+02 0.  0.
         11    1    3    3    0    0 -0.11646181855E+02  0.35790552990E+02  0.16912897160E+02  0.41263098838E+02  0.51100000000E-03 0. -1.
         22    1    1    0    0    0  0.34672816985E+01 -0.57731272120E+01  0.28218530779E+02  0.29010972398E+02  0.00000000000E+00 0.  1.
</event>
<event>
 5    1  0.1047411E-009  0.9118800E+02  0.7815553E-02  0.1125453E+00
         25   -1    0    0    0    0  0.00000000000E+00  0.00000000000E+00  0.99999998245E-14  0.12509000000E+03  0.12509000000E+03 0.  0.
        -11    1    3    3    0    0  0.11841751556E+02 -0.16575700462E+01 -0.57511975613E+02  0.58741824602E+02  0.51100000000E-03 0.  1.
         23    2    1    0    0    0 -0.73684714885E+01 -0.83749408049E+01 -0.30864302327E+02  0.92271725156E+02  0.86238228760E+02 0.  0.
         11    1    3    3    0    0 -0.19210223045E+02 -0.67173707587E+01  0.26647673286E+02  0.33529900554E+02  0.51100000000E-03 0. -1.
         22    1    1    0    0    0  0.73684714885E+01  0.83749408049E+01  0.30864302327E+02  0.32818274844E+02  0.00000000000E+00 0.  1.
</event>
<event>
 5    1  0.1047411E-009  0.9118800E+02  0.7815553E-02  0.1125453E+00
         25   -1    0    0    0    0  0.00000000000E+00  0.00000000000E+00  0.99999998245E-14  0.12509000000E+03  0.12509000000E+03 0.  0.
        -11    1    3    3    0    0  0.30270281105E+00  0.14865340450E+02  0.44015310885E+02  0.46458772780E+02  0.51100000000E-03 0. -1.
         23    2    1    0    0    0  0.72446621792E+01 -0.24290021080E+02  0.15727332179E+02  0.95259826826E+02  0.90468753585E+02 0.  0.
         11    1    3    3    0    0  0.69419593682E+01 -0.39155361530E+02 -0.28287978706E+02  0.48801054045E+02  0.51100000000E-03 0.  1.
         22    1    1    0    0    0 -0.72446621792E+01  0.24290021080E+02 -0.15727332179E+02  0.29830173174E+02  0.00000000000E+00 0.  1.
</event>
<event>
 5    1  0.1047411E-009  0.9118800E+02  0.7815553E-02  0.1125453E+00
         25   -1    0    0    0    0  0.00000000000E+00  0.00000000000E+00  0.99999998245E-14  0.12509000000E+03  0.12509000000E+03 0.  0.
        -11    1    3    3    0    0 -0.16717049001E+02 -0.26970210760E+02  0.10738773989E+02  0.33498854649E+02  0.51100000000E-03 0.  1.
         23    2    1    0    0    0  0.20241128935E+02  0.18305349895E+02 -0.10735113180E+02  0.95763701387E+02  0.91162792372E+02 0.  0.
         11    1    3    3    0    0  0.36958177936E+02  0.45275560655E+02 -0.21473887169E+02  0.62264846738E+02  0.51100000000E-03 0. -1.
         22    1    1    0    0    0 -0.20241128935E+02 -0.18305349895E+02  0.10735113180E+02  0.29326298613E+02  0.00000000000E+00 0. -1.
</event>
<event>
 5    1  0.1047411E-009  0.9118800E+02  0.7815553E-02  0.1125453E+00
         25   -1    0    0    0    0  0.00000000000E+00  0.00000000000E+00  0.99999998245E-14  0.12509000000E+03  0.12509000000E+03 0.  0.
        -11    1    3    3    0    0 -0.28308693528E+02  0.46849817740E+02 -0.84992320472E+01  0.55394264119E+02  0.51100000000E-03 0. -1.
         23    2    1    0    0    0  0.67318068390E+01  0.28862520144E+02 -0.59289463679E+01  0.94865594341E+02  0.89922001158E+02 0.  0.
         11    1    3    3    0    0  0.35040500367E+02 -0.17987297596E+02  0.25702856793E+01  0.39471330223E+02  0.51100000000E-03 0.  1.
         22    1    1    0    0    0 -0.67318068390E+01 -0.28862520144E+02  0.59289463679E+01  0.30224405659E+02  0.00000000000E+00 0. -1.
</event>
<event>
 5    1  0.1047411E-009  0.9118800E+02  0.7815553E-02  0.1125453E+00
         25   -1    0    0    0    0  0.00000000000E+00  0.00000000000E+00  0.99999998245E-14  0.12509000000E+03  0.12509000000E+03 0.  0.
        -11    1    3    3    0    0 -0.23621572522E+01 -0.13166959890E+02 -0.33017954824E+02  0.35624906465E+02  0.51100000000E-03 0. -1.
         23    2    1    0    0    0  0.19676435383E+02 -0.51137057652E-01  0.21543492920E+02  0.95913180235E+02  0.91367671149E+02 0.  0.
         11    1    3    3    0    0  0.22038592636E+02  0.13115822833E+02  0.54561447744E+02  0.60288273770E+02  0.51100000000E-03 0.  1.
         22    1    1    0    0    0 -0.19676435383E+02  0.51137057652E-01 -0.21543492920E+02  0.29176819765E+02  0.00000000000E+00 0.  1.
</event>
<event>
 5    1  0.1047411E-009  0.9118800E+02  0.7815553E-02  0.1125453E+00
         25   -1    0    0    0    0  0.00000000000E+00  0.00000000000E+00  0.99999998245E-14  0.12509000000E+03  0.12509000000E+03 0.  0.
        -11    1    3    3    0    0 -0.21387059745E+02 -0.34025555327E+02  0.13512035209E+02  0.42399526360E+02  0.51100000000E-03 0. -1.
         23    2    1    0    0    0  0.14178602510E+02  0.43852355555E+01  0.25021798179E+02  0.95997845660E+02  0.91483511778E+02 0.  0.
         11    1    3    3    0    0  0.35565662255E+02  0.38410790882E+02  0.11509762970E+02  0.53598319300E+02  0.51100000000E-03 0.  1.
         22    1    1    0    0    0 -0.14178602510E+02 -0.43852355555E+01 -0.25021798179E+02  0.29092154340E+02  0.00000000000E+00 0.  1.
</event>
<event>
 5    1  0.1047411E-009  0.9118800E+02  0.7815553E-02  0.1125453E+00
         25   -1    0    0    0    0  0.00000000000E+00  0.00000000000E+00  0.99999998245E-14  0.12509000000E+03  0.12509000000E+03 0.  0.
        -11    1    3    3    0    0  0.27262823569E+02  0.20614647897E+02  0.12006923613E+02  0.36226944003E+02  0.51100000000E-03 0.  1.
         23    2    1    0    0    0 -0.58059034325E+01 -0.27282554213E+02  0.12715314083E+02  0.94435057637E+02  0.89321076011E+02 0.  0.
         11    1    3    3    0    0 -0.33068727002E+02 -0.47897202110E+02  0.70839046979E+00  0.58208113634E+02  0.51100000000E-03 0. -1.
         22    1    1    0    0    0  0.58059034325E+01  0.27282554213E+02 -0.12715314083E+02  0.30654942363E+02  0.00000000000E+00 0. -1.
</event>
<event>
 5    1  0.1047411E-009  0.9118800E+02  0.7815553E-02  0.1125453E+00
         25   -1    0    0    0    0  0.00000000000E+00  0.00000000000E+00  0.99999998245E-14  0.12509000000E+03  0.12509000000E+03 0.  0.
        -11    1    3    3    0    0  0.19375188349E+02  0.13994098852E+02 -0.27475466841E+02  0.36416122867E+02  0.51100000000E-03 0. -1.
         23    2    1    0    0    0 -0.26340483571E+02 -0.95019337593E+01  0.41735675667E+01  0.96778756895E+02  0.92545131152E+02 0.  0.
         11    1    3    3    0    0 -0.45715671920E+02 -0.23496032612E+02  0.31649034408E+02  0.60362634028E+02  0.51100000000E-03 0.  1.
         22    1    1    0    0    0  0.26340483571E+02  0.95019337593E+01 -0.41735675667E+01  0.28311243105E+02  0.00000000000E+00 0.  1.
</event>
<event>
 5    1  0.1047411E-009  0.9118800E+02  0.7815553E-02  0.1125453E+00
         25   -1    0    0    0    0  0.00000000000E+00  0.00000000000E+00  0.99999998245E-14  0.12509000000E+03  0.12509000000E+03 0.  0.
        -11    1    3    3    0    0  0.99913189561E+01 -0.28184368555E+02 -0.49829105082E+02  0.58113034672E+02  0.51100000000E-03 0.  1.
         23    2    1    0    0    0 -0.30300268893E+01  0.28174510803E+00 -0.29490069774E+02  0.95443336469E+02  0.90722135214E+02 0.  0.
         11    1    3    3    0    0 -0.13021345845E+02  0.28466113663E+02  0.20339035307E+02  0.37330301796E+02  0.51100000000E-03 0. -1.
         22    1    1    0    0    0  0.30300268893E+01 -0.28174510803E+00  0.29490069774E+02  0.29646663531E+02  0.00000000000E+00 0.  1.
</event>
<event>
 5    1  0.1047411E-009  0.9118800E+02  0.7815553E-02  0.1125453E+00
         25   -1    0    0    0    0  0.00000000000E+00  0.00000000000E+00  0.99999998245E-14  0.12509000000E+03  0.12509000000E+03 0.  0.
        -11    1    3    3    0    0  0.30747747123E+02 -0.14362487444E+02 -0.21200330128E+02  0.40014484834E+02  0.51100000000E-03 0. -1.
         23    2    1    0    0    0  0.31262479765E+02 -0.88139969142E+01  0.23460914498E+02  0.85022011633E+02  0.74988657612E+02 0.  0.
         11    1    3    3    0    0  0.51473264237E+00  0.55484905303E+01  0.44661244625E+02  0.45007526799E+02  0.51100000000E-03 0.  1.
         22    1    1    0    0    0 -0.31262479765E+02  0.88139969142E+01 -0.23460914498E+02  0.40067988367E+02  0.00000000000E+00 0. -1.
</event>
<event>
 5    1  0.1047411E-009  0.9118800E+02  0.7815553E-02  0.1125453E+00
         25   -1    0    0    0    0  0.00000000000E+00  0.00000000000E+00  0.99999998245E-14  0.12509000000E+03  0.12509000000E+03 0.  0.
        -11    1    3    3    0    0 -0.21648168754E+01  0.12950411064E+02  0.37740123782E+02  0.39958935449E+02  0.51100000000E-03 0.  1.
         23    2    1    0    0    0 -0.78434249509E+01  0.23320087926E+02 -0.16495533517E+02  0.95468243775E+02  0.90756471547E+02 0.  0.
         11    1    3    3    0    0 -0.56786080756E+01  0.10369676862E+02 -0.54235657299E+02  0.55509308326E+02  0.51100000000E-03 0. -1.
         22    1    1    0    0    0  0.78434249509E+01 -0.23320087926E+02  0.16495533517E+02  0.29621756225E+02  0.00000000000E+00 0. -1.
</event>
<event>
 5    1  0.1047411E-009  0.9118800E+02  0.7815553E-02  0.1125453E+00
         25   -1    0    0    0    0  0.00000000000E+00  0.00000000000E+00  0.99999998245E-14  0.12509000000E+03  0.12509000000E+03 0.  0.
        -11    1    3    3    0    0 -0.29420438044E+02 -0.50256728040E+01 -0.32339299311E+02  0.44007383949E+02  0.51100000000E-03 0. -1.
         23    2    1    0    0    0 -0.30458987791E+01 -0.28466242612E+02  0.57073727410E+01  0.95897902243E+02  0.91346751903E+02 0.  0.
         11    1    3    3    0    0  0.26374539265E+02 -0.23440569808E+02  0.38046672052E+02  0.51890518294E+02  0.51100000000E-03 0.  1.
         22    1    1    0    0    0  0.30458987791E+01  0.28466242612E+02 -0.57073727410E+01  0.29192097757E+02  0.00000000000E+00 0. -1.
</event>
<event>
 5    1  0.1047411E-009  0.9118800E+02  0.7815553E-02  0.1125453E+00
         25   -1    0    0    0    0  0.00000000000E+00  0.00000000000E+00  0.99999998245E-14  0.12509000000E+03  0.12509000000E+03 0.  0.
        -11    1    3    3    0    0 -0.19539275608E+02 -0.38432015870E+02 -0.18691592737E+02  0.46991262746E+02  0.51100000000E-03 0.  1.
         23    2    1    0    0    0  0.21929267148E+02 -0.19333179380E+02 -0.13659521770E+01  0.95823459242E+02  0.91244752908E+02 0.  0.
         11    1    3    3    0    0  0.41468542756E+02  0.19098836490E+02  0.17325640560E+02  0.48832196496E+02  0.51100000000E-03 0. -1.
         22    1    1    0    0    0 -0.21929267148E+02  0.19333179380E+02  0.13659521770E+01  0.29266540758E+02  0.00000000000E+00 0.  1.
</event>
<event>
 5    1  0.1047411E-009  0.9118800E+02  0.7815553E-02  0.1125453E+00
         25   -1    0    0    0    0  0.00000000000E+00  0.00000000000E+00  0.99999998245E-14  0.12509000000E+03  0.12509000000E+03 0.  0.
        -11    1    3    3    0    0  0.27046954572E+02 -0.13092762929E+02 -0.24273120752E+02  0.38628261468E+02  0.51100000000E-03 0. -1.
         23    2    1    0    0    0  0.76432296808E+01  0.26707519265E+02  0.10972621663E+02  0.95221806693E+02  0.90416168346E+02 0.  0.
         11    1    3    3    0    0 -0.19403724891E+02  0.39800282195E+02  0.35245742415E+02  0.56593545225E+02  0.51100000000E-03 0.  1.
         22    1    1    0    0    0 -0.76432296808E+01 -0.26707519265E+02 -0.10972621663E+02  0.29868193307E+02  0.00000000000E+00 0.  1.
</event>
<event>
 5    1  0.1047411E-009  0.9118800E+02  0.7815553E-02  0.1125453E+00
         25   -1    0    0    0    0  0.00000000000E+00  0.00000000000E+00  0.99999998245E-14  0.12509000000E+03  0.12509000000E+03 0.  0.
        -11    1    3    3    0    0  0.43422986907E+02  0.38608794618E+02  0.65136549600E+01  0.58468987634E+02  0.51100000000E-03 0.  1.
         23    2    1    0    0    0  0.13770445292E+02  0.23319995704E+02 -0.10652225733E+02  0.95988156824E+02  0.91470262787E+02 0.  0.
         11    1    3    3    0    0 -0.29652541615E+02 -0.15288798914E+02 -0.17165880693E+02  0.37519169190E+02  0.51100000000E-03 0. -1.
         22    1    1    0    0    0 -0.13770445292E+02 -0.23319995704E+02  0.10652225733E+02  0.29101843176E+02  0.00000000000E+00 0.  1.
</event>
<event>
 5    1  0.1047411E-009  0.9118800E+02  0.7815553E-02  0.1125453E+00
         25   -1    0    0    0    0  0.00000000000E+00  0.00000000000E+00  0.99999998245E-14  0.12509000000E+03  0.12509000000E+03 0.  0.
        -11    1    3    3    0    0  0.11730417968E+02 -0.49547701155E+02  0.34127013700E+02  0.61296251596E+02  0.51100000000E-03 0.  1.
         23    2    1    0    0    0 -0.31975329079E+01 -0.24598067316E+02  0.16543199406E+02  0.95274457426E+02  0.90488980870E+02 0.  0.
         11    1    3    3    0    0 -0.14927950876E+02  0.24949633839E+02 -0.17583814294E+02  0.33978205830E+02  0.51100000000E-03 0. -1.
         22    1    1    0    0    0  0.31975329079E+01  0.24598067316E+02 -0.16543199406E+02  0.29815542574E+02  0.00000000000E+00 0.  1.
</event>
<event>
 5    1  0.1047411E-009  0.9118800E+02  0.7815553E-02  0.1125453E+00
         25   -1    0    0    0    0  0.00000000000E+00  0.00000000000E+00  0.99999998245E-14  0.12509000000E+03  0.12509000000E+03 0.  0.
        -11    1    3    3    0    0 -0.34291272714E+02 -0.45223001010E+02 -0.73136227939E+01  0.57223249500E+02  0.51100000000E-03 0. -1.
         23    2    1    0    0    0 -0.99611766410E+01 -0.17989490706E+02 -0.20503927288E+02  0.96051097642E+02  0.91556296933E+02 0.  0.
         11    1    3    3    0    0  0.24330096073E+02  0.27233510305E+02 -0.13190304494E+02  0.38827848142E+02  0.51100000000E-03 0.  1.
         22    1    1    0    0    0  0.99611766410E+01  0.17989490706E+02  0.20503927288E+02  0.29038902358E+02  0.00000000000E+00 0. -1.
</event>
<event>
 5    1  0.1047411E-009  0.9118800E+02  0.7815553E-02  0.1125453E+00
         25   -1    0    0    0    0  0.00000000000E+00  0.00000000000E+00  0.99999998245E-14  0.12509000000E+03  0.12509000000E+03 0.  0.
        -11    1    3    3    0    0 -0.80946184002E+01  0.33988899218E+02  0.41815813006E+02  0.54491562051E+02  0.51100000000E-03 0.  1.
         23    2    1    0    0    0  0.12606081604E+02  0.25291345672E+02  0.69050846217E+01  0.95999698301E+02  0.91486044952E+02 0.  0.
         11    1    3    3    0    0  0.20700700005E+02 -0.86975535462E+01 -0.34910728384E+02  0.41508136250E+02  0.51100000000E-03 0. -1.
         22    1    1    0    0    0 -0.12606081604E+02 -0.25291345672E+02 -0.69050846217E+01  0.29090301699E+02  0.00000000000E+00 0.  1.
</event>
<event>
 5    1  0.1047411E-009  0.9118800E+02  0.7815553E-02  0.1125453E+00
         25   -1    0    0    0    0  0.00000000000E+00  0.00000000000E+00  0.99999998245E-14  0.12509000000E+03  0.12509000000E+03 0.  0.
        -11    1    3    3    0    0 -0.66792057480E+01  0.63422943687E+01 -0.40385959992E+02  0.41422967687E+02  0.51100000000E-03 0.  1.
         23    2    1    0    0    0  0.28845346987E+02  0.66125615942E+01  0.37691191602E+00  0.95494019256E+02  0.90791991042E+02 0.  0.
         11    1    3    3    0    0  0.35524552735E+02  0.27026722547E+00  0.40762871908E+02  0.54071051569E+02  0.51100000000E-03 0. -1.
         22    1    1    0    0    0 -0.28845346987E+02 -0.66125615942E+01 -0.37691191602E+00  0.29595980744E+02  0.00000000000E+00 0. -1.
</event>
<event>
 5    1  0.1047411E-009  0.9118800E+02  0.7815553E-02  0.1125453E+00
         25   -1    0    0    0    0  0.00000000000E+00  0.00000000000E+00  0.99999998245E-14  0.12509000000E+03  0.12509000000E+03 0.  0.
        -11    1    3    3    0    0  0.50804440875E+01 -0.68389636730E+01  0.50465746117E+02  0.51179818949E+02  0.51100000000E-03 0. -1.
         23    2    1    0    0    0 -0.23409470543E+02 -0.82867753516E+01  0.17869179870E+02  0.94496184513E+02  0.89406640365E+02 0.  0.
         11    1    3    3    0    0 -0.28489914631E+02 -0.14478116786E+01 -0.32596566247E+02  0.43316365564E+02  0.51100000000E-03 0.  1.
         22    1    1    0    0    0  0.23409470543E+02  0.82867753516E+01 -0.17869179870E+02  0.30593815487E+02  0.00000000000E+00 0.  1.
</event>
<event>
 5    1  0.1047411E-009  0.9118800E+02  0.7815553E-02  0.1125453E+00
         25   -1    0    0    0    0  0.00000000000E+00  0.00000000000E+00  0.99999998245E-14  0.12509000000E+03  0.12509000000E+03 0.  0.
        -11    1    3    3    0    0  0.13092564458E+02 -0.11665330118E+02  0.29971986070E+02  0.34724848742E+02  0.51100000000E-03 0.  1.
         23    2    1    0    0    0 -0.21005317874E+02  0.20176135192E+02 -0.80084541340E+01  0.94883458525E+02  0.89946848492E+02 0.  0.
         11    1    3    3    0    0 -0.34097882332E+02  0.31841465310E+02 -0.37980440205E+02  0.60158609783E+02  0.51100000000E-03 0. -1.
         22    1    1    0    0    0  0.21005317874E+02 -0.20176135192E+02  0.80084541340E+01  0.30206541475E+02  0.00000000000E+00 0. -1.
</event>
<event>
 5    1  0.1047411E-009  0.9118800E+02  0.7815553E-02  0.1125453E+00
         25   -1    0    0    0    0  0.00000000000E+00  0.00000000000E+00  0.99999998245E-14  0.12509000000E+03  0.12509000000E+03 0.  0.
        -11    1    3    3    0    0 -0.33287273951E+02 -0.49107755613E+02  0.38267724024E+01  0.59449629568E+02  0.51100000000E-03 0.  1.
         23    2    1    0    0    0 -0.21802113913E+02 -0.16841686926E+02 -0.91289705962E+01  0.96067376174E+02  0.91578534992E+02 0.  0.
         11    1    3    3    0    0  0.11485160038E+02  0.32266068687E+02 -0.12955742999E+02  0.36617746606E+02  0.51100000000E-03 0. -1.
         22    1    1    0    0    0  0.21802113913E+02  0.16841686926E+02  0.91289705962E+01  0.29022623826E+02  0.00000000000E+00 0.  1.
</event>
<event>
 5    1  0.1047411E-009  0.9118800E+02  0.7815553E-02  0.1125453E+00
         25   -1    0    0    0    0  0.00000000000E+00  0.00000000000E+00  0.99999998245E-14  0.12509000000E+03  0.12509000000E+03 0.  0.
        -11    1    3    3    0    0 -0.20822717217E+02  0.28904278408E+02 -0.48699900703E+02  0.60338405608E+02  0.51100000000E-03 0.  1.
         23    2    1    0    0    0 -0.20329425982E+01  0.66683454500E+01 -0.28444894766E+02  0.95803284157E+02  0.91217090122E+02 0.  0.
         11    1    3    3    0    0  0.18789774618E+02 -0.22235932958E+02  0.20255005937E+02  0.35464878549E+02  0.51100000000E-03 0. -1.
         22    1    1    0    0    0  0.20329425982E+01 -0.66683454500E+01  0.28444894766E+02  0.29286715843E+02  0.00000000000E+00 0.  1.
</event>
<event>
 5    1  0.1047411E-009  0.9118800E+02  0.7815553E-02  0.1125453E+00
         25   -1    0    0    0    0  0.00000000000E+00  0.00000000000E+00  0.99999998245E-14  0.12509000000E+03  0.12509000000E+03 0.  0.
        -11    1    3    3    0    0 -0.27334944385E+02 -0.93374934406E+01 -0.49297139227E+02  0.57136642398E+02  0.51100000000E-03 0. -1.
         23    2    1    0    0    0 -0.21810496772E+02  0.10454293142E+02 -0.16598615153E+02  0.95755650858E+02  0.91151745084E+02 0.  0.
         11    1    3    3    0    0  0.55244476129E+01  0.19791786583E+02  0.32698524074E+02  0.38619008460E+02  0.51100000000E-03 0.  1.
         22    1    1    0    0    0  0.21810496772E+02 -0.10454293142E+02  0.16598615153E+02  0.29334349142E+02  0.00000000000E+00 0. -1.
</event>
<event>
 5    1  0.1047411E-009  0.9118800E+02  0.7815553E-02  0.1125453E+00
         25   -1    0    0    0    0  0.00000000000E+00  0.00000000000E+00  0.99999998245E-14  0.12509000000E+03  0.12509000000E+03 0.  0.
        -11    1    3    3    0    0 -0.20973243645E+02  0.22173578186E+02  0.13592613019E+02  0.33411130593E+02  0.51100000000E-03 0.  1.
         23    2    1    0    0    0  0.26607108251E+02 -0.10475283795E+02 -0.85900131185E+01  0.95232704318E+02  0.90431243861E+02 0.  0.
         11    1    3    3    0    0  0.47580351896E+02 -0.32648861981E+02 -0.22182626137E+02  0.61821573725E+02  0.51100000000E-03 0. -1.
         22    1    1    0    0    0 -0.26607108251E+02  0.10475283795E+02  0.85900131185E+01  0.29857295682E+02  0.00000000000E+00 0. -1.
</event>
<event>
 5    1  0.1047411E-009  0.9118800E+02  0.7815553E-02  0.1125453E+00
         25   -1    0    0    0    0  0.00000000000E+00  0.00000000000E+00  0.99999998245E-14  0.12509000000E+03  0.12509000000E+03 0.  0.
        -11    1    3    3    0    0 -0.11564916352E+02  0.22014236258E+01  0.55007388327E+02  0.56253056157E+02  0.51100000000E-03 0.  1.
         23    2    1    0    0    0 -0.10549910255E+02 -0.17050763071E+02  0.17281063497E+02  0.98619936092E+02  0.95001197421E+02 0.  0.
         11    1    3    3    0    0  0.10150060967E+01 -0.19252186697E+02 -0.37726324829E+02  0.42366879935E+02  0.51100000000E-03 0. -1.
         22    1    1    0    0    0  0.10549910255E+02  0.17050763071E+02 -0.17281063497E+02  0.26470063908E+02  0.00000000000E+00 0. -1.
</event>
<event>
 5    1  0.1047411E-009  0.9118800E+02  0.7815553E-02  0.1125453E+00
         25   -1    0    0    0    0  0.00000000000E+00  0.00000000000E+00  0.99999998245E-14  0.12509000000E+03  0.12509000000E+03 0.  0.
        -11    1    3    3    0    0  0.28846460937E+02 -0.43366137969E+02  0.23764230004E+02  0.57249269505E+02  0.51100000000E-03 0. -1.
         23    2    1    0    0    0  0.24904674923E+02 -0.64003612464E+01  0.14531868717E+02  0.95553875245E+02  0.90874421092E+02 0.  0.
         11    1    3    3    0    0 -0.39417860139E+01  0.36965776723E+02 -0.92323612871E+01  0.38304605740E+02  0.51100000000E-03 0.  1.
         22    1    1    0    0    0 -0.24904674923E+02  0.64003612464E+01 -0.14531868717E+02  0.29536124755E+02  0.00000000000E+00 0. -1.
</event>
<event>
 5    1  0.1047411E-009  0.9118800E+02  0.7815553E-02  0.1125453E+00
         25   -1    0    0    0    0  0.00000000000E+00  0.00000000000E+00  0.99999998245E-14  0.12509000000E+03  0.12509000000E+03 0.  0.
        -11    1    3    3    0    0  0.41504899420E+02  0.34912154938E+02  0.16259586305E+01  0.54260104865E+02  0.51100000000E-03 0. -1.
         23    2    1    0    0    0  0.23195159457E+02  0.45722391699E+00  0.17136301049E+02  0.96247716983E+02  0.91824537760E+02 0.  0.
         11    1    3    3    0    0 -0.18309739962E+02 -0.34454931021E+02  0.15510342419E+02  0.41987612118E+02  0.51100000000E-03 0.  1.
         22    1    1    0    0    0 -0.23195159457E+02 -0.45722391699E+00 -0.17136301049E+02  0.28842283017E+02  0.00000000000E+00 0. -1.
</event>
<event>
 5    1  0.1047411E-009  0.9118800E+02  0.7815553E-02  0.1125453E+00
         25   -1    0    0    0    0  0.00000000000E+00  0.00000000000E+00  0.99999998245E-14  0.12509000000E+03  0.12509000000E+03 0.  0.
        -11    1    3    3    0    0 -0.26083286228E+02 -0.40018025974E+02  0.36660599696E+02  0.60214448380E+02  0.51100000000E-03 0.  1.
         23    2    1    0    0    0 -0.64217642010E+01 -0.26241587928E+02  0.95288553956E+01  0.96442852191E+02  0.92089981329E+02 0.  0.
         11    1    3    3    0    0  0.19661522027E+02  0.13776438046E+02 -0.27131744301E+02  0.36228403811E+02  0.51100000000E-03 0. -1.
         22    1    1    0    0    0  0.64217642010E+01  0.26241587928E+02 -0.95288553956E+01  0.28647147809E+02  0.00000000000E+00 0.  1.
</event>
<event>
 5    1  0.1047411E-009  0.9118800E+02  0.7815553E-02  0.1125453E+00
         25   -1    0    0    0    0  0.00000000000E+00  0.00000000000E+00  0.99999998245E-14  0.12509000000E+03  0.12509000000E+03 0.  0.
        -11    1    3    3    0    0  0.27630494806E+02 -0.20350506826E+02  0.49789368566E+02  0.60469567501E+02  0.51100000000E-03 0.  1.
         23    2    1    0    0    0  0.16581349457E+02  0.11821421923E+01  0.24585228405E+02  0.95412195740E+02  0.90679187415E+02 0.  0.
         11    1    3    3    0    0 -0.11049145350E+02  0.21532649018E+02 -0.25204140161E+02  0.34942628238E+02  0.51100000000E-03 0. -1.
         22    1    1    0    0    0 -0.16581349457E+02 -0.11821421923E+01 -0.24585228405E+02  0.29677804260E+02  0.00000000000E+00 0.  1.
</event>
<event>
 5    1  0.1047411E-009  0.9118800E+02  0.7815553E-02  0.1125453E+00
         25   -1    0    0    0    0  0.00000000000E+00  0.00000000000E+00  0.99999998245E-14  0.12509000000E+03  0.12509000000E+03 0.  0.
        -11    1    3    3    0    0  0.28926816192E+02  0.95240745560E+00  0.42743932555E+02  0.51620844099E+02  0.51100000000E-03 0. -1.
         23    2    1    0    0    0  0.26274407931E+02 -0.98557297189E+01 -0.12495627837E+01  0.97000120549E+02  0.92843858488E+02 0.  0.
         11    1    3    3    0    0 -0.26524082608E+01 -0.10808137175E+02 -0.43993495338E+02  0.45379276450E+02  0.51100000000E-03 0.  1.
         22    1    1    0    0    0 -0.26274407931E+02  0.98557297189E+01  0.12495627837E+01  0.28089879451E+02  0.00000000000E+00 0. -1.
</event>
<event>
 5    1  0.1047411E-009  0.9118800E+02  0.7815553E-02  0.1125453E+00
         25   -1    0    0    0    0  0.00000000000E+00  0.00000000000E+00  0.99999998245E-14  0.12509000000E+03  0.12509000000E+03 0.  0.
        -11    1    3    3    0    0  0.39013675469E+02 -0.27210675975E-01  0.28937620470E+02  0.48574206044E+02  0.51100000000E-03 0. -1.
         23    2    1    0    0    0  0.27302995913E+02  0.40147201948E+01 -0.14620425963E+02  0.93859751532E+02  0.88511719779E+02 0.  0.
         11    1    3    3    0    0 -0.11710679556E+02  0.40419308708E+01 -0.43558046433E+02  0.45285545488E+02  0.51100000000E-03 0.  1.
         22    1    1    0    0    0 -0.27302995913E+02 -0.40147201948E+01  0.14620425963E+02  0.31230248468E+02  0.00000000000E+00 0.  1.
</event>
<event>
 5    1  0.1047411E-009  0.9118800E+02  0.7815553E-02  0.1125453E+00
         25   -1    0    0    0    0  0.00000000000E+00  0.00000000000E+00  0.99999998245E-14  0.12509000000E+03  0.12509000000E+03 0.  0.
        -11    1    3    3    0    0  0.41816694685E+02 -0.14956534325E+02 -0.21387483113E+02  0.49292578625E+02  0.51100000000E-03 0. -1.
         23    2    1    0    0    0 -0.35542653726E+01 -0.23804137499E+02 -0.16785802758E+02  0.95746637230E+02  0.91139374598E+02 0.  0.
         11    1    3    3    0    0 -0.45370960057E+02 -0.88476031740E+01  0.46016803544E+01  0.46454058604E+02  0.51100000000E-03 0.  1.
         22    1    1    0    0    0  0.35542653726E+01  0.23804137499E+02  0.16785802758E+02  0.29343362770E+02  0.00000000000E+00 0. -1.
</event>
<event>
 5    1  0.1047411E-009  0.9118800E+02  0.7815553E-02  0.1125453E+00
         25   -1    0    0    0    0  0.00000000000E+00  0.00000000000E+00  0.99999998245E-14  0.12509000000E+03  0.12509000000E+03 0.  0.
        -11    1    3    3    0    0 -0.51280903683E+02 -0.21670731722E+02 -0.25031781623E+02  0.61040493014E+02  0.51100000000E-03 0.  1.
         23    2    1    0    0    0 -0.21065374962E+02 -0.47136554597E+01 -0.19248085991E+02  0.96168427007E+02  0.91716459638E+02 0.  0.
         11    1    3    3    0    0  0.30215528720E+02  0.16957076262E+02  0.57836956320E+01  0.35127933993E+02  0.51100000000E-03 0. -1.
         22    1    1    0    0    0  0.21065374962E+02  0.47136554597E+01  0.19248085991E+02  0.28921572993E+02  0.00000000000E+00 0.  1.
</event>
<event>
 5    1  0.1047411E-009  0.9118800E+02  0.7815553E-02  0.1125453E+00
         25   -1    0    0    0    0  0.00000000000E+00  0.00000000000E+00  0.99999998245E-14  0.12509000000E+03  0.12509000000E+03 0.  0.
        -11    1    3    3    0    0 -0.20969508197E+02  0.13603824521E+02 -0.41180683213E+02  0.48172948693E+02  0.51100000000E-03 0.  1.
         23    2    1    0    0    0 -0.25106345719E+02  0.10288878885E+02  0.73396314883E+01  0.96981997323E+02  0.92819437567E+02 0.  0.
         11    1    3    3    0    0 -0.41368375227E+01 -0.33149456354E+01  0.48520314701E+02  0.48809048631E+02  0.51100000000E-03 0. -1.
         22    1    1    0    0    0  0.25106345719E+02 -0.10288878885E+02 -0.73396314883E+01  0.28108002677E+02  0.00000000000E+00 0.  1.
</event>
<event>
 5    1  0.1047411E-009  0.9118800E+02  0.7815553E-02  0.1125453E+00
         25   -1    0    0    0    0  0.00000000000E+00  0.00000000000E+00  0.99999998245E-14  0.12509000000E+03  0.12509000000E+03 0.  0.
        -11    1    3    3    0    0  0.22599432575E+02 -0.28097682823E+02  0.46034583699E+02  0.58475610551E+02  0.51100000000E-03 0.  1.
         23    2    1    0    0    0  0.86165949640E+01 -0.25346910447E+02  0.11278652043E+02  0.96039706200E+02  0.91540731901E+02 0.  0.
         11    1    3    3    0    0 -0.13982837611E+02  0.27507723763E+01 -0.34755931656E+02  0.37564095648E+02  0.51100000000E-03 0. -1.
         22    1    1    0    0    0 -0.86165949640E+01  0.25346910447E+02 -0.11278652043E+02  0.29050293800E+02  0.00000000000E+00 0.  1.
</event>
<event>
 5    1  0.1047411E-009  0.9118800E+02  0.7815553E-02  0.1125453E+00
         25   -1    0    0    0    0  0.00000000000E+00  0.00000000000E+00  0.99999998245E-14  0.12509000000E+03  0.12509000000E+03 0.  0.
        -11    1    3    3    0    0 -0.11652335175E+02 -0.56977655093E+02 -0.21697330562E+02  0.62072572435E+02  0.51100000000E-03 0.  1.
         23    2    1    0    0    0  0.85481092781E-02 -0.26449608400E+02 -0.86227253278E+01  0.97270344185E+02  0.93207224012E+02 0.  0.
         11    1    3    3    0    0  0.11660883285E+02  0.30528046693E+02  0.13074605234E+02  0.35197771749E+02  0.51100000000E-03 0. -1.
         22    1    1    0    0    0 -0.85481092781E-02  0.26449608400E+02  0.86227253278E+01  0.27819655815E+02  0.00000000000E+00 0.  1.
</event>
<event>
 5    1  0.1047411E-009  0.9118800E+02  0.7815553E-02  0.1125453E+00
         25   -1    0    0    0    0  0.00000000000E+00  0.00000000000E+00  0.99999998245E-14  0.12509000000E+03  0.12509000000E+03 0.  0.
        -11    1    3    3    0    0 -0.27744819149E+02  0.20042357384E+02  0.18403831017E+02  0.38860932509E+02  0.51100000000E-03 0. -1.
         23    2    1    0    0    0  0.90896271400E+01 -0.14013870723E+02  0.30365888055E+02  0.90433152891E+02  0.83528785997E+02 0.  0.
         11    1    3    3    0    0  0.36834446289E+02 -0.34056228107E+02  0.11962057038E+02  0.51572220382E+02  0.51100000000E-03 0.  1.
         22    1    1    0    0    0 -0.90896271400E+01  0.14013870723E+02 -0.30365888055E+02  0.34656847109E+02  0.00000000000E+00 0. -1.
</event>
<event>
 5    1  0.1047411E-009  0.9118800E+02  0.7815553E-02  0.1125453E+00
         25   -1    0    0    0    0  0.00000000000E+00  0.00000000000E+00  0.99999998245E-14  0.12509000000E+03  0.12509000000E+03 0.  0.
        -11    1    3    3    0    0 -0.51275639799E+01 -0.48027926961E+02  0.22476920298E+01  0.48353136405E+02  0.51100000000E-03 0. -1.
         23    2    1    0    0    0 -0.18283191987E+02 -0.95917943779E+01 -0.21395201495E+02  0.95357319737E+02  0.90603455518E+02 0.  0.
         11    1    3    3    0    0 -0.13155628007E+02  0.38436132583E+02 -0.23642893525E+02  0.47004183332E+02  0.51100000000E-03 0.  1.
         22    1    1    0    0    0  0.18283191987E+02  0.95917943779E+01  0.21395201495E+02  0.29732680263E+02  0.00000000000E+00 0.  1.
</event>
<event>
 5    1  0.1047411E-009  0.9118800E+02  0.7815553E-02  0.1125453E+00
         25   -1    0    0    0    0  0.00000000000E+00  0.00000000000E+00  0.99999998245E-14  0.12509000000E+03  0.12509000000E+03 0.  0.
        -11    1    3    3    0    0 -0.91854799027E+01  0.45516467121E+02 -0.57723380920E+01  0.46791470457E+02  0.51100000000E-03 0.  1.
         23    2    1    0    0    0 -0.82886586177E+01  0.32631743177E+01 -0.28816178856E+02  0.94928396393E+02  0.90009322348E+02 0.  0.
         11    1    3    3    0    0  0.89682128506E+00 -0.42253292803E+02 -0.23043840764E+02  0.48136925936E+02  0.51100000000E-03 0. -1.
         22    1    1    0    0    0  0.82886586177E+01 -0.32631743177E+01  0.28816178856E+02  0.30161603607E+02  0.00000000000E+00 0. -1.
</event>
<event>
 5    1  0.1047411E-009  0.9118800E+02  0.7815553E-02  0.1125453E+00
         25   -1    0    0    0    0  0.00000000000E+00  0.00000000000E+00  0.99999998245E-14  0.12509000000E+03  0.12509000000E+03 0.  0.
        -11    1    3    3    0    0  0.32895546553E+02 -0.42099321218E+01  0.51604476476E+02  0.61342175574E+02  0.51100000000E-03 0. -1.
         23    2    1    0    0    0  0.19516507715E+02  0.49759538398E+01  0.20942763849E+02  0.96033958501E+02  0.91532877359E+02 0.  0.
         11    1    3    3    0    0 -0.13379038839E+02  0.91858859616E+01 -0.30661712627E+02  0.34691782927E+02  0.51100000000E-03 0.  1.
         22    1    1    0    0    0 -0.19516507715E+02 -0.49759538398E+01 -0.20942763849E+02  0.29056041499E+02  0.00000000000E+00 0. -1.
</event>
<event>
 5    1  0.1047411E-009  0.9118800E+02  0.7815553E-02  0.1125453E+00
         25   -1    0    0    0    0  0.00000000000E+00  0.00000000000E+00  0.99999998245E-14  0.12509000000E+03  0.12509000000E+03 0.  0.
        -11    1    3    3    0    0  0.20677283235E+02 -0.19447835995E+02  0.28323875942E+02  0.40100003934E+02  0.51100000000E-03 0.  1.
         23    2    1    0    0    0 -0.23268458447E+02  0.11484113906E+02  0.13463097149E+02  0.95857124405E+02  0.91290893761E+02 0.  0.
         11    1    3    3    0    0 -0.43945741682E+02  0.30931949901E+02 -0.14860778793E+02  0.55757120471E+02  0.51100000000E-03 0. -1.
         22    1    1    0    0    0  0.23268458447E+02 -0.11484113906E+02 -0.13463097149E+02  0.29232875595E+02  0.00000000000E+00 0. -1.
</event>
<event>
 5    1  0.1047411E-009  0.9118800E+02  0.7815553E-02  0.1125453E+00
         25   -1    0    0    0    0  0.00000000000E+00  0.00000000000E+00  0.99999998245E-14  0.12509000000E+03  0.12509000000E+03 0.  0.
        -11    1    3    3    0    0  0.41809728288E+02 -0.38087467895E+02  0.10788052697E+02  0.57576824082E+02  0.51100000000E-03 0. -1.
         23    2    1    0    0    0  0.19723564801E+02 -0.41843565279E+01 -0.94550145307E+01  0.10282062309E+03  0.10038005472E+03 0.  0.
         11    1    3    3    0    0 -0.22086163487E+02  0.33903111367E+02 -0.20243067228E+02  0.45243799011E+02  0.51100000000E-03 0.  1.
         22    1    1    0    0    0 -0.19723564801E+02  0.41843565279E+01  0.94550145307E+01  0.22269376906E+02  0.00000000000E+00 0. -1.
</event>
<event>
 5    1  0.1047411E-009  0.9118800E+02  0.7815553E-02  0.1125453E+00
         25   -1    0    0    0    0  0.00000000000E+00  0.00000000000E+00  0.99999998245E-14  0.12509000000E+03  0.12509000000E+03 0.  0.
        -11    1    3    3    0    0 -0.52998701502E+01 -0.15260446437E+02  0.60118738459E+02  0.62251365954E+02  0.51100000000E-03 0.  1.
         23    2    1    0    0    0  0.11114150742E+01 -0.92602086729E+01  0.26555376429E+02  0.96944401313E+02  0.92768756705E+02 0.  0.
         11    1    3    3    0    0  0.64112852244E+01  0.60002377641E+01 -0.33563362029E+02  0.34693035359E+02  0.51100000000E-03 0. -1.
         22    1    1    0    0    0 -0.11114150742E+01  0.92602086729E+01 -0.26555376429E+02  0.28145598687E+02  0.00000000000E+00 0.  1.
</event>
<event>
 5    1  0.1047411E-009  0.9118800E+02  0.7815553E-02  0.1125453E+00
         25   -1    0    0    0    0  0.00000000000E+00  0.00000000000E+00  0.99999998245E-14  0.12509000000E+03  0.12509000000E+03 0.  0.
        -11    1    3    3    0    0 -0.36596891519E+02 -0.87651153447E+01 -0.16695000486E+02  0.41168953804E+02  0.51100000000E-03 0. -1.
         23    2    1    0    0    0  0.11741229503E+02  0.13317170421E+02 -0.24448944076E+02  0.94874865304E+02  0.89934897018E+02 0.  0.
         11    1    3    3    0    0  0.48338121022E+02  0.22082285766E+02 -0.77539435901E+01  0.53705911500E+02  0.51100000000E-03 0.  1.
         22    1    1    0    0    0 -0.11741229503E+02 -0.13317170421E+02  0.24448944076E+02  0.30215134696E+02  0.00000000000E+00 0.  1.
</event>
<event>
 5    1  0.1047411E-009  0.9118800E+02  0.7815553E-02  0.1125453E+00
         25   -1    0    0    0    0  0.00000000000E+00  0.00000000000E+00  0.99999998245E-14  0.12509000000E+03  0.12509000000E+03 0.  0.
        -11    1    3    3    0    0  0.22103200045E+02  0.23794291564E+02  0.47681330172E+01  0.32824607477E+02  0.51100000000E-03 0. -1.
         23    2    1    0    0    0 -0.29084506619E+02 -0.22900209359E+00  0.17984723556E+02  0.90893344482E+02  0.84215134166E+02 0.  0.
         11    1    3    3    0    0 -0.51187706664E+02 -0.24023293657E+02  0.13216590539E+02  0.58068737005E+02  0.51100000000E-03 0.  1.
         22    1    1    0    0    0  0.29084506619E+02  0.22900209359E+00 -0.17984723556E+02  0.34196655518E+02  0.00000000000E+00 0.  1.
</event>
<event>
 5    1  0.1047411E-009  0.9118800E+02  0.7815553E-02  0.1125453E+00
         25   -1    0    0    0    0  0.00000000000E+00  0.00000000000E+00  0.99999998245E-14  0.12509000000E+03  0.12509000000E+03 0.  0.
        -11    1    3    3    0    0 -0.15112066271E+02 -0.47093718715E+02 -0.31360108325E+01  0.49558323757E+02  0.51100000000E-03 0. -1.
         23    2    1    0    0    0 -0.84887510797E+01 -0.19636847652E+02  0.26855009227E+02  0.90755524598E+02  0.84010172264E+02 0.  0.
         11    1    3    3    0    0  0.66233151912E+01  0.27456871063E+02  0.29991020059E+02  0.41197200841E+02  0.51100000000E-03 0.  1.
         22    1    1    0    0    0  0.84887510797E+01  0.19636847652E+02 -0.26855009227E+02  0.34334475402E+02  0.00000000000E+00 0. -1.
</event>
<event>
 5    1  0.1047411E-009  0.9118800E+02  0.7815553E-02  0.1125453E+00
         25   -1    0    0    0    0  0.00000000000E+00  0.00000000000E+00  0.99999998245E-14  0.12509000000E+03  0.12509000000E+03 0.  0.
        -11    1    3    3    0    0 -0.31646208091E+02 -0.41942498931E+02  0.20336975693E+02  0.56340467550E+02  0.51100000000E-03 0. -1.
         23    2    1    0    0    0 -0.80035130219E+01 -0.26806625193E+02 -0.77594095829E+01  0.96057951984E+02  0.91565661290E+02 0.  0.
         11    1    3    3    0    0  0.23642695069E+02  0.15135873739E+02 -0.28096385275E+02  0.39717484434E+02  0.51100000000E-03 0.  1.
         22    1    1    0    0    0  0.80035130219E+01  0.26806625193E+02  0.77594095829E+01  0.29032048016E+02  0.00000000000E+00 0. -1.
</event>
<event>
 5    1  0.1047411E-009  0.9118800E+02  0.7815553E-02  0.1125453E+00
         25   -1    0    0    0    0  0.00000000000E+00  0.00000000000E+00  0.99999998245E-14  0.12509000000E+03  0.12509000000E+03 0.  0.
        -11    1    3    3    0    0 -0.35141795588E+02  0.20767982181E+02  0.14425794862E+02  0.43293861443E+02  0.51100000000E-03 0. -1.
         23    2    1    0    0    0 -0.47055334325E+01 -0.83994500165E+01  0.33986083513E+02  0.89766542100E+02  0.82524453361E+02 0.  0.
         11    1    3    3    0    0  0.30436262155E+02 -0.29167432198E+02  0.19560288652E+02  0.46472680656E+02  0.51100000000E-03 0.  1.
         22    1    1    0    0    0  0.47055334325E+01  0.83994500165E+01 -0.33986083513E+02  0.35323457900E+02  0.00000000000E+00 0. -1.
</event>
<event>
 5    1  0.1047411E-009  0.9118800E+02  0.7815553E-02  0.1125453E+00
         25   -1    0    0    0    0  0.00000000000E+00  0.00000000000E+00  0.99999998245E-14  0.12509000000E+03  0.12509000000E+03 0.  0.
        -11    1    3    3    0    0  0.15914957459E+01 -0.56049021812E+01  0.36259947324E+02  0.36725080903E+02  0.51100000000E-03 0. -1.
         23    2    1    0    0    0 -0.23182996123E+02 -0.75063069337E+01 -0.16920254761E+02  0.95423672721E+02  0.90695018284E+02 0.  0.
         11    1    3    3    0    0 -0.24774491869E+02 -0.19014047525E+01 -0.53180202085E+02  0.58698591818E+02  0.51100000000E-03 0.  1.
         22    1    1    0    0    0  0.23182996123E+02  0.75063069337E+01  0.16920254761E+02  0.29666327279E+02  0.00000000000E+00 0.  1.
</event>
<event>
 5    1  0.1047411E-009  0.9118800E+02  0.7815553E-02  0.1125453E+00
         25   -1    0    0    0    0  0.00000000000E+00  0.00000000000E+00  0.99999998245E-14  0.12509000000E+03  0.12509000000E+03 0.  0.
        -11    1    3    3    0    0  0.26638069271E+02 -0.34312379163E+02 -0.37131655596E+02  0.57146180501E+02  0.51100000000E-03 0.  1.
         23    2    1    0    0    0  0.18282453113E+00 -0.27659968443E+02 -0.98454708414E+01  0.95729472498E+02  0.91115812731E+02 0.  0.
         11    1    3    3    0    0 -0.26455244740E+02  0.66524107197E+01  0.27286184755E+02  0.38583291997E+02  0.51100000000E-03 0. -1.
         22    1    1    0    0    0 -0.18282453113E+00  0.27659968443E+02  0.98454708414E+01  0.29360527502E+02  0.00000000000E+00 0.  1.
</event>
<event>
 5    1  0.1047411E-009  0.9118800E+02  0.7815553E-02  0.1125453E+00
         25   -1    0    0    0    0  0.00000000000E+00  0.00000000000E+00  0.99999998245E-14  0.12509000000E+03  0.12509000000E+03 0.  0.
        -11    1    3    3    0    0  0.22520586605E+02 -0.24150603983E+01  0.33296437282E+02  0.40269865578E+02  0.51100000000E-03 0.  1.
         23    2    1    0    0    0  0.10472633566E+02 -0.18063954908E+02 -0.19426463822E+02  0.96570357342E+02  0.92263014799E+02 0.  0.
         11    1    3    3    0    0 -0.12047953038E+02 -0.15648894509E+02 -0.52722901104E+02  0.56300491764E+02  0.51100000000E-03 0. -1.
         22    1    1    0    0    0 -0.10472633566E+02  0.18063954908E+02  0.19426463822E+02  0.28519642658E+02  0.00000000000E+00 0. -1.
</event>
<event>
 5    1  0.1047411E-009  0.9118800E+02  0.7815553E-02  0.1125453E+00
         25   -1    0    0    0    0  0.00000000000E+00  0.00000000000E+00  0.99999998245E-14  0.12509000000E+03  0.12509000000E+03 0.  0.
        -11    1    3    3    0    0  0.46598439541E+02  0.25311794667E+02  0.23422573241E+02  0.57971703911E+02  0.51100000000E-03 0.  1.
         23    2    1    0    0    0  0.15181364917E+02  0.38410164135E+01  0.24468984141E+02  0.96039037318E+02  0.91539817874E+02 0.  0.
         11    1    3    3    0    0 -0.31417074624E+02 -0.21470778253E+02  0.10464108997E+01  0.38067333407E+02  0.51100000000E-03 0. -1.
         22    1    1    0    0    0 -0.15181364917E+02 -0.38410164135E+01 -0.24468984141E+02  0.29050962682E+02  0.00000000000E+00 0.  1.
</event>
<event>
 5    1  0.1047411E-009  0.9118800E+02  0.7815553E-02  0.1125453E+00
         25   -1    0    0    0    0  0.00000000000E+00  0.00000000000E+00  0.99999998245E-14  0.12509000000E+03  0.12509000000E+03 0.  0.
        -11    1    3    3    0    0 -0.14779705536E+02 -0.36093325715E+02  0.83383937213E+01  0.39883538798E+02  0.51100000000E-03 0. -1.
         23    2    1    0    0    0  0.30787595973E+02 -0.13393071655E+02 -0.26762570958E+00  0.91514382989E+02  0.85132603837E+02 0.  0.
         11    1    3    3    0    0  0.45567301509E+02  0.22700254060E+02 -0.86060194309E+01  0.51630844191E+02  0.51100000000E-03 0.  1.
         22    1    1    0    0    0 -0.30787595973E+02  0.13393071655E+02  0.26762570958E+00  0.33575617011E+02  0.00000000000E+00 0.  1.
</event>
<event>
 5    1  0.1047411E-009  0.9118800E+02  0.7815553E-02  0.1125453E+00
         25   -1    0    0    0    0  0.00000000000E+00  0.00000000000E+00  0.99999998245E-14  0.12509000000E+03  0.12509000000E+03 0.  0.
        -11    1    3    3    0    0  0.46686798270E+00 -0.56918260393E+00 -0.36347682032E+02  0.36355136142E+02  0.51100000000E-03 0.  1.
         23    2    1    0    0    0 -0.35000536493E+01 -0.25236823703E+02  0.16447689491E+02  0.94763870412E+02  0.89780382043E+02 0.  0.
         11    1    3    3    0    0 -0.39669216320E+01 -0.24667641099E+02  0.52795371523E+02  0.58408734271E+02  0.51100000000E-03 0. -1.
         22    1    1    0    0    0  0.35000536493E+01  0.25236823703E+02 -0.16447689491E+02  0.30326129588E+02  0.00000000000E+00 0. -1.
</event>
<event>
 5    1  0.1047411E-009  0.9118800E+02  0.7815553E-02  0.1125453E+00
         25   -1    0    0    0    0  0.00000000000E+00  0.00000000000E+00  0.99999998245E-14  0.12509000000E+03  0.12509000000E+03 0.  0.
        -11    1    3    3    0    0  0.23612937555E+02 -0.26673546737E+02  0.23519465484E+02  0.42687400628E+02  0.51100000000E-03 0.  1.
         23    2    1    0    0    0 -0.19500072481E+02  0.31023787810E+01  0.22583598402E+02  0.95091725089E+02  0.90236022091E+02 0.  0.
         11    1    3    3    0    0 -0.43113010036E+02  0.29775925518E+02 -0.93586708213E+00  0.52404324461E+02  0.51100000000E-03 0. -1.
         22    1    1    0    0    0  0.19500072481E+02 -0.31023787810E+01 -0.22583598402E+02  0.29998274911E+02  0.00000000000E+00 0. -1.
</event>
<event>
 5    1  0.1047411E-009  0.9118800E+02  0.7815553E-02  0.1125453E+00
         25   -1    0    0    0    0  0.00000000000E+00  0.00000000000E+00  0.99999998245E-14  0.12509000000E+03  0.12509000000E+03 0.  0.
        -11    1    3    3    0    0  0.32959491221E+02  0.13879156428E+02  0.37641735542E+01  0.35960089649E+02  0.51100000000E-03 0. -1.
         23    2    1    0    0    0 -0.19929450623E+02 -0.15384150172E+02  0.12411617624E+02  0.97020384209E+02  0.92871156025E+02 0.  0.
         11    1    3    3    0    0 -0.52888941844E+02 -0.29263306600E+02  0.86474440695E+01  0.61060294560E+02  0.51100000000E-03 0.  1.
         22    1    1    0    0    0  0.19929450623E+02  0.15384150172E+02 -0.12411617624E+02  0.28069615791E+02  0.00000000000E+00 0.  1.
</event>
<event>
 5    1  0.1047411E-009  0.9118800E+02  0.7815553E-02  0.1125453E+00
         25   -1    0    0    0    0  0.00000000000E+00  0.00000000000E+00  0.99999998245E-14  0.12509000000E+03  0.12509000000E+03 0.  0.
        -11    1    3    3    0    0 -0.38430631306E+02 -0.41752974229E+02  0.54898274951E+01  0.57011950376E+02  0.51100000000E-03 0.  1.
         23    2    1    0    0    0 -0.11477419083E+02 -0.27901230093E+02 -0.12700026871E+02  0.92356218183E+02  0.86360700351E+02 0.  0.
         11    1    3    3    0    0  0.26953212222E+02  0.13851744136E+02 -0.18189854366E+02  0.35344267807E+02  0.51100000000E-03 0. -1.
         22    1    1    0    0    0  0.11477419083E+02  0.27901230093E+02  0.12700026871E+02  0.32733781817E+02  0.00000000000E+00 0.  1.
</event>
<event>
 5    1  0.1047411E-009  0.9118800E+02  0.7815553E-02  0.1125453E+00
         25   -1    0    0    0    0  0.00000000000E+00  0.00000000000E+00  0.99999998245E-14  0.12509000000E+03  0.12509000000E+03 0.  0.
        -11    1    3    3    0    0 -0.27029648142E+02  0.98170031172E+01  0.26231264028E+02  0.38923702826E+02  0.51100000000E-03 0.  1.
         23    2    1    0    0    0 -0.48378969691E+01 -0.26062282183E+02 -0.12124788729E+02  0.95941101198E+02  0.91405889294E+02 0.  0.
         11    1    3    3    0    0  0.22191751173E+02 -0.35879285300E+02 -0.38356052757E+02  0.57017398372E+02  0.51100000000E-03 0. -1.
         22    1    1    0    0    0  0.48378969691E+01  0.26062282183E+02  0.12124788729E+02  0.29148898802E+02  0.00000000000E+00 0. -1.
</event>
<event>
 5    1  0.1047411E-009  0.9118800E+02  0.7815553E-02  0.1125453E+00
         25   -1    0    0    0    0  0.00000000000E+00  0.00000000000E+00  0.99999998245E-14  0.12509000000E+03  0.12509000000E+03 0.  0.
        -11    1    3    3    0    0 -0.54680247383E+02 -0.11924100125E+02  0.20933458915E+02  0.59752182555E+02  0.51100000000E-03 0.  1.
         23    2    1    0    0    0 -0.22159216879E+02  0.34342208285E+01  0.18880990746E+02  0.95775897985E+02  0.91179526528E+02 0.  0.
         11    1    3    3    0    0  0.32521030504E+02  0.15358320954E+02 -0.20524681695E+01  0.36023715430E+02  0.51100000000E-03 0. -1.
         22    1    1    0    0    0  0.22159216879E+02 -0.34342208285E+01 -0.18880990746E+02  0.29314102015E+02  0.00000000000E+00 0.  1.
</event>
<event>
 5    1  0.1047411E-009  0.9118800E+02  0.7815553E-02  0.1125453E+00
         25   -1    0    0    0    0  0.00000000000E+00  0.00000000000E+00  0.99999998245E-14  0.12509000000E+03  0.12509000000E+03 0.  0.
        -11    1    3    3    0    0 -0.94722200497E+00 -0.24557268402E+02 -0.22933517417E+02  0.33614028057E+02  0.51100000000E-03 0.  1.
         23    2    1    0    0    0  0.51433774778E+01  0.31435399266E+02 -0.42535264415E+01  0.92953865415E+02  0.87222072605E+02 0.  0.
         11    1    3    3    0    0  0.60905994828E+01  0.55992667667E+02  0.18679990975E+02  0.59339837358E+02  0.51100000000E-03 0. -1.
         22    1    1    0    0    0 -0.51433774778E+01 -0.31435399266E+02  0.42535264415E+01  0.32136134585E+02  0.00000000000E+00 0. -1.
</event>
<event>
 5    1  0.1047411E-009  0.9118800E+02  0.7815553E-02  0.1125453E+00
         25   -1    0    0    0    0  0.00000000000E+00  0.00000000000E+00  0.99999998245E-14  0.12509000000E+03  0.12509000000E+03 0.  0.
        -11    1    3    3    0    0  0.41006579402E+02 -0.47017455003E+02 -0.32746970705E+01  0.62473228429E+02  0.51100000000E-03 0.  1.
         23    2    1    0    0    0  0.33724426523E+02 -0.36050795180E+02 -0.27214626354E+01  0.75649094503E+02  0.57257159926E+02 0.  0.
         11    1    3    3    0    0 -0.72821528783E+01  0.10966659823E+02  0.55323443509E+00  0.13175866074E+02  0.51100000000E-03 0. -1.
         22    1    1    0    0    0 -0.33724426523E+02  0.36050795180E+02  0.27214626354E+01  0.49440905497E+02  0.00000000000E+00 0.  1.
</event>
<event>
 5    1  0.1047411E-009  0.9118800E+02  0.7815553E-02  0.1125453E+00
         25   -1    0    0    0    0  0.00000000000E+00  0.00000000000E+00  0.99999998245E-14  0.12509000000E+03  0.12509000000E+03 0.  0.
        -11    1    3    3    0    0  0.67690365252E+01 -0.36395732681E+02 -0.44427840159E+02  0.57829942022E+02  0.51100000000E-03 0. -1.
         23    2    1    0    0    0  0.93551293653E+01 -0.26592676441E+02 -0.77920428808E+01  0.95842695543E+02  0.91271120685E+02 0.  0.
         11    1    3    3    0    0  0.25860928402E+01  0.98030562403E+01  0.36635797278E+02  0.38012753521E+02  0.51100000000E-03 0.  1.
         22    1    1    0    0    0 -0.93551293653E+01  0.26592676441E+02  0.77920428808E+01  0.29247304457E+02  0.00000000000E+00 0. -1.
</event>
<event>
 5    1  0.1047411E-009  0.9118800E+02  0.7815553E-02  0.1125453E+00
         25   -1    0    0    0    0  0.00000000000E+00  0.00000000000E+00  0.99999998245E-14  0.12509000000E+03  0.12509000000E+03 0.  0.
        -11    1    3    3    0    0  0.34999271926E+02 -0.11078923989E+02  0.40887583409E+02  0.54949850494E+02  0.51100000000E-03 0.  1.
         23    2    1    0    0    0  0.25170155473E+02  0.14519208022E+02  0.16337729924E+02  0.91754350206E+02  0.85484473646E+02 0.  0.
         11    1    3    3    0    0 -0.98291164527E+01  0.25598132010E+02 -0.24549853485E+02  0.36804499712E+02  0.51100000000E-03 0. -1.
         22    1    1    0    0    0 -0.25170155473E+02 -0.14519208022E+02 -0.16337729924E+02  0.33335649794E+02  0.00000000000E+00 0.  1.
</event>
<event>
 5    1  0.1047411E-009  0.9118800E+02  0.7815553E-02  0.1125453E+00
         25   -1    0    0    0    0  0.00000000000E+00  0.00000000000E+00  0.99999998245E-14  0.12509000000E+03  0.12509000000E+03 0.  0.
        -11    1    3    3    0    0  0.12799699016E+00 -0.40183534389E+02  0.33898043245E+02  0.52571952174E+02  0.51100000000E-03 0.  1.
         23    2    1    0    0    0  0.14333776384E+02 -0.29312699388E+02 -0.17047636642E+01  0.92415886240E+02  0.86447083928E+02 0.  0.
         11    1    3    3    0    0  0.14205779394E+02  0.10870835001E+02 -0.35602806910E+02  0.39843934067E+02  0.51100000000E-03 0. -1.
         22    1    1    0    0    0 -0.14333776384E+02  0.29312699388E+02  0.17047636642E+01  0.32674113760E+02  0.00000000000E+00 0.  1.
</event>
<event>
 5    1  0.1047411E-009  0.9118800E+02  0.7815553E-02  0.1125453E+00
         25   -1    0    0    0    0  0.00000000000E+00  0.00000000000E+00  0.99999998245E-14  0.12509000000E+03  0.12509000000E+03 0.  0.
        -11    1    3    3    0    0  0.17735301212E+02  0.13567113849E+02 -0.47395341775E+02  0.52392040516E+02  0.51100000000E-03 0.  1.
         23    2    1    0    0    0 -0.14089437499E+02 -0.37584897588E+01 -0.28069405921E+02  0.93458843792E+02  0.87943308101E+02 0.  0.
         11    1    3    3    0    0 -0.31824738711E+02 -0.17325603608E+02  0.19325935854E+02  0.41066803276E+02  0.51100000000E-03 0. -1.
         22    1    1    0    0    0  0.14089437499E+02  0.37584897588E+01  0.28069405921E+02  0.31631156208E+02  0.00000000000E+00 0.  1.
</event>
<event>
 5    1  0.1047411E-009  0.9118800E+02  0.7815553E-02  0.1125453E+00
         25   -1    0    0    0    0  0.00000000000E+00  0.00000000000E+00  0.99999998245E-14  0.12509000000E+03  0.12509000000E+03 0.  0.
        -11    1    3    3    0    0 -0.18226689362E+02  0.19158684803E+02 -0.22484935002E+02  0.34710801068E+02  0.51100000000E-03 0. -1.
         23    2    1    0    0    0  0.27092802511E+02  0.69072396991E+01  0.13671962802E+02  0.93966817723E+02  0.88662902942E+02 0.  0.
         11    1    3    3    0    0  0.45319491873E+02 -0.12251445104E+02  0.36156897804E+02  0.59256016655E+02  0.51100000000E-03 0.  1.
         22    1    1    0    0    0 -0.27092802511E+02 -0.69072396991E+01 -0.13671962802E+02  0.31123182277E+02  0.00000000000E+00 0.  1.
</event>
<event>
 5    1  0.1047411E-009  0.9118800E+02  0.7815553E-02  0.1125453E+00
         25   -1    0    0    0    0  0.00000000000E+00  0.00000000000E+00  0.99999998245E-14  0.12509000000E+03  0.12509000000E+03 0.  0.
        -11    1    3    3    0    0  0.82219130551E+01 -0.14933364208E+02  0.35243095576E+02  0.39149470072E+02  0.51100000000E-03 0.  1.
         23    2    1    0    0    0 -0.26550112729E+02  0.81972609864E+01 -0.46650873513E+01  0.96914361345E+02  0.92728241768E+02 0.  0.
         11    1    3    3    0    0 -0.34772025784E+02  0.23130625195E+02 -0.39908182927E+02  0.57764891274E+02  0.51100000000E-03 0. -1.
         22    1    1    0    0    0  0.26550112729E+02 -0.81972609864E+01  0.46650873513E+01  0.28175638655E+02  0.00000000000E+00 0. -1.
</event>
<event>
 5    1  0.1047411E-009  0.9118800E+02  0.7815553E-02  0.1125453E+00
         25   -1    0    0    0    0  0.00000000000E+00  0.00000000000E+00  0.99999998245E-14  0.12509000000E+03  0.12509000000E+03 0.  0.
        -11    1    3    3    0    0 -0.41969350900E+02 -0.34637563544E+02 -0.26470599178E+01  0.54481135723E+02  0.51100000000E-03 0.  1.
         23    2    1    0    0    0 -0.28669991529E+02  0.37850886393E+01 -0.68918549670E+01  0.95361344208E+02  0.90609011660E+02 0.  0.
         11    1    3    3    0    0  0.13299359370E+02  0.38422652184E+02 -0.42447950492E+01  0.40880208485E+02  0.51100000000E-03 0. -1.
         22    1    1    0    0    0  0.28669991529E+02 -0.37850886393E+01  0.68918549670E+01  0.29728655792E+02  0.00000000000E+00 0.  1.
</event>
<event>
 5    1  0.1047411E-009  0.9118800E+02  0.7815553E-02  0.1125453E+00
         25   -1    0    0    0    0  0.00000000000E+00  0.00000000000E+00  0.99999998245E-14  0.12509000000E+03  0.12509000000E+03 0.  0.
        -11    1    3    3    0    0  0.42018609581E+02 -0.60389076696E+01  0.14230971470E+02  0.44772229185E+02  0.51100000000E-03 0.  1.
         23    2    1    0    0    0 -0.55338938613E+01 -0.65362373699E+01  0.29225679218E+02  0.94635333593E+02  0.89601114158E+02 0.  0.
         11    1    3    3    0    0 -0.47552503442E+02 -0.49732970022E+00  0.14994707747E+02  0.49863104408E+02  0.51100000000E-03 0. -1.
         22    1    1    0    0    0  0.55338938613E+01  0.65362373699E+01 -0.29225679218E+02  0.30454666407E+02  0.00000000000E+00 0. -1.
</event>
<event>
 5    1  0.1047411E-009  0.9118800E+02  0.7815553E-02  0.1125453E+00
         25   -1    0    0    0    0  0.00000000000E+00  0.00000000000E+00  0.99999998245E-14  0.12509000000E+03  0.12509000000E+03 0.  0.
        -11    1    3    3    0    0 -0.37576649016E+02 -0.33432664278E+02 -0.15795851738E+02  0.52718654425E+02  0.51100000000E-03 0.  1.
         23    2    1    0    0    0  0.15247471934E+01 -0.16244466703E+02 -0.23859171287E+02  0.96185543476E+02  0.91739801432E+02 0.  0.
         11    1    3    3    0    0  0.39101396209E+02  0.17188197575E+02 -0.80633195490E+01  0.43466889051E+02  0.51100000000E-03 0. -1.
         22    1    1    0    0    0 -0.15247471934E+01  0.16244466703E+02  0.23859171287E+02  0.28904456524E+02  0.00000000000E+00 0.  1.
</event>
<event>
 5    1  0.1047411E-009  0.9118800E+02  0.7815553E-02  0.1125453E+00
         25   -1    0    0    0    0  0.00000000000E+00  0.00000000000E+00  0.99999998245E-14  0.12509000000E+03  0.12509000000E+03 0.  0.
        -11    1    3    3    0    0  0.45354136462E+02  0.21472404672E+02 -0.21401914300E+02  0.54553678085E+02  0.51100000000E-03 0.  1.
         23    2    1    0    0    0  0.19092896120E+02  0.24514316754E+02  0.68772831884E+01  0.93265678605E+02  0.87668120622E+02 0.  0.
         11    1    3    3    0    0 -0.26261240342E+02  0.30419120821E+01  0.28279197489E+02  0.38712000520E+02  0.51100000000E-03 0. -1.
         22    1    1    0    0    0 -0.19092896120E+02 -0.24514316754E+02 -0.68772831884E+01  0.31824321395E+02  0.00000000000E+00 0.  1.
</event>
<event>
 5    1  0.1047411E-009  0.9118800E+02  0.7815553E-02  0.1125453E+00
         25   -1    0    0    0    0  0.00000000000E+00  0.00000000000E+00  0.99999998245E-14  0.12509000000E+03  0.12509000000E+03 0.  0.
        -11    1    3    3    0    0  0.38338085334E+02  0.29333339848E+02 -0.15501989748E+01  0.48297585145E+02  0.51100000000E-03 0. -1.
         23    2    1    0    0    0  0.19605059139E+02 -0.13208035176E+02 -0.15492110170E+02  0.96826666606E+02  0.92609866382E+02 0.  0.
         11    1    3    3    0    0 -0.18733026195E+02 -0.42541375024E+02 -0.13941911195E+02  0.48529081461E+02  0.51100000000E-03 0.  1.
         22    1    1    0    0    0 -0.19605059139E+02  0.13208035176E+02  0.15492110170E+02  0.28263333394E+02  0.00000000000E+00 0. -1.
</event>
<event>
 5    1  0.1047411E-009  0.9118800E+02  0.7815553E-02  0.1125453E+00
         25   -1    0    0    0    0  0.00000000000E+00  0.00000000000E+00  0.99999998245E-14  0.12509000000E+03  0.12509000000E+03 0.  0.
        -11    1    3    3    0    0  0.39833017085E+02 -0.26281102522E+02 -0.18575521794E+02  0.51209526555E+02  0.51100000000E-03 0.  1.
         23    2    1    0    0    0  0.25849199027E+02  0.50007572357E+01  0.11079437305E+02  0.96525291105E+02  0.92201893846E+02 0.  0.
         11    1    3    3    0    0 -0.13983818058E+02  0.31281859757E+02  0.29654959098E+02  0.45315764550E+02  0.51100000000E-03 0. -1.
         22    1    1    0    0    0 -0.25849199027E+02 -0.50007572357E+01 -0.11079437305E+02  0.28564708895E+02  0.00000000000E+00 0.  1.
</event>
<event>
 5    1  0.1047411E-009  0.9118800E+02  0.7815553E-02  0.1125453E+00
         25   -1    0    0    0    0  0.00000000000E+00  0.00000000000E+00  0.99999998245E-14  0.12509000000E+03  0.12509000000E+03 0.  0.
        -11    1    3    3    0    0  0.31556571266E+02 -0.40944046496E+02  0.24940925606E+02  0.57395835248E+02  0.51100000000E-03 0.  1.
         23    2    1    0    0    0  0.22245706631E+02 -0.16574082187E+02 -0.47775792253E+01  0.96940454229E+02  0.92763434278E+02 0.  0.
         11    1    3    3    0    0 -0.93108646349E+01  0.24369964309E+02 -0.29718504832E+02  0.39544618981E+02  0.51100000000E-03 0. -1.
         22    1    1    0    0    0 -0.22245706631E+02  0.16574082187E+02  0.47775792253E+01  0.28149545771E+02  0.00000000000E+00 0.  1.
</event>
<event>
 5    1  0.1047411E-009  0.9118800E+02  0.7815553E-02  0.1125453E+00
         25   -1    0    0    0    0  0.00000000000E+00  0.00000000000E+00  0.99999998245E-14  0.12509000000E+03  0.12509000000E+03 0.  0.
        -11    1    3    3    0    0  0.63740916699E+01  0.74786182187E+01 -0.39212494923E+02  0.40424974130E+02  0.51100000000E-03 0.  1.
         23    2    1    0    0    0 -0.14123554078E+02 -0.24593159020E+02  0.21661371255E+01  0.96647243445E+02  0.92367197993E+02 0.  0.
         11    1    3    3    0    0 -0.20497645748E+02 -0.32071777239E+02  0.41378632048E+02  0.56222269315E+02  0.51100000000E-03 0. -1.
         22    1    1    0    0    0  0.14123554078E+02  0.24593159020E+02 -0.21661371255E+01  0.28442756555E+02  0.00000000000E+00 0.  1.
</event>
<event>
 5    1  0.1047411E-009  0.9118800E+02  0.7815553E-02  0.1125453E+00
         25   -1    0    0    0    0  0.00000000000E+00  0.00000000000E+00  0.99999998245E-14  0.12509000000E+03  0.12509000000E+03 0.  0.
        -11    1    3    3    0    0  0.34038168722E+02  0.34402470257E+02  0.16885439132E+02  0.51256657564E+02  0.51100000000E-03 0. -1.
         23    2    1    0    0    0  0.25374429896E+02 -0.94793263854E+01  0.78398155644E+01  0.96891027867E+02  0.92696759662E+02 0.  0.
         11    1    3    3    0    0 -0.86637388264E+01 -0.43881796642E+02 -0.90456235674E+01  0.45634370303E+02  0.51100000000E-03 0.  1.
         22    1    1    0    0    0 -0.25374429896E+02  0.94793263854E+01 -0.78398155644E+01  0.28198972133E+02  0.00000000000E+00 0. -1.
</event>
<event>
 5    1  0.1047411E-009  0.9118800E+02  0.7815553E-02  0.1125453E+00
         25   -1    0    0    0    0  0.00000000000E+00  0.00000000000E+00  0.99999998245E-14  0.12509000000E+03  0.12509000000E+03 0.  0.
        -11    1    3    3    0    0  0.90430569117E+01 -0.23593146160E+02  0.21934333310E+02  0.33459354478E+02  0.51100000000E-03 0.  1.
         23    2    1    0    0    0  0.84364845220E+01  0.16605755589E+02 -0.24134521460E+02  0.94603929150E+02  0.89557260425E+02 0.  0.
         11    1    3    3    0    0 -0.60657238962E+00  0.40198901748E+02 -0.46068854770E+02  0.61144574673E+02  0.51100000000E-03 0. -1.
         22    1    1    0    0    0 -0.84364845220E+01 -0.16605755589E+02  0.24134521460E+02  0.30486070850E+02  0.00000000000E+00 0. -1.
</event>
<event>
 5    1  0.1047411E-009  0.9118800E+02  0.7815553E-02  0.1125453E+00
         25   -1    0    0    0    0  0.00000000000E+00  0.00000000000E+00  0.99999998245E-14  0.12509000000E+03  0.12509000000E+03 0.  0.
        -11    1    3    3    0    0 -0.33922667618E+02  0.22261212057E+02 -0.17570115813E+01  0.40612756992E+02  0.51100000000E-03 0. -1.
         23    2    1    0    0    0  0.21002692047E+02  0.19282151288E+02 -0.65769089090E+01  0.95829614454E+02  0.91253190870E+02 0.  0.
         11    1    3    3    0    0  0.54925359665E+02 -0.29790607690E+01 -0.48198973276E+01  0.55216857461E+02  0.51100000000E-03 0.  1.
         22    1    1    0    0    0 -0.21002692047E+02 -0.19282151288E+02  0.65769089090E+01  0.29260385546E+02  0.00000000000E+00 0.  1.
</event>
<event>
 5    1  0.1047411E-009  0.9118800E+02  0.7815553E-02  0.1125453E+00
         25   -1    0    0    0    0  0.00000000000E+00  0.00000000000E+00  0.99999998245E-14  0.12509000000E+03  0.12509000000E+03 0.  0.
        -11    1    3    3    0    0  0.10781349357E+02 -0.36556649109E+01 -0.27329065366E+02  0.29605391299E+02  0.51100000000E-03 0. -1.
         23    2    1    0    0    0 -0.17039584006E+02  0.10957448940E+02  0.26377683786E+02  0.91830485387E+02  0.85595810261E+02 0.  0.
         11    1    3    3    0    0 -0.27820933363E+02  0.14613113851E+02  0.53706749152E+02  0.62225094089E+02  0.51100000000E-03 0.  1.
         22    1    1    0    0    0  0.17039584006E+02 -0.10957448940E+02 -0.26377683786E+02  0.33259514613E+02  0.00000000000E+00 0.  1.
</event>
<event>
 5    1  0.1047411E-009  0.9118800E+02  0.7815553E-02  0.1125453E+00
         25   -1    0    0    0    0  0.00000000000E+00  0.00000000000E+00  0.99999998245E-14  0.12509000000E+03  0.12509000000E+03 0.  0.
        -11    1    3    3    0    0  0.11671239065E+02  0.45922404455E+02  0.27260787846E+02  0.54664756530E+02  0.51100000000E-03 0. -1.
         23    2    1    0    0    0 -0.15725812258E+02  0.21429286201E+02  0.38630778518E+01  0.98230386288E+02  0.94486877086E+02 0.  0.
         11    1    3    3    0    0 -0.27397051323E+02 -0.24493118254E+02 -0.23397709994E+02  0.43565629758E+02  0.51100000000E-03 0.  1.
         22    1    1    0    0    0  0.15725812258E+02 -0.21429286201E+02 -0.38630778518E+01  0.26859613712E+02  0.00000000000E+00 0. -1.
</event>
<event>
 5    1  0.1047411E-009  0.9118800E+02  0.7815553E-02  0.1125453E+00
         25   -1    0    0    0    0  0.00000000000E+00  0.00000000000E+00  0.99999998245E-14  0.12509000000E+03  0.12509000000E+03 0.  0.
        -11    1    3    3    0    0  0.49026525612E+01 -0.50577569956E+02 -0.34752340591E+02  0.61561771918E+02  0.51100000000E-03 0. -1.
         23    2    1    0    0    0  0.45238163996E+01 -0.18779120395E+02 -0.21971701827E+02  0.95834642220E+02  0.91260082679E+02 0.  0.
         11    1    3    3    0    0 -0.37883616163E+00  0.31798449561E+02  0.12780638764E+02  0.34272870303E+02  0.51100000000E-03 0.  1.
         22    1    1    0    0    0 -0.45238163996E+01  0.18779120395E+02  0.21971701827E+02  0.29255357780E+02  0.00000000000E+00 0. -1.
</event>
<event>
 5    1  0.1047411E-009  0.9118800E+02  0.7815553E-02  0.1125453E+00
         25   -1    0    0    0    0  0.00000000000E+00  0.00000000000E+00  0.99999998245E-14  0.12509000000E+03  0.12509000000E+03 0.  0.
        -11    1    3    3    0    0  0.29501411359E+02  0.20666521148E+02  0.13127023364E+01  0.36043883756E+02  0.51100000000E-03 0.  1.
         23    2    1    0    0    0 -0.22847858627E+02 -0.87217231977E+01 -0.12467585777E+02  0.97639429979E+02  0.93701251284E+02 0.  0.
         11    1    3    3    0    0 -0.52349269986E+02 -0.29388244346E+02 -0.13780288113E+02  0.61595546223E+02  0.51100000000E-03 0. -1.
         22    1    1    0    0    0  0.22847858627E+02  0.87217231977E+01  0.12467585777E+02  0.27450570021E+02  0.00000000000E+00 0. -1.
</event>
<event>
 5    1  0.1047411E-009  0.9118800E+02  0.7815553E-02  0.1125453E+00
         25   -1    0    0    0    0  0.00000000000E+00  0.00000000000E+00  0.99999998245E-14  0.12509000000E+03  0.12509000000E+03 0.  0.
        -11    1    3    3    0    0 -0.38687448934E+02  0.45506468828E+02 -0.94878414663E+01  0.60477901305E+02  0.51100000000E-03 0. -1.
         23    2    1    0    0    0 -0.92079692004E+01  0.27770290561E+02 -0.72142878812E+01  0.94956601847E+02  0.90048512203E+02 0.  0.
         11    1    3    3    0    0  0.29479479734E+02 -0.17736178267E+02  0.22735535851E+01  0.34478700542E+02  0.51100000000E-03 0.  1.
         22    1    1    0    0    0  0.92079692004E+01 -0.27770290561E+02  0.72142878812E+01  0.30133398153E+02  0.00000000000E+00 0. -1.
</event>
<event>
 5    1  0.1047411E-009  0.9118800E+02  0.7815553E-02  0.1125453E+00
         25   -1    0    0    0    0  0.00000000000E+00  0.00000000000E+00  0.99999998245E-14  0.12509000000E+03  0.12509000000E+03 0.  0.
        -11    1    3    3    0    0  0.52039746724E+02 -0.17825176085E+02  0.26397156380E+02  0.61013785383E+02  0.51100000000E-03 0.  1.
         23    2    1    0    0    0  0.22811966740E+02 -0.14422903309E+02  0.44172431395E+01  0.97741910426E+02  0.93837961670E+02 0.  0.
         11    1    3    3    0    0 -0.29227779984E+02  0.34022727750E+01 -0.21979913240E+02  0.36728125043E+02  0.51100000000E-03 0. -1.
         22    1    1    0    0    0 -0.22811966740E+02  0.14422903309E+02 -0.44172431395E+01  0.27348089574E+02  0.00000000000E+00 0.  1.
</event>
<event>
 5    1  0.1047411E-009  0.9118800E+02  0.7815553E-02  0.1125453E+00
         25   -1    0    0    0    0  0.00000000000E+00  0.00000000000E+00  0.99999998245E-14  0.12509000000E+03  0.12509000000E+03 0.  0.
        -11    1    3    3    0    0  0.41350265443E+02 -0.66614692158E+01  0.15234878860E+02  0.44568163059E+02  0.51100000000E-03 0. -1.
         23    2    1    0    0    0  0.36038276313E+01 -0.32555320749E+02  0.17426545313E+01  0.92289491963E+02  0.86263995962E+02 0.  0.
         11    1    3    3    0    0 -0.37746437812E+02 -0.25893851533E+02 -0.13492224329E+02  0.47721328904E+02  0.51100000000E-03 0.  1.
         22    1    1    0    0    0 -0.36038276313E+01  0.32555320749E+02 -0.17426545313E+01  0.32800508037E+02  0.00000000000E+00 0. -1.
</event>
<event>
 5    1  0.1047411E-009  0.9118800E+02  0.7815553E-02  0.1125453E+00
         25   -1    0    0    0    0  0.00000000000E+00  0.00000000000E+00  0.99999998245E-14  0.12509000000E+03  0.12509000000E+03 0.  0.
        -11    1    3    3    0    0 -0.35020342546E+02 -0.48243884262E+00  0.75449350856E+01  0.35827129176E+02  0.51100000000E-03 0. -1.
         23    2    1    0    0    0  0.24544846031E+02 -0.95004827860E+01  0.11852608811E+02  0.96224917712E+02  0.91793473696E+02 0.  0.
         11    1    3    3    0    0  0.59565188577E+02 -0.90180439434E+01  0.43076737258E+01  0.60397788536E+02  0.51100000000E-03 0.  1.
         22    1    1    0    0    0 -0.24544846031E+02  0.95004827860E+01 -0.11852608811E+02  0.28865082288E+02  0.00000000000E+00 0.  1.
</event>
<event>
 5    1  0.1047411E-009  0.9118800E+02  0.7815553E-02  0.1125453E+00
         25   -1    0    0    0    0  0.00000000000E+00  0.00000000000E+00  0.99999998245E-14  0.12509000000E+03  0.12509000000E+03 0.  0.
        -11    1    3    3    0    0 -0.14577388212E+02  0.12264636989E+02 -0.30474795492E+02  0.35939320084E+02  0.51100000000E-03 0.  1.
         23    2    1    0    0    0  0.25510070367E+01 -0.41915528326E+01  0.26747794066E+02  0.97895860200E+02  0.94042959359E+02 0.  0.
         11    1    3    3    0    0  0.17128395248E+02 -0.16456189821E+02  0.57222589558E+02  0.61956540117E+02  0.51100000000E-03 0. -1.
         22    1    1    0    0    0 -0.25510070367E+01  0.41915528326E+01 -0.26747794066E+02  0.27194139800E+02  0.00000000000E+00 0. -1.
</event>
<event>
 5    1  0.1047411E-009  0.9118800E+02  0.7815553E-02  0.1125453E+00
         25   -1    0    0    0    0  0.00000000000E+00  0.00000000000E+00  0.99999998245E-14  0.12509000000E+03  0.12509000000E+03 0.  0.
        -11    1    3    3    0    0 -0.42699848713E+02 -0.33720369638E+02 -0.20405182553E+02  0.58109481876E+02  0.51100000000E-03 0.  1.
         23    2    1    0    0    0 -0.79644077056E+01 -0.21261860813E+02 -0.19718733630E+02  0.95017970283E+02  0.90133721244E+02 0.  0.
         11    1    3    3    0    0  0.34735441007E+02  0.12458508824E+02  0.68644892344E+00  0.36908488407E+02  0.51100000000E-03 0. -1.
         22    1    1    0    0    0  0.79644077056E+01  0.21261860813E+02  0.19718733630E+02  0.30072029717E+02  0.00000000000E+00 0.  1.
</event>
<event>
 5    1  0.1047411E-009  0.9118800E+02  0.7815553E-02  0.1125453E+00
         25   -1    0    0    0    0  0.00000000000E+00  0.00000000000E+00  0.99999998245E-14  0.12509000000E+03  0.12509000000E+03 0.  0.
        -11    1    3    3    0    0 -0.12300447715E+02  0.40863942671E+02 -0.10581510265E+02  0.43967387736E+02  0.51100000000E-03 0.  1.
         23    2    1    0    0    0 -0.21616648062E+02 -0.13113628438E+02 -0.69779112289E+01  0.98861428378E+02  0.95318644826E+02 0.  0.
         11    1    3    3    0    0 -0.93162003462E+01 -0.53977571109E+02  0.36035990361E+01  0.54894040642E+02  0.51100000000E-03 0. -1.
         22    1    1    0    0    0  0.21616648062E+02  0.13113628438E+02  0.69779112289E+01  0.26228571622E+02  0.00000000000E+00 0. -1.
</event>
<event>
 5    1  0.1047411E-009  0.9118800E+02  0.7815553E-02  0.1125453E+00
         25   -1    0    0    0    0  0.00000000000E+00  0.00000000000E+00  0.99999998245E-14  0.12509000000E+03  0.12509000000E+03 0.  0.
        -11    1    3    3    0    0  0.15473092867E+01 -0.53772334724E+02 -0.78233492743E+01  0.54360490632E+02  0.51100000000E-03 0.  1.
         23    2    1    0    0    0  0.20243642938E+02 -0.17035775350E+02 -0.12467442350E+02  0.95841754925E+02  0.91269831528E+02 0.  0.
         11    1    3    3    0    0  0.18696333651E+02  0.36736559373E+02 -0.46440930760E+01  0.41481264293E+02  0.51100000000E-03 0. -1.
         22    1    1    0    0    0 -0.20243642938E+02  0.17035775350E+02  0.12467442350E+02  0.29248245075E+02  0.00000000000E+00 0.  1.
</event>
<event>
 5    1  0.1047411E-009  0.9118800E+02  0.7815553E-02  0.1125453E+00
         25   -1    0    0    0    0  0.00000000000E+00  0.00000000000E+00  0.99999998245E-14  0.12509000000E+03  0.12509000000E+03 0.  0.
        -11    1    3    3    0    0 -0.22059247085E+02 -0.21296792735E+02  0.15100578349E+02  0.34178812582E+02  0.51100000000E-03 0. -1.
         23    2    1    0    0    0  0.26366091510E+02  0.22946809747E+01 -0.13729473763E+02  0.95274990490E+02  0.90489717763E+02 0.  0.
         11    1    3    3    0    0  0.48425338595E+02  0.23591473710E+02 -0.28830052112E+02  0.61096177908E+02  0.51100000000E-03 0.  1.
         22    1    1    0    0    0 -0.26366091510E+02 -0.22946809747E+01  0.13729473763E+02  0.29815009510E+02  0.00000000000E+00 0.  1.
</event>
<event>
 5    1  0.1047411E-009  0.9118800E+02  0.7815553E-02  0.1125453E+00
         25   -1    0    0    0    0  0.00000000000E+00  0.00000000000E+00  0.99999998245E-14  0.12509000000E+03  0.12509000000E+03 0.  0.
        -11    1    3    3    0    0 -0.34431505071E+02 -0.11407923735E+02  0.31998822186E+02  0.48369348630E+02  0.51100000000E-03 0.  1.
         23    2    1    0    0    0 -0.95533670870E+00  0.18899167947E+02  0.24480805944E+02  0.94148101594E+02  0.88918299336E+02 0.  0.
         11    1    3    3    0    0  0.33476168362E+02  0.30307091682E+02 -0.75180162419E+01  0.45778752964E+02  0.51100000000E-03 0. -1.
         22    1    1    0    0    0  0.95533670870E+00 -0.18899167947E+02 -0.24480805944E+02  0.30941898406E+02  0.00000000000E+00 0.  1.
</event>
<event>
 5    1  0.1047411E-009  0.9118800E+02  0.7815553E-02  0.1125453E+00
         25   -1    0    0    0    0  0.00000000000E+00  0.00000000000E+00  0.99999998245E-14  0.12509000000E+03  0.12509000000E+03 0.  0.
        -11    1    3    3    0    0 -0.33952180637E+02 -0.64540104365E+01  0.18088579449E+01  0.34607467229E+02  0.51100000000E-03 0.  1.
         23    2    1    0    0    0  0.23152308389E+02  0.97423048038E+01 -0.14398488144E+02  0.96137308459E+02  0.91674007932E+02 0.  0.
         11    1    3    3    0    0  0.57104489026E+02  0.16196315240E+02 -0.16207346089E+02  0.61529841230E+02  0.51100000000E-03 0. -1.
         22    1    1    0    0    0 -0.23152308389E+02 -0.97423048038E+01  0.14398488144E+02  0.28952691541E+02  0.00000000000E+00 0. -1.
</event>
<event>
 5    1  0.1047411E-009  0.9118800E+02  0.7815553E-02  0.1125453E+00
         25   -1    0    0    0    0  0.00000000000E+00  0.00000000000E+00  0.99999998245E-14  0.12509000000E+03  0.12509000000E+03 0.  0.
        -11    1    3    3    0    0  0.43570101244E+02  0.12784116368E+02  0.63002739508E+00  0.45411279309E+02  0.51100000000E-03 0.  1.
         23    2    1    0    0    0  0.13725131744E+02 -0.26729510571E+02  0.22735388437E+01  0.94956713494E+02  0.90048667297E+02 0.  0.
         11    1    3    3    0    0 -0.29844969501E+02 -0.39513626939E+02  0.16435114486E+01  0.49545434185E+02  0.51100000000E-03 0. -1.
         22    1    1    0    0    0 -0.13725131744E+02  0.26729510571E+02 -0.22735388437E+01  0.30133286506E+02  0.00000000000E+00 0. -1.
</event>
<event>
 5    1  0.1047411E-009  0.9118800E+02  0.7815553E-02  0.1125453E+00
         25   -1    0    0    0    0  0.00000000000E+00  0.00000000000E+00  0.99999998245E-14  0.12509000000E+03  0.12509000000E+03 0.  0.
        -11    1    3    3    0    0 -0.14612646057E+01  0.24386907852E+02 -0.25436813112E+02  0.35268796838E+02  0.51100000000E-03 0. -1.
         23    2    1    0    0    0  0.20499029041E+02 -0.83102764412E+01  0.19907726704E+02  0.95331161503E+02  0.90567333432E+02 0.  0.
         11    1    3    3    0    0  0.21960293646E+02 -0.32697184293E+02  0.45344539817E+02  0.60062364665E+02  0.51100000000E-03 0.  1.
         22    1    1    0    0    0 -0.20499029041E+02  0.83102764412E+01 -0.19907726704E+02  0.29758838497E+02  0.00000000000E+00 0.  1.
</event>
<event>
 5    1  0.1047411E-009  0.9118800E+02  0.7815553E-02  0.1125453E+00
         25   -1    0    0    0    0  0.00000000000E+00  0.00000000000E+00  0.99999998245E-14  0.12509000000E+03  0.12509000000E+03 0.  0.
        -11    1    3    3    0    0  0.11131230343E+02 -0.16327577394E+01 -0.57174812646E+02  0.58271171158E+02  0.51100000000E-03 0. -1.
         23    2    1    0    0    0 -0.40780092452E+01  0.12775175562E+02 -0.26064730973E+02  0.95777793144E+02  0.91182126477E+02 0.  0.
         11    1    3    3    0    0 -0.15209239588E+02  0.14407933302E+02  0.31110081673E+02  0.37506621986E+02  0.51100000000E-03 0.  1.
         22    1    1    0    0    0  0.40780092452E+01 -0.12775175562E+02  0.26064730973E+02  0.29312206856E+02  0.00000000000E+00 0. -1.
</event>
<event>
 5    1  0.1047411E-009  0.9118800E+02  0.7815553E-02  0.1125453E+00
         25   -1    0    0    0    0  0.00000000000E+00  0.00000000000E+00  0.99999998245E-14  0.12509000000E+03  0.12509000000E+03 0.  0.
        -11    1    3    3    0    0  0.40396246593E+02  0.40328653285E+02 -0.18809542334E+02  0.60100381843E+02  0.51100000000E-03 0.  1.
         23    2    1    0    0    0  0.16849874953E+02  0.30436745426E+02 -0.29233417973E+01  0.90177828980E+02  0.83145541999E+02 0.  0.
         11    1    3    3    0    0 -0.23546371641E+02 -0.98919078585E+01  0.15886200537E+02  0.30077447137E+02  0.51100000000E-03 0. -1.
         22    1    1    0    0    0 -0.16849874953E+02 -0.30436745426E+02  0.29233417973E+01  0.34912171020E+02  0.00000000000E+00 0.  1.
</event>
<event>
 5    1  0.1047411E-009  0.9118800E+02  0.7815553E-02  0.1125453E+00
         25   -1    0    0    0    0  0.00000000000E+00  0.00000000000E+00  0.99999998245E-14  0.12509000000E+03  0.12509000000E+03 0.  0.
        -11    1    3    3    0    0 -0.30867787611E+02 -0.80522780245E+01 -0.15510139255E+02  0.35471452090E+02  0.51100000000E-03 0.  1.
         23    2    1    0    0    0  0.13053003841E+02  0.79014439534E+01  0.23990394416E+02  0.96658455018E+02  0.92382380227E+02 0.  0.
         11    1    3    3    0    0  0.43920791452E+02  0.15953721978E+02  0.39500533671E+02  0.61187002928E+02  0.51100000000E-03 0. -1.
         22    1    1    0    0    0 -0.13053003841E+02 -0.79014439534E+01 -0.23990394416E+02  0.28431544982E+02  0.00000000000E+00 0. -1.
</event>
<event>
 5    1  0.1047411E-009  0.9118800E+02  0.7815553E-02  0.1125453E+00
         25   -1    0    0    0    0  0.00000000000E+00  0.00000000000E+00  0.99999998245E-14  0.12509000000E+03  0.12509000000E+03 0.  0.
        -11    1    3    3    0    0  0.13747976514E+01  0.28506292315E+02 -0.30695904484E+02  0.41913450377E+02  0.51100000000E-03 0.  1.
         23    2    1    0    0    0  0.29547587972E+02  0.46402811840E+01  0.66712316831E+01  0.94445302308E+02  0.89335422042E+02 0.  0.
         11    1    3    3    0    0  0.28172790321E+02 -0.23866011131E+02  0.37367136167E+02  0.52531851932E+02  0.51100000000E-03 0. -1.
         22    1    1    0    0    0 -0.29547587972E+02 -0.46402811840E+01 -0.66712316831E+01  0.30644697692E+02  0.00000000000E+00 0. -1.
</event>
<event>
 5    1  0.1047411E-009  0.9118800E+02  0.7815553E-02  0.1125453E+00
         25   -1    0    0    0    0  0.00000000000E+00  0.00000000000E+00  0.99999998245E-14  0.12509000000E+03  0.12509000000E+03 0.  0.
        -11    1    3    3    0    0  0.77423122464E+01  0.12255636723E+02  0.28228935912E+02  0.31733528852E+02  0.51100000000E-03 0.  1.
         23    2    1    0    0    0 -0.21352258651E+02 -0.25788144034E+02 -0.66162343360E+01  0.90961978097E+02  0.84317018331E+02 0.  0.
         11    1    3    3    0    0 -0.29094570898E+02 -0.38043780758E+02 -0.34845170248E+02  0.59228449245E+02  0.51100000000E-03 0. -1.
         22    1    1    0    0    0  0.21352258651E+02  0.25788144034E+02  0.66162343360E+01  0.34128021903E+02  0.00000000000E+00 0. -1.
</event>
<event>
 5    1  0.1047411E-009  0.9118800E+02  0.7815553E-02  0.1125453E+00
         25   -1    0    0    0    0  0.00000000000E+00  0.00000000000E+00  0.99999998245E-14  0.12509000000E+03  0.12509000000E+03 0.  0.
        -11    1    3    3    0    0 -0.25033596598E+02  0.30503149219E+02 -0.32397548653E+01  0.39593169648E+02  0.51100000000E-03 0.  1.
         23    2    1    0    0    0  0.22180058462E+02  0.67862123453E+01  0.17167348569E+02  0.96233015954E+02  0.91804508774E+02 0.  0.
         11    1    3    3    0    0  0.47213655059E+02 -0.23716936874E+02  0.20407103434E+02  0.56639846306E+02  0.51100000000E-03 0. -1.
         22    1    1    0    0    0 -0.22180058462E+02 -0.67862123453E+01 -0.17167348569E+02  0.28856984046E+02  0.00000000000E+00 0. -1.
</event>
<event>
 5    1  0.1047411E-009  0.9118800E+02  0.7815553E-02  0.1125453E+00
         25   -1    0    0    0    0  0.00000000000E+00  0.00000000000E+00  0.99999998245E-14  0.12509000000E+03  0.12509000000E+03 0.  0.
        -11    1    3    3    0    0 -0.37320885649E+02  0.58612714355E+01  0.14172621681E+02  0.40349302523E+02  0.51100000000E-03 0. -1.
         23    2    1    0    0    0  0.10810583751E+02 -0.22152379310E+02  0.15349592746E+02  0.96051979620E+02  0.91557501939E+02 0.  0.
         11    1    3    3    0    0  0.48131469400E+02 -0.28013650745E+02  0.11769710648E+01  0.55702677097E+02  0.51100000000E-03 0.  1.
         22    1    1    0    0    0 -0.10810583751E+02  0.22152379310E+02 -0.15349592746E+02  0.29038020380E+02  0.00000000000E+00 0.  1.
</event>
<event>
 5    1  0.1047411E-009  0.9118800E+02  0.7815553E-02  0.1125453E+00
         25   -1    0    0    0    0  0.00000000000E+00  0.00000000000E+00  0.99999998245E-14  0.12509000000E+03  0.12509000000E+03 0.  0.
        -11    1    3    3    0    0  0.61704769672E+01  0.30553516504E+02 -0.22756666980E+02  0.38593497497E+02  0.51100000000E-03 0. -1.
         23    2    1    0    0    0 -0.28481409004E+02 -0.22781274183E+01  0.80484532783E+01  0.95405692301E+02  0.90670215616E+02 0.  0.
         11    1    3    3    0    0 -0.34651885972E+02 -0.32831643922E+02  0.30805120259E+02  0.56812194804E+02  0.51100000000E-03 0.  1.
         22    1    1    0    0    0  0.28481409004E+02  0.22781274183E+01 -0.80484532783E+01  0.29684307699E+02  0.00000000000E+00 0.  1.
</event>
<event>
 5    1  0.1047411E-009  0.9118800E+02  0.7815553E-02  0.1125453E+00
         25   -1    0    0    0    0  0.00000000000E+00  0.00000000000E+00  0.99999998245E-14  0.12509000000E+03  0.12509000000E+03 0.  0.
        -11    1    3    3    0    0  0.19699662015E+02  0.17973896333E+02  0.26518483754E+02  0.37608079102E+02  0.51100000000E-03 0.  1.
         23    2    1    0    0    0 -0.26214337680E+02  0.12691741154E+02 -0.75234661282E+01  0.95008870764E+02  0.90121091803E+02 0.  0.
         11    1    3    3    0    0 -0.45913999695E+02 -0.52821551785E+01 -0.34041949882E+02  0.57400791662E+02  0.51100000000E-03 0. -1.
         22    1    1    0    0    0  0.26214337680E+02 -0.12691741154E+02  0.75234661282E+01  0.30081129236E+02  0.00000000000E+00 0. -1.
</event>
<event>
 5    1  0.1047411E-009  0.9118800E+02  0.7815553E-02  0.1125453E+00
         25   -1    0    0    0    0  0.00000000000E+00  0.00000000000E+00  0.99999998245E-14  0.12509000000E+03  0.12509000000E+03 0.  0.
        -11    1    3    3    0    0  0.26105009231E+02 -0.22597014976E+01 -0.20933669152E+02  0.33537982382E+02  0.51100000000E-03 0.  1.
         23    2    1    0    0    0 -0.26053530003E+02 -0.21219698255E+02 -0.67960512607E+01  0.90808104889E+02  0.84088427153E+02 0.  0.
         11    1    3    3    0    0 -0.52158539234E+02 -0.18959996758E+02  0.14137617891E+02  0.57270122507E+02  0.51100000000E-03 0. -1.
         22    1    1    0    0    0  0.26053530003E+02  0.21219698255E+02  0.67960512607E+01  0.34281895111E+02  0.00000000000E+00 0. -1.
</event>
<event>
 5    1  0.1047411E-009  0.9118800E+02  0.7815553E-02  0.1125453E+00
         25   -1    0    0    0    0  0.00000000000E+00  0.00000000000E+00  0.99999998245E-14  0.12509000000E+03  0.12509000000E+03 0.  0.
        -11    1    3    3    0    0 -0.35171742804E+00 -0.25629666627E+02 -0.28510654639E+02  0.38338765561E+02  0.51100000000E-03 0. -1.
         23    2    1    0    0    0  0.15683653028E+02  0.14810969910E+02  0.14167882452E+02  0.99281654544E+02  0.95868536204E+02 0.  0.
         11    1    3    3    0    0  0.16035370456E+02  0.40440636537E+02  0.42678537091E+02  0.60942888983E+02  0.51100000000E-03 0.  1.
         22    1    1    0    0    0 -0.15683653028E+02 -0.14810969910E+02 -0.14167882452E+02  0.25808345456E+02  0.00000000000E+00 0.  1.
</event>
<event>
 5    1  0.1047411E-009  0.9118800E+02  0.7815553E-02  0.1125453E+00
         25   -1    0    0    0    0  0.00000000000E+00  0.00000000000E+00  0.99999998245E-14  0.12509000000E+03  0.12509000000E+03 0.  0.
        -11    1    3    3    0    0  0.35631992734E+02  0.35494261061E+02 -0.13091597607E+02  0.51969908626E+02  0.51100000000E-03 0. -1.
         23    2    1    0    0    0  0.52468696672E+01  0.35532989311E+02  0.71327583125E+01  0.88470343914E+02  0.80535722139E+02 0.  0.
         11    1    3    3    0    0 -0.30385123066E+02  0.38728249994E-01  0.20224355919E+02  0.36500435289E+02  0.51100000000E-03 0.  1.
         22    1    1    0    0    0 -0.52468696672E+01 -0.35532989311E+02 -0.71327583125E+01  0.36619656086E+02  0.00000000000E+00 0. -1.
</event>
<event>
 5    1  0.1047411E-009  0.9118800E+02  0.7815553E-02  0.1125453E+00
         25   -1    0    0    0    0  0.00000000000E+00  0.00000000000E+00  0.99999998245E-14  0.12509000000E+03  0.12509000000E+03 0.  0.
        -11    1    3    3    0    0 -0.20682300219E+02  0.24858174336E+02 -0.17484154915E+02  0.36761148608E+02  0.51100000000E-03 0. -1.
         23    2    1    0    0    0 -0.10777329875E+02 -0.22197066522E+02  0.16289420246E+02  0.95523028336E+02  0.90831949936E+02 0.  0.
         11    1    3    3    0    0  0.99049703438E+01 -0.47055240858E+02  0.33773575161E+02  0.58761879728E+02  0.51100000000E-03 0.  1.
         22    1    1    0    0    0  0.10777329875E+02  0.22197066522E+02 -0.16289420246E+02  0.29566971664E+02  0.00000000000E+00 0.  1.
</event>
<event>
 5    1  0.1047411E-009  0.9118800E+02  0.7815553E-02  0.1125453E+00
         25   -1    0    0    0    0  0.00000000000E+00  0.00000000000E+00  0.99999998245E-14  0.12509000000E+03  0.12509000000E+03 0.  0.
        -11    1    3    3    0    0  0.16714240704E+02 -0.16998586314E+02 -0.37184151991E+02  0.44169887237E+02  0.51100000000E-03 0. -1.
         23    2    1    0    0    0 -0.12046535988E+02 -0.18019810106E+02 -0.45975039868E+02  0.74261495434E+02  0.54140860981E+02 0.  0.
         11    1    3    3    0    0 -0.28760776692E+02 -0.10212237919E+01 -0.87908878768E+01  0.30091608197E+02  0.51100000000E-03 0.  1.
         22    1    1    0    0    0  0.12046535988E+02  0.18019810106E+02  0.45975039868E+02  0.50828504566E+02  0.00000000000E+00 0. -1.
</event>
<event>
 5    1  0.1047411E-009  0.9118800E+02  0.7815553E-02  0.1125453E+00
         25   -1    0    0    0    0  0.00000000000E+00  0.00000000000E+00  0.99999998245E-14  0.12509000000E+03  0.12509000000E+03 0.  0.
        -11    1    3    3    0    0 -0.16632817281E+02 -0.18778500351E+02 -0.51532250057E+02  0.57313658776E+02  0.51100000000E-03 0.  1.
         23    2    1    0    0    0 -0.16447114251E+02  0.72391780607E+01 -0.22392603866E+02  0.96378643813E+02  0.92002722835E+02 0.  0.
         11    1    3    3    0    0  0.18570302943E+00  0.26017678412E+02  0.29139646191E+02  0.39064985037E+02  0.51100000000E-03 0. -1.
         22    1    1    0    0    0  0.16447114251E+02 -0.72391780607E+01  0.22392603866E+02  0.28711356187E+02  0.00000000000E+00 0.  1.
</event>
<event>
 5    1  0.1047411E-009  0.9118800E+02  0.7815553E-02  0.1125453E+00
         25   -1    0    0    0    0  0.00000000000E+00  0.00000000000E+00  0.99999998245E-14  0.12509000000E+03  0.12509000000E+03 0.  0.
        -11    1    3    3    0    0 -0.13899798803E+02 -0.32498305637E+02 -0.90947220451E+01  0.36497373130E+02  0.51100000000E-03 0. -1.
         23    2    1    0    0    0  0.26944156830E+02 -0.94838554922E-01  0.15350028154E+02  0.94080002484E+02  0.88822446045E+02 0.  0.
         11    1    3    3    0    0  0.40843955633E+02  0.32403467082E+02  0.24444750199E+02  0.57582629354E+02  0.51100000000E-03 0.  1.
         22    1    1    0    0    0 -0.26944156830E+02  0.94838554922E-01 -0.15350028154E+02  0.31009997516E+02  0.00000000000E+00 0.  1.
</event>
<event>
 5    1  0.1047411E-009  0.9118800E+02  0.7815553E-02  0.1125453E+00
         25   -1    0    0    0    0  0.00000000000E+00  0.00000000000E+00  0.99999998245E-14  0.12509000000E+03  0.12509000000E+03 0.  0.
        -11    1    3    3    0    0 -0.29843022199E+02 -0.19097395065E+02 -0.16684018363E+02  0.39162136577E+02  0.51100000000E-03 0.  1.
         23    2    1    0    0    0  0.74757342655E-01 -0.90027447434E+01  0.29016136234E+02  0.94709230366E+02  0.89704220374E+02 0.  0.
         11    1    3    3    0    0  0.29917779542E+02  0.10094650322E+02  0.45700154598E+02  0.55547093789E+02  0.51100000000E-03 0. -1.
         22    1    1    0    0    0 -0.74757342655E-01  0.90027447434E+01 -0.29016136234E+02  0.30380769634E+02  0.00000000000E+00 0. -1.
</event>
<event>
 5    1  0.1047411E-009  0.9118800E+02  0.7815553E-02  0.1125453E+00
         25   -1    0    0    0    0  0.00000000000E+00  0.00000000000E+00  0.99999998245E-14  0.12509000000E+03  0.12509000000E+03 0.  0.
        -11    1    3    3    0    0  0.13579478545E+02 -0.34113834420E+02 -0.76643796423E+00  0.36725241508E+02  0.51100000000E-03 0.  1.
         23    2    1    0    0    0  0.10378012943E+02  0.24856054626E+02  0.92194615628E+01  0.96620277912E+02  0.92330672196E+02 0.  0.
         11    1    3    3    0    0 -0.32014656019E+01  0.58969889047E+02  0.99858995270E+01  0.59895036404E+02  0.51100000000E-03 0. -1.
         22    1    1    0    0    0 -0.10378012943E+02 -0.24856054626E+02 -0.92194615628E+01  0.28469722088E+02  0.00000000000E+00 0. -1.
</event>
<event>
 5    1  0.1047411E-009  0.9118800E+02  0.7815553E-02  0.1125453E+00
         25   -1    0    0    0    0  0.00000000000E+00  0.00000000000E+00  0.99999998245E-14  0.12509000000E+03  0.12509000000E+03 0.  0.
        -11    1    3    3    0    0  0.43731167925E+02  0.27160510600E+01 -0.89861375400E+01  0.44727426145E+02  0.51100000000E-03 0.  1.
         23    2    1    0    0    0  0.93800823184E+01  0.13628168850E+02  0.25553763521E+02  0.94648124884E+02  0.89618969998E+02 0.  0.
         11    1    3    3    0    0 -0.34351085607E+02  0.10912117790E+02  0.34539901061E+02  0.49920698739E+02  0.51100000000E-03 0. -1.
         22    1    1    0    0    0 -0.93800823184E+01 -0.13628168850E+02 -0.25553763521E+02  0.30441875116E+02  0.00000000000E+00 0. -1.
</event>
<event>
 5    1  0.1047411E-009  0.9118800E+02  0.7815553E-02  0.1125453E+00
         25   -1    0    0    0    0  0.00000000000E+00  0.00000000000E+00  0.99999998245E-14  0.12509000000E+03  0.12509000000E+03 0.  0.
        -11    1    3    3    0    0 -0.11696694169E+02 -0.17718274062E+02  0.42508612308E+02  0.47515597553E+02  0.51100000000E-03 0. -1.
         23    2    1    0    0    0  0.20885591608E+02 -0.19120817060E+02  0.66168587085E+01  0.96010859693E+02  0.91501304788E+02 0.  0.
         11    1    3    3    0    0  0.32582285776E+02 -0.14025429976E+01 -0.35891753600E+02  0.48495262140E+02  0.51100000000E-03 0.  1.
         22    1    1    0    0    0 -0.20885591608E+02  0.19120817060E+02 -0.66168587085E+01  0.29079140307E+02  0.00000000000E+00 0.  1.
</event>
<event>
 5    1  0.1047411E-009  0.9118800E+02  0.7815553E-02  0.1125453E+00
         25   -1    0    0    0    0  0.00000000000E+00  0.00000000000E+00  0.99999998245E-14  0.12509000000E+03  0.12509000000E+03 0.  0.
        -11    1    3    3    0    0  0.48581384080E+02  0.74616049517E+01 -0.33788484232E+02  0.59644682031E+02  0.51100000000E-03 0. -1.
         23    2    1    0    0    0  0.12983647822E+02  0.11843095719E+02 -0.20963102634E+02  0.97735188741E+02  0.93829000950E+02 0.  0.
         11    1    3    3    0    0 -0.35597736258E+02  0.43814907670E+01  0.12825381598E+02  0.38090506710E+02  0.51100000000E-03 0.  1.
         22    1    1    0    0    0 -0.12983647822E+02 -0.11843095719E+02  0.20963102634E+02  0.27354811259E+02  0.00000000000E+00 0. -1.
</event>
<event>
 5    1  0.1047411E-009  0.9118800E+02  0.7815553E-02  0.1125453E+00
         25   -1    0    0    0    0  0.00000000000E+00  0.00000000000E+00  0.99999998245E-14  0.12509000000E+03  0.12509000000E+03 0.  0.
        -11    1    3    3    0    0 -0.40434543434E+02  0.20590271222E+02 -0.27531093139E+02  0.53074218425E+02  0.51100000000E-03 0. -1.
         23    2    1    0    0    0 -0.47232892048E+01 -0.43217333071E+01 -0.27744231510E+02  0.96616692820E+02  0.92325814970E+02 0.  0.
         11    1    3    3    0    0  0.35711254229E+02 -0.24912004529E+02 -0.21313837050E+00  0.43542474396E+02  0.51100000000E-03 0.  1.
         22    1    1    0    0    0  0.47232892048E+01  0.43217333071E+01  0.27744231510E+02  0.28473307180E+02  0.00000000000E+00 0.  1.
</event>
<event>
 5    1  0.1047411E-009  0.9118800E+02  0.7815553E-02  0.1125453E+00
         25   -1    0    0    0    0  0.00000000000E+00  0.00000000000E+00  0.99999998245E-14  0.12509000000E+03  0.12509000000E+03 0.  0.
        -11    1    3    3    0    0 -0.31366687060E+02  0.13157215880E+02  0.47890047775E+02  0.58740429544E+02  0.51100000000E-03 0.  1.
         23    2    1    0    0    0 -0.19457441700E+02 -0.84751030635E+01  0.21656707890E+02  0.94767856176E+02  0.89785935191E+02 0.  0.
         11    1    3    3    0    0  0.11909245360E+02 -0.21632318944E+02 -0.26233339885E+02  0.36027426632E+02  0.51100000000E-03 0. -1.
         22    1    1    0    0    0  0.19457441700E+02  0.84751030635E+01 -0.21656707890E+02  0.30322143824E+02  0.00000000000E+00 0.  1.
</event>
<event>
 5    1  0.1047411E-009  0.9118800E+02  0.7815553E-02  0.1125453E+00
         25   -1    0    0    0    0  0.00000000000E+00  0.00000000000E+00  0.99999998245E-14  0.12509000000E+03  0.12509000000E+03 0.  0.
        -11    1    3    3    0    0  0.18171951771E+02 -0.15734447342E+02 -0.16972319935E+02  0.29425368452E+02  0.51100000000E-03 0.  1.
         23    2    1    0    0    0  0.14889747747E+02  0.12018475080E+02  0.33150914292E+02  0.86812964462E+02  0.77918928054E+02 0.  0.
         11    1    3    3    0    0 -0.32822040239E+01  0.27752922421E+02  0.50123234227E+02  0.57387596010E+02  0.51100000000E-03 0. -1.
         22    1    1    0    0    0 -0.14889747747E+02 -0.12018475080E+02 -0.33150914292E+02  0.38277035538E+02  0.00000000000E+00 0. -1.
</event>
<event>
 5    1  0.1047411E-009  0.9118800E+02  0.7815553E-02  0.1125453E+00
         25   -1    0    0    0    0  0.00000000000E+00  0.00000000000E+00  0.99999998245E-14  0.12509000000E+03  0.12509000000E+03 0.  0.
        -11    1    3    3    0    0  0.42150663971E+01 -0.32640658540E+01 -0.33298890958E+02  0.33722945451E+02  0.51100000000E-03 0.  1.
         23    2    1    0    0    0 -0.92296352350E+01 -0.17377516894E+01  0.27510994743E+02  0.96020070876E+02  0.91513896386E+02 0.  0.
         11    1    3    3    0    0 -0.13444701632E+02  0.15263141645E+01  0.60809885701E+02  0.62297125425E+02  0.51100000000E-03 0. -1.
         22    1    1    0    0    0  0.92296352350E+01  0.17377516894E+01 -0.27510994743E+02  0.29069929124E+02  0.00000000000E+00 0. -1.
</event>
<event>
 5    1  0.1047411E-009  0.9118800E+02  0.7815553E-02  0.1125453E+00
         25   -1    0    0    0    0  0.00000000000E+00  0.00000000000E+00  0.99999998245E-14  0.12509000000E+03  0.12509000000E+03 0.  0.
        -11    1    3    3    0    0 -0.37760705421E+02  0.48205066240E+01 -0.42951469054E+02  0.57392829274E+02  0.51100000000E-03 0. -1.
         23    2    1    0    0    0 -0.22883934264E+02 -0.11587685124E+02 -0.90463978934E+01  0.97890988827E+02  0.94036479542E+02 0.  0.
         11    1    3    3    0    0  0.14876771157E+02 -0.16408191748E+02  0.33905071160E+02  0.40498159552E+02  0.51100000000E-03 0.  1.
         22    1    1    0    0    0  0.22883934264E+02  0.11587685124E+02  0.90463978934E+01  0.27199011173E+02  0.00000000000E+00 0. -1.
</event>
<event>
 5    1  0.1047411E-009  0.9118800E+02  0.7815553E-02  0.1125453E+00
         25   -1    0    0    0    0  0.00000000000E+00  0.00000000000E+00  0.99999998245E-14  0.12509000000E+03  0.12509000000E+03 0.  0.
        -11    1    3    3    0    0 -0.10727121043E+02 -0.31712476904E+02  0.35785348880E+01  0.33668356501E+02  0.51100000000E-03 0. -1.
         23    2    1    0    0    0  0.16752149426E+02  0.23007466996E+02 -0.69363365933E+01  0.95796812851E+02  0.91208215305E+02 0.  0.
         11    1    3    3    0    0  0.27479270469E+02  0.54719943900E+02 -0.10514871481E+02  0.62128456351E+02  0.51100000000E-03 0.  1.
         22    1    1    0    0    0 -0.16752149426E+02 -0.23007466996E+02  0.69363365933E+01  0.29293187149E+02  0.00000000000E+00 0.  1.
</event>
<event>
 5    1  0.1047411E-009  0.9118800E+02  0.7815553E-02  0.1125453E+00
         25   -1    0    0    0    0  0.00000000000E+00  0.00000000000E+00  0.99999998245E-14  0.12509000000E+03  0.12509000000E+03 0.  0.
        -11    1    3    3    0    0 -0.22145421578E+02 -0.66177227511E+01  0.26179211712E+02  0.34922271940E+02  0.51100000000E-03 0.  1.
         23    2    1    0    0    0  0.57440644743E+01  0.17353253030E+02 -0.22607571297E+02  0.96017126951E+02  0.91509872257E+02 0.  0.
         11    1    3    3    0    0  0.27889486053E+02  0.23970975781E+02 -0.48786783009E+02  0.61094855011E+02  0.51100000000E-03 0. -1.
         22    1    1    0    0    0 -0.57440644743E+01 -0.17353253030E+02  0.22607571297E+02  0.29072873049E+02  0.00000000000E+00 0. -1.
</event>
<event>
 5    1  0.1047411E-009  0.9118800E+02  0.7815553E-02  0.1125453E+00
         25   -1    0    0    0    0  0.00000000000E+00  0.00000000000E+00  0.99999998245E-14  0.12509000000E+03  0.12509000000E+03 0.  0.
        -11    1    3    3    0    0 -0.18949637748E+02  0.46750457488E+01 -0.56692276786E+02  0.59957977542E+02  0.51100000000E-03 0.  1.
         23    2    1    0    0    0 -0.56907837592E+01  0.14195125468E+02 -0.22020860614E+02  0.98279462724E+02  0.94551826446E+02 0.  0.
         11    1    3    3    0    0  0.13258853989E+02  0.95200797191E+01  0.34671416171E+02  0.38321485182E+02  0.51100000000E-03 0. -1.
         22    1    1    0    0    0  0.56907837592E+01 -0.14195125468E+02  0.22020860614E+02  0.26810537276E+02  0.00000000000E+00 0.  1.
</event>
<event>
 5    1  0.1047411E-009  0.9118800E+02  0.7815553E-02  0.1125453E+00
         25   -1    0    0    0    0  0.00000000000E+00  0.00000000000E+00  0.99999998245E-14  0.12509000000E+03  0.12509000000E+03 0.  0.
        -11    1    3    3    0    0  0.11253590688E+02 -0.21117773084E+02  0.46494591899E+02  0.52291019492E+02  0.51100000000E-03 0.  1.
         23    2    1    0    0    0  0.24491388360E+02  0.56388151619E+01  0.14391229385E+02  0.96129132895E+02  0.91662851623E+02 0.  0.
         11    1    3    3    0    0  0.13237797673E+02  0.26756588246E+02 -0.32103362514E+02  0.43838113403E+02  0.51100000000E-03 0. -1.
         22    1    1    0    0    0 -0.24491388360E+02 -0.56388151619E+01 -0.14391229385E+02  0.28960867105E+02  0.00000000000E+00 0.  1.
</event>
<event>
 5    1  0.1047411E-009  0.9118800E+02  0.7815553E-02  0.1125453E+00
         25   -1    0    0    0    0  0.00000000000E+00  0.00000000000E+00  0.99999998245E-14  0.12509000000E+03  0.12509000000E+03 0.  0.
        -11    1    3    3    0    0  0.28859285914E+01  0.31307612792E+02  0.47447477157E+02  0.56918874649E+02  0.51100000000E-03 0.  1.
         23    2    1    0    0    0  0.17167873474E+02  0.24772239299E+02  0.18862810248E+02  0.89534334770E+02  0.82171721247E+02 0.  0.
         11    1    3    3    0    0  0.14281944883E+02 -0.65353734931E+01 -0.28584666908E+02  0.32615460120E+02  0.51100000000E-03 0. -1.
         22    1    1    0    0    0 -0.17167873474E+02 -0.24772239299E+02 -0.18862810248E+02  0.35555665230E+02  0.00000000000E+00 0.  1.
</event>
<event>
 5    1  0.1047411E-009  0.9118800E+02  0.7815553E-02  0.1125453E+00
         25   -1    0    0    0    0  0.00000000000E+00  0.00000000000E+00  0.99999998245E-14  0.12509000000E+03  0.12509000000E+03 0.  0.
        -11    1    3    3    0    0  0.34240818973E+02  0.11054186618E+02  0.42050614137E+02  0.55343318253E+02  0.51100000000E-03 0. -1.
         23    2    1    0    0    0  0.84512281354E+01 -0.14379553922E+02  0.24133332157E+02  0.95753801388E+02  0.91149206970E+02 0.  0.
         11    1    3    3    0    0 -0.25789590838E+02 -0.25433740540E+02 -0.17917281979E+02  0.40410483135E+02  0.51100000000E-03 0.  1.
         22    1    1    0    0    0 -0.84512281354E+01  0.14379553922E+02 -0.24133332157E+02  0.29336198612E+02  0.00000000000E+00 0. -1.
</event>
<event>
 5    1  0.1047411E-009  0.9118800E+02  0.7815553E-02  0.1125453E+00
         25   -1    0    0    0    0  0.00000000000E+00  0.00000000000E+00  0.99999998245E-14  0.12509000000E+03  0.12509000000E+03 0.  0.
        -11    1    3    3    0    0  0.54239949873E+02  0.24083578530E+02 -0.57135856097E+01  0.59620768008E+02  0.51100000000E-03 0.  1.
         23    2    1    0    0    0  0.20439597807E+02  0.20224374976E+02 -0.11485354623E+02  0.94126862683E+02  0.88888415477E+02 0.  0.
         11    1    3    3    0    0 -0.33800352067E+02 -0.38592035541E+01 -0.57717690136E+01  0.34506094675E+02  0.51100000000E-03 0. -1.
         22    1    1    0    0    0 -0.20439597807E+02 -0.20224374976E+02  0.11485354623E+02  0.30963137317E+02  0.00000000000E+00 0.  1.
</event>
<event>
 5    1  0.1047411E-009  0.9118800E+02  0.7815553E-02  0.1125453E+00
         25   -1    0    0    0    0  0.00000000000E+00  0.00000000000E+00  0.99999998245E-14  0.12509000000E+03  0.12509000000E+03 0.  0.
        -11    1    3    3    0    0 -0.27376084842E+02  0.24958744163E+02 -0.37200524075E+01  0.37232079202E+02  0.51100000000E-03 0. -1.
         23    2    1    0    0    0  0.24140561175E+02  0.61706181295E+01  0.15968745452E+02  0.95495337420E+02  0.90793807144E+02 0.  0.
         11    1    3    3    0    0  0.51516646017E+02 -0.18788126034E+02  0.19688797860E+02  0.58263258218E+02  0.51100000000E-03 0.  1.
         22    1    1    0    0    0 -0.24140561175E+02 -0.61706181295E+01 -0.15968745452E+02  0.29594662580E+02  0.00000000000E+00 0.  1.
</event>
<event>
 5    1  0.1047411E-009  0.9118800E+02  0.7815553E-02  0.1125453E+00
         25   -1    0    0    0    0  0.00000000000E+00  0.00000000000E+00  0.99999998245E-14  0.12509000000E+03  0.12509000000E+03 0.  0.
        -11    1    3    3    0    0  0.53214973137E+01  0.46327230792E+02 -0.33714853405E+02  0.57543218426E+02  0.51100000000E-03 0. -1.
         23    2    1    0    0    0  0.19077186588E+02  0.20152048270E+02 -0.95107725513E+01  0.95755738595E+02  0.91151865487E+02 0.  0.
         11    1    3    3    0    0  0.13755689275E+02 -0.26175182521E+02  0.24204080854E+02  0.38212520169E+02  0.51100000000E-03 0.  1.
         22    1    1    0    0    0 -0.19077186588E+02 -0.20152048270E+02  0.95107725513E+01  0.29334261405E+02  0.00000000000E+00 0. -1.
</event>
<event>
 5    1  0.1047411E-009  0.9118800E+02  0.7815553E-02  0.1125453E+00
         25   -1    0    0    0    0  0.00000000000E+00  0.00000000000E+00  0.99999998245E-14  0.12509000000E+03  0.12509000000E+03 0.  0.
        -11    1    3    3    0    0 -0.26109157182E+02 -0.29503747686E+02 -0.24180780640E+02  0.46226284394E+02  0.51100000000E-03 0.  1.
         23    2    1    0    0    0 -0.66118692689E+01  0.64493349595E+01 -0.35292947792E+02  0.88608458085E+02  0.80749959403E+02 0.  0.
         11    1    3    3    0    0  0.19497287913E+02  0.35953082646E+02 -0.11112167153E+02  0.42382173691E+02  0.51100000000E-03 0. -1.
         22    1    1    0    0    0  0.66118692689E+01 -0.64493349595E+01  0.35292947792E+02  0.36481541915E+02  0.00000000000E+00 0.  1.
</event>
<event>
 5    1  0.1047411E-009  0.9118800E+02  0.7815553E-02  0.1125453E+00
         25   -1    0    0    0    0  0.00000000000E+00  0.00000000000E+00  0.99999998245E-14  0.12509000000E+03  0.12509000000E+03 0.  0.
        -11    1    3    3    0    0 -0.19683754286E+02 -0.27999281882E+02  0.26273741194E+02  0.43147647042E+02  0.51100000000E-03 0.  1.
         23    2    1    0    0    0 -0.10476046141E+02  0.23265358721E+02  0.78636718010E+01  0.98390528219E+02  0.94698649673E+02 0.  0.
         11    1    3    3    0    0  0.92077081450E+01  0.51264640603E+02 -0.18410069393E+02  0.55242881177E+02  0.51100000000E-03 0. -1.
         22    1    1    0    0    0  0.10476046141E+02 -0.23265358721E+02 -0.78636718010E+01  0.26699471781E+02  0.00000000000E+00 0. -1.
</event>
<event>
 5    1  0.1047411E-009  0.9118800E+02  0.7815553E-02  0.1125453E+00
         25   -1    0    0    0    0  0.00000000000E+00  0.00000000000E+00  0.99999998245E-14  0.12509000000E+03  0.12509000000E+03 0.  0.
        -11    1    3    3    0    0 -0.54408866233E+02 -0.20350035038E+02 -0.21755879320E+02  0.62030371078E+02  0.51100000000E-03 0.  1.
         23    2    1    0    0    0 -0.23385665398E+02 -0.14788997130E+02 -0.10312171559E+02  0.95561290843E+02  0.90884628200E+02 0.  0.
         11    1    3    3    0    0  0.31023200835E+02  0.55610379079E+01  0.11443707761E+02  0.33530919765E+02  0.51100000000E-03 0. -1.
         22    1    1    0    0    0  0.23385665398E+02  0.14788997130E+02  0.10312171559E+02  0.29528709157E+02  0.00000000000E+00 0.  1.
</event>
<event>
 5    1  0.1047411E-009  0.9118800E+02  0.7815553E-02  0.1125453E+00
         25   -1    0    0    0    0  0.00000000000E+00  0.00000000000E+00  0.99999998245E-14  0.12509000000E+03  0.12509000000E+03 0.  0.
        -11    1    3    3    0    0 -0.47921627353E+02 -0.66352199330E+01 -0.24545849000E+02  0.54249490459E+02  0.51100000000E-03 0.  1.
         23    2    1    0    0    0 -0.98741442960E+01 -0.21558303467E+02 -0.17255497640E+02  0.95764049500E+02  0.91163270037E+02 0.  0.
         11    1    3    3    0    0  0.38047483057E+02 -0.14923083534E+02  0.72903513603E+01  0.41514559040E+02  0.51100000000E-03 0. -1.
         22    1    1    0    0    0  0.98741442960E+01  0.21558303467E+02  0.17255497640E+02  0.29325950500E+02  0.00000000000E+00 0.  1.
</event>
<event>
 5    1  0.1047411E-009  0.9118800E+02  0.7815553E-02  0.1125453E+00
         25   -1    0    0    0    0  0.00000000000E+00  0.00000000000E+00  0.99999998245E-14  0.12509000000E+03  0.12509000000E+03 0.  0.
        -11    1    3    3    0    0 -0.13285671380E+02 -0.35391143411E+02  0.36441525596E+02  0.52507398374E+02  0.51100000000E-03 0.  1.
         23    2    1    0    0    0 -0.27433732620E+02 -0.55930837830E+01  0.82432720954E+01  0.95903636635E+02  0.91354604226E+02 0.  0.
         11    1    3    3    0    0 -0.14148061240E+02  0.29798059628E+02 -0.28198253501E+02  0.43396238261E+02  0.51100000000E-03 0. -1.
         22    1    1    0    0    0  0.27433732620E+02  0.55930837830E+01 -0.82432720954E+01  0.29186363365E+02  0.00000000000E+00 0.  1.
</event>
<event>
 5    1  0.1047411E-009  0.9118800E+02  0.7815553E-02  0.1125453E+00
         25   -1    0    0    0    0  0.00000000000E+00  0.00000000000E+00  0.99999998245E-14  0.12509000000E+03  0.12509000000E+03 0.  0.
        -11    1    3    3    0    0  0.33731143437E+02  0.30988897442E+02  0.13676633665E+02  0.47803264647E+02  0.51100000000E-03 0. -1.
         23    2    1    0    0    0 -0.12736000099E+02  0.19878273976E+02  0.17455366819E+02  0.95729460060E+02  0.91115795655E+02 0.  0.
         11    1    3    3    0    0 -0.46467143536E+02 -0.11110623467E+02  0.37787331546E+01  0.47926195413E+02  0.51100000000E-03 0.  1.
         22    1    1    0    0    0  0.12736000099E+02 -0.19878273976E+02 -0.17455366819E+02  0.29360539940E+02  0.00000000000E+00 0.  1.
</event>
<event>
 5    1  0.1047411E-009  0.9118800E+02  0.7815553E-02  0.1125453E+00
         25   -1    0    0    0    0  0.00000000000E+00  0.00000000000E+00  0.99999998245E-14  0.12509000000E+03  0.12509000000E+03 0.  0.
        -11    1    3    3    0    0 -0.31647665210E+02  0.21531401806E+02 -0.35823262300E+01  0.38444883124E+02  0.51100000000E-03 0.  1.
         23    2    1    0    0    0  0.33050159144E+01 -0.45355353478E+01  0.30681653078E+02  0.93899327569E+02  0.88567633316E+02 0.  0.
         11    1    3    3    0    0  0.34952681125E+02 -0.26066937153E+02  0.34263979308E+02  0.55454444445E+02  0.51100000000E-03 0. -1.
         22    1    1    0    0    0 -0.33050159144E+01  0.45355353478E+01 -0.30681653078E+02  0.31190672431E+02  0.00000000000E+00 0. -1.
</event>
<event>
 5    1  0.1047411E-009  0.9118800E+02  0.7815553E-02  0.1125453E+00
         25   -1    0    0    0    0  0.00000000000E+00  0.00000000000E+00  0.99999998245E-14  0.12509000000E+03  0.12509000000E+03 0.  0.
        -11    1    3    3    0    0 -0.36501124214E+02 -0.19401314100E+02  0.15742775735E+01  0.41366911993E+02  0.51100000000E-03 0.  1.
         23    2    1    0    0    0  0.19705375131E+02 -0.11814082860E+02 -0.11239468144E+02  0.99512666147E+02  0.96169489531E+02 0.  0.
         11    1    3    3    0    0  0.56206499345E+02  0.75872312396E+01 -0.12813745718E+02  0.58145754154E+02  0.51100000000E-03 0. -1.
         22    1    1    0    0    0 -0.19705375131E+02  0.11814082860E+02  0.11239468144E+02  0.25577333853E+02  0.00000000000E+00 0. -1.
</event>
<event>
 5    1  0.1047411E-009  0.9118800E+02  0.7815553E-02  0.1125453E+00
         25   -1    0    0    0    0  0.00000000000E+00  0.00000000000E+00  0.99999998245E-14  0.12509000000E+03  0.12509000000E+03 0.  0.
        -11    1    3    3    0    0  0.13095137530E+02 -0.10301699323E+02 -0.33257001781E+02  0.37197255323E+02  0.51100000000E-03 0. -1.
         23    2    1    0    0    0 -0.27333251842E+02  0.12461457065E+02  0.12580882984E+01  0.95023783833E+02  0.90141789084E+02 0.  0.
         11    1    3    3    0    0 -0.40428389373E+02  0.22763156388E+02  0.34515090079E+02  0.57826528509E+02  0.51100000000E-03 0.  1.
         22    1    1    0    0    0  0.27333251842E+02 -0.12461457065E+02 -0.12580882984E+01  0.30066216167E+02  0.00000000000E+00 0.  1.
</event>
<event>
 5    1  0.1047411E-009  0.9118800E+02  0.7815553E-02  0.1125453E+00
         25   -1    0    0    0    0  0.00000000000E+00  0.00000000000E+00  0.99999998245E-14  0.12509000000E+03  0.12509000000E+03 0.  0.
        -11    1    3    3    0    0 -0.10714234033E+02 -0.72812212105E+01 -0.41701179358E+02  0.43666913714E+02  0.51100000000E-03 0.  1.
         23    2    1    0    0    0  0.25290912969E+02  0.13106345359E+02 -0.15196327399E+02  0.92804787690E+02  0.87008009312E+02 0.  0.
         11    1    3    3    0    0  0.36005147002E+02  0.20387566570E+02  0.26504851959E+02  0.49137873976E+02  0.51100000000E-03 0. -1.
         22    1    1    0    0    0 -0.25290912969E+02 -0.13106345359E+02  0.15196327399E+02  0.32285212310E+02  0.00000000000E+00 0.  1.
</event>
<event>
 5    1  0.1047411E-009  0.9118800E+02  0.7815553E-02  0.1125453E+00
         25   -1    0    0    0    0  0.00000000000E+00  0.00000000000E+00  0.99999998245E-14  0.12509000000E+03  0.12509000000E+03 0.  0.
        -11    1    3    3    0    0  0.10560900544E+02 -0.31855849194E+02 -0.48412164577E+02  0.58907261246E+02  0.51100000000E-03 0. -1.
         23    2    1    0    0    0 -0.10201522178E+02 -0.11575625257E+02 -0.22455237755E+02  0.97844746148E+02  0.93974946083E+02 0.  0.
         11    1    3    3    0    0 -0.20762422722E+02  0.20280223936E+02  0.25956926822E+02  0.38937484902E+02  0.51100000000E-03 0.  1.
         22    1    1    0    0    0  0.10201522178E+02  0.11575625257E+02  0.22455237755E+02  0.27245253852E+02  0.00000000000E+00 0. -1.
</event>
<event>
 5    1  0.1047411E-009  0.9118800E+02  0.7815553E-02  0.1125453E+00
         25   -1    0    0    0    0  0.00000000000E+00  0.00000000000E+00  0.99999998245E-14  0.12509000000E+03  0.12509000000E+03 0.  0.
        -11    1    3    3    0    0 -0.18905974855E+02 -0.19870267811E+02  0.23899199246E+02  0.36379048269E+02  0.51100000000E-03 0. -1.
         23    2    1    0    0    0  0.97522078777E+01  0.27500632211E+02  0.22554439391E+01  0.95824365583E+02  0.91245995427E+02 0.  0.
         11    1    3    3    0    0  0.28658182733E+02  0.47370900022E+02 -0.21643755307E+02  0.59445317313E+02  0.51100000000E-03 0.  1.
         22    1    1    0    0    0 -0.97522078777E+01 -0.27500632211E+02 -0.22554439391E+01  0.29265634417E+02  0.00000000000E+00 0.  1.
</event>
<event>
 5    1  0.1047411E-009  0.9118800E+02  0.7815553E-02  0.1125453E+00
         25   -1    0    0    0    0  0.00000000000E+00  0.00000000000E+00  0.99999998245E-14  0.12509000000E+03  0.12509000000E+03 0.  0.
        -11    1    3    3    0    0 -0.42807445025E+02 -0.39008473121E+02 -0.22240649223E+02  0.62038575120E+02  0.51100000000E-03 0. -1.
         23    2    1    0    0    0 -0.15831917271E+02 -0.22013154200E+02 -0.10080079873E+02  0.96161872294E+02  0.91707519379E+02 0.  0.
         11    1    3    3    0    0  0.26975527754E+02  0.16995318921E+02  0.12160569350E+02  0.34123297174E+02  0.51100000000E-03 0.  1.
         22    1    1    0    0    0  0.15831917271E+02  0.22013154200E+02  0.10080079873E+02  0.28928127706E+02  0.00000000000E+00 0. -1.
</event>
<event>
 5    1  0.1047411E-009  0.9118800E+02  0.7815553E-02  0.1125453E+00
         25   -1    0    0    0    0  0.00000000000E+00  0.00000000000E+00  0.99999998245E-14  0.12509000000E+03  0.12509000000E+03 0.  0.
        -11    1    3    3    0    0  0.12609099738E+02  0.11468702823E+02 -0.50480440513E+02  0.53280347364E+02  0.51100000000E-03 0.  1.
         23    2    1    0    0    0 -0.10867976833E+02 -0.12068749893E+02 -0.25471905953E+02  0.94880967621E+02  0.89943384300E+02 0.  0.
         11    1    3    3    0    0 -0.23477076571E+02 -0.23537452715E+02  0.25008534560E+02  0.41600620257E+02  0.51100000000E-03 0. -1.
         22    1    1    0    0    0  0.10867976833E+02  0.12068749893E+02  0.25471905953E+02  0.30209032379E+02  0.00000000000E+00 0. -1.
</event>
<event>
 5    1  0.1047411E-009  0.9118800E+02  0.7815553E-02  0.1125453E+00
         25   -1    0    0    0    0  0.00000000000E+00  0.00000000000E+00  0.99999998245E-14  0.12509000000E+03  0.12509000000E+03 0.  0.
        -11    1    3    3    0    0  0.17753470122E+02  0.52986744294E+02  0.23835570816E+02  0.60752902883E+02  0.51100000000E-03 0.  1.
         23    2    1    0    0    0  0.19649681131E+02  0.33605545052E+02  0.22153496085E+02  0.80299152546E+02  0.66646334363E+02 0.  0.
         11    1    3    3    0    0  0.18962110093E+01 -0.19381199242E+02 -0.16820747308E+01  0.19546249664E+02  0.51100000000E-03 0. -1.
         22    1    1    0    0    0 -0.19649681131E+02 -0.33605545052E+02 -0.22153496085E+02  0.44790847454E+02  0.00000000000E+00 0.  1.
</event>
<event>
 5    1  0.1047411E-009  0.9118800E+02  0.7815553E-02  0.1125453E+00
         25   -1    0    0    0    0  0.00000000000E+00  0.00000000000E+00  0.99999998245E-14  0.12509000000E+03  0.12509000000E+03 0.  0.
        -11    1    3    3    0    0  0.10269900710E+02  0.27296003458E+02 -0.21380603780E+02  0.36161759963E+02  0.51100000000E-03 0.  1.
         23    2    1    0    0    0 -0.17411061120E+02 -0.76580423843E+01  0.20352604371E+02  0.97232879417E+02  0.93156930352E+02 0.  0.
         11    1    3    3    0    0 -0.27680961829E+02 -0.34954045842E+02  0.41733208151E+02  0.61071119454E+02  0.51100000000E-03 0. -1.
         22    1    1    0    0    0  0.17411061120E+02  0.76580423843E+01 -0.20352604371E+02  0.27857120583E+02  0.00000000000E+00 0. -1.
</event>
<event>
 5    1  0.1047411E-009  0.9118800E+02  0.7815553E-02  0.1125453E+00
         25   -1    0    0    0    0  0.00000000000E+00  0.00000000000E+00  0.99999998245E-14  0.12509000000E+03  0.12509000000E+03 0.  0.
        -11    1    3    3    0    0 -0.22476149087E+02 -0.28676678878E+02 -0.23049221846E+01  0.36508106714E+02  0.51100000000E-03 0.  1.
         23    2    1    0    0    0  0.19696678939E+02  0.15986555357E+02 -0.87094034831E+01  0.98268687160E+02  0.94537569536E+02 0.  0.
         11    1    3    3    0    0  0.42172828026E+02  0.44663234235E+02 -0.64044812985E+01  0.61760580446E+02  0.51100000000E-03 0. -1.
         22    1    1    0    0    0 -0.19696678939E+02 -0.15986555357E+02  0.87094034831E+01  0.26821312840E+02  0.00000000000E+00 0. -1.
</event>
<event>
 5    1  0.1047411E-009  0.9118800E+02  0.7815553E-02  0.1125453E+00
         25   -1    0    0    0    0  0.00000000000E+00  0.00000000000E+00  0.99999998245E-14  0.12509000000E+03  0.12509000000E+03 0.  0.
        -11    1    3    3    0    0 -0.31522446865E+02  0.52678663052E+01 -0.29956627972E+02  0.43804276406E+02  0.51100000000E-03 0. -1.
         23    2    1    0    0    0 -0.34051082981E+01  0.26468180573E+02  0.95678904799E+01  0.96740328510E+02  0.92493174270E+02 0.  0.
         11    1    3    3    0    0  0.28117338567E+02  0.21200314268E+02  0.39524518452E+02  0.52936052103E+02  0.51100000000E-03 0.  1.
         22    1    1    0    0    0  0.34051082981E+01 -0.26468180573E+02 -0.95678904799E+01  0.28349671490E+02  0.00000000000E+00 0.  1.
</event>
<event>
 5    1  0.1047411E-009  0.9118800E+02  0.7815553E-02  0.1125453E+00
         25   -1    0    0    0    0  0.00000000000E+00  0.00000000000E+00  0.99999998245E-14  0.12509000000E+03  0.12509000000E+03 0.  0.
        -11    1    3    3    0    0  0.46387350956E+02 -0.32626929195E+02  0.74210249149E+01  0.57195930349E+02  0.51100000000E-03 0.  1.
         23    2    1    0    0    0  0.23559702437E+02 -0.14294154381E+01  0.15716336099E+02  0.96733236648E+02  0.92483582568E+02 0.  0.
         11    1    3    3    0    0 -0.22827648519E+02  0.31197513757E+02  0.82953111840E+01  0.39537306299E+02  0.51100000000E-03 0. -1.
         22    1    1    0    0    0 -0.23559702437E+02  0.14294154381E+01 -0.15716336099E+02  0.28356763352E+02  0.00000000000E+00 0.  1.
</event>
<event>
 5    1  0.1047411E-009  0.9118800E+02  0.7815553E-02  0.1125453E+00
         25   -1    0    0    0    0  0.00000000000E+00  0.00000000000E+00  0.99999998245E-14  0.12509000000E+03  0.12509000000E+03 0.  0.
        -11    1    3    3    0    0  0.71842957247E+01 -0.12192821415E+02  0.39367428625E+02  0.41833879045E+02  0.51100000000E-03 0. -1.
         23    2    1    0    0    0 -0.25523481480E+02 -0.13176206633E+02 -0.39222901032E+01  0.96099572481E+02  0.91622502385E+02 0.  0.
         11    1    3    3    0    0 -0.32707777205E+02 -0.98338521787E+00 -0.43289718729E+02  0.54265693435E+02  0.51100000000E-03 0.  1.
         22    1    1    0    0    0  0.25523481480E+02  0.13176206633E+02  0.39222901032E+01  0.28990427519E+02  0.00000000000E+00 0.  1.
</event>
<event>
 5    1  0.1047411E-009  0.9118800E+02  0.7815553E-02  0.1125453E+00
         25   -1    0    0    0    0  0.00000000000E+00  0.00000000000E+00  0.99999998245E-14  0.12509000000E+03  0.12509000000E+03 0.  0.
        -11    1    3    3    0    0  0.42615314852E+02 -0.44804966817E+01  0.67805651274E+01  0.43383360568E+02  0.51100000000E-03 0.  1.
         23    2    1    0    0    0  0.35266302528E+00 -0.22164824895E+02 -0.18948817787E+02  0.95927326437E+02  0.91387036433E+02 0.  0.
         11    1    3    3    0    0 -0.42262651827E+02 -0.17684328213E+02 -0.25729382914E+02  0.52543965869E+02  0.51100000000E-03 0. -1.
         22    1    1    0    0    0 -0.35266302528E+00  0.22164824895E+02  0.18948817787E+02  0.29162673563E+02  0.00000000000E+00 0.  1.
</event>
<event>
 5    1  0.1047411E-009  0.9118800E+02  0.7815553E-02  0.1125453E+00
         25   -1    0    0    0    0  0.00000000000E+00  0.00000000000E+00  0.99999998245E-14  0.12509000000E+03  0.12509000000E+03 0.  0.
        -11    1    3    3    0    0 -0.15603588404E+02 -0.30802769260E+02  0.31426980541E+02  0.46689802648E+02  0.51100000000E-03 0.  1.
         23    2    1    0    0    0 -0.30681343457E+02 -0.77596320999E+01 -0.57191086918E+01  0.92930010403E+02  0.87187854100E+02 0.  0.
         11    1    3    3    0    0 -0.15077755054E+02  0.23043137160E+02 -0.37146089233E+02  0.46240207754E+02  0.51100000000E-03 0. -1.
         22    1    1    0    0    0  0.30681343457E+02  0.77596320999E+01  0.57191086918E+01  0.32159989597E+02  0.00000000000E+00 0.  1.
</event>
<event>
 5    1  0.1047411E-009  0.9118800E+02  0.7815553E-02  0.1125453E+00
         25   -1    0    0    0    0  0.00000000000E+00  0.00000000000E+00  0.99999998245E-14  0.12509000000E+03  0.12509000000E+03 0.  0.
        -11    1    3    3    0    0 -0.41687608827E+02 -0.12697008925E+02  0.13316142744E+02  0.45567427218E+02  0.51100000000E-03 0.  1.
         23    2    1    0    0    0 -0.10206773812E+02  0.26069444196E+02  0.65589534882E+00  0.97085994018E+02  0.92959485172E+02 0.  0.
         11    1    3    3    0    0  0.31480835015E+02  0.38766453121E+02 -0.12660247396E+02  0.51518566801E+02  0.51100000000E-03 0. -1.
         22    1    1    0    0    0  0.10206773812E+02 -0.26069444196E+02 -0.65589534882E+00  0.28004005982E+02  0.00000000000E+00 0. -1.
</event>
<event>
 5    1  0.1047411E-009  0.9118800E+02  0.7815553E-02  0.1125453E+00
         25   -1    0    0    0    0  0.00000000000E+00  0.00000000000E+00  0.99999998245E-14  0.12509000000E+03  0.12509000000E+03 0.  0.
        -11    1    3    3    0    0  0.55886924861E+01 -0.49166683057E+02 -0.25755370447E+02  0.55784722942E+02  0.51100000000E-03 0. -1.
         23    2    1    0    0    0 -0.71709040750E+01 -0.12047415880E+02 -0.26574039943E+02  0.95044339855E+02  0.90170310218E+02 0.  0.
         11    1    3    3    0    0 -0.12759596561E+02  0.37119267177E+02 -0.81866949647E+00  0.39259616913E+02  0.51100000000E-03 0.  1.
         22    1    1    0    0    0  0.71709040750E+01  0.12047415880E+02  0.26574039943E+02  0.30045660145E+02  0.00000000000E+00 0. -1.
</event>
<event>
 5    1  0.1047411E-009  0.9118800E+02  0.7815553E-02  0.1125453E+00
         25   -1    0    0    0    0  0.00000000000E+00  0.00000000000E+00  0.99999998245E-14  0.12509000000E+03  0.12509000000E+03 0.  0.
        -11    1    3    3    0    0  0.15956391920E+02 -0.49295109855E+02  0.19765364009E+02  0.55455242434E+02  0.51100000000E-03 0.  1.
         23    2    1    0    0    0 -0.12106236761E+02 -0.19911263903E+02  0.17122973842E+02  0.96172606758E+02  0.91722160129E+02 0.  0.
         11    1    3    3    0    0 -0.28062628681E+02  0.29383845952E+02 -0.26423901673E+01  0.40717364324E+02  0.51100000000E-03 0. -1.
         22    1    1    0    0    0  0.12106236761E+02  0.19911263903E+02 -0.17122973842E+02  0.28917393242E+02  0.00000000000E+00 0.  1.
</event>
<event>
 5    1  0.1047411E-009  0.9118800E+02  0.7815553E-02  0.1125453E+00
         25   -1    0    0    0    0  0.00000000000E+00  0.00000000000E+00  0.99999998245E-14  0.12509000000E+03  0.12509000000E+03 0.  0.
        -11    1    3    3    0    0 -0.32906401051E+02  0.17299846328E+02 -0.31506433989E+02  0.48731625215E+02  0.51100000000E-03 0. -1.
         23    2    1    0    0    0 -0.25871225098E+02 -0.10592987874E+02  0.64915505445E+01  0.96390315182E+02  0.92018590254E+02 0.  0.
         11    1    3    3    0    0  0.70351759529E+01 -0.27892834202E+02  0.37997984534E+02  0.47658689968E+02  0.51100000000E-03 0.  1.
         22    1    1    0    0    0  0.25871225098E+02  0.10592987874E+02 -0.64915505445E+01  0.28699684818E+02  0.00000000000E+00 0.  1.
</event>
<event>
 5    1  0.1047411E-009  0.9118800E+02  0.7815553E-02  0.1125453E+00
         25   -1    0    0    0    0  0.00000000000E+00  0.00000000000E+00  0.99999998245E-14  0.12509000000E+03  0.12509000000E+03 0.  0.
        -11    1    3    3    0    0  0.35505446062E+02  0.12445505053E+02  0.15408416406E+02  0.40656445891E+02  0.51100000000E-03 0. -1.
         23    2    1    0    0    0 -0.10467814442E+02  0.87376782743E+01 -0.21433384541E+02  0.99687005418E+02  0.96395990142E+02 0.  0.
         11    1    3    3    0    0 -0.45973260504E+02 -0.37078267785E+01 -0.36841800948E+02  0.59030559527E+02  0.51100000000E-03 0.  1.
         22    1    1    0    0    0  0.10467814442E+02 -0.87376782743E+01  0.21433384541E+02  0.25402994582E+02  0.00000000000E+00 0.  1.
</event>
<event>
 5    1  0.1047411E-009  0.9118800E+02  0.7815553E-02  0.1125453E+00
         25   -1    0    0    0    0  0.00000000000E+00  0.00000000000E+00  0.99999998245E-14  0.12509000000E+03  0.12509000000E+03 0.  0.
        -11    1    3    3    0    0  0.38571646682E+02 -0.29438548987E+01  0.21588110877E+02  0.44299940643E+02  0.51100000000E-03 0.  1.
         23    2    1    0    0    0  0.76159163143E+01  0.29265888289E+02 -0.19338205141E+01  0.94787622858E+02  0.89813469962E+02 0.  0.
         11    1    3    3    0    0 -0.30955730368E+02  0.32209743188E+02 -0.23521931391E+02  0.50487682215E+02  0.51100000000E-03 0. -1.
         22    1    1    0    0    0 -0.76159163143E+01 -0.29265888289E+02  0.19338205141E+01  0.30302377142E+02  0.00000000000E+00 0.  1.
</event>
<event>
 5    1  0.1047411E-009  0.9118800E+02  0.7815553E-02  0.1125453E+00
         25   -1    0    0    0    0  0.00000000000E+00  0.00000000000E+00  0.99999998245E-14  0.12509000000E+03  0.12509000000E+03 0.  0.
        -11    1    3    3    0    0 -0.27801531404E+02 -0.82479051623E+00 -0.21985141023E+02  0.35453516805E+02  0.51100000000E-03 0. -1.
         23    2    1    0    0    0  0.81591999044E+01 -0.13085687505E+02  0.24900792773E+02  0.95800799921E+02  0.91213683316E+02 0.  0.
         11    1    3    3    0    0  0.35960731309E+02 -0.12260896989E+02  0.46885933796E+02  0.60347283115E+02  0.51100000000E-03 0.  1.
         22    1    1    0    0    0 -0.81591999044E+01  0.13085687505E+02 -0.24900792773E+02  0.29289200079E+02  0.00000000000E+00 0.  1.
</event>
<event>
 5    1  0.1047411E-009  0.9118800E+02  0.7815553E-02  0.1125453E+00
         25   -1    0    0    0    0  0.00000000000E+00  0.00000000000E+00  0.99999998245E-14  0.12509000000E+03  0.12509000000E+03 0.  0.
        -11    1    3    3    0    0  0.31954394131E+02 -0.90480165442E+00  0.92786845417E+01  0.33286573230E+02  0.51100000000E-03 0.  1.
         23    2    1    0    0    0 -0.28918424353E+02 -0.59057715278E+01  0.85215193867E+01  0.94369165098E+02  0.89228748866E+02 0.  0.
         11    1    3    3    0    0 -0.60872818485E+02 -0.50009698734E+01 -0.75716515505E+00  0.61082591868E+02  0.51100000000E-03 0. -1.
         22    1    1    0    0    0  0.28918424353E+02  0.59057715278E+01 -0.85215193867E+01  0.30720834902E+02  0.00000000000E+00 0. -1.
</event>
<event>
 5    1  0.1047411E-009  0.9118800E+02  0.7815553E-02  0.1125453E+00
         25   -1    0    0    0    0  0.00000000000E+00  0.00000000000E+00  0.99999998245E-14  0.12509000000E+03  0.12509000000E+03 0.  0.
        -11    1    3    3    0    0  0.10169867563E+02 -0.53011511455E+02 -0.28839622944E+02  0.61199431409E+02  0.51100000000E-03 0. -1.
         23    2    1    0    0    0  0.13359532531E+02 -0.21821055399E+02 -0.14562595713E+02  0.95650150101E+02  0.91006848381E+02 0.  0.
         11    1    3    3    0    0  0.31896649685E+01  0.31190456056E+02  0.14277027230E+02  0.34450718692E+02  0.51100000000E-03 0.  1.
         22    1    1    0    0    0 -0.13359532531E+02  0.21821055399E+02  0.14562595713E+02  0.29439849899E+02  0.00000000000E+00 0. -1.
</event>
<event>
 5    1  0.1047411E-009  0.9118800E+02  0.7815553E-02  0.1125453E+00
         25   -1    0    0    0    0  0.00000000000E+00  0.00000000000E+00  0.99999998245E-14  0.12509000000E+03  0.12509000000E+03 0.  0.
        -11    1    3    3    0    0  0.12599860401E+01 -0.44657254322E+02  0.21645164456E+02  0.49642432183E+02  0.51100000000E-03 0.  1.
         23    2    1    0    0    0 -0.24965923248E+02 -0.70314741622E+01  0.12008416680E+02  0.96507819823E+02  0.92178187568E+02 0.  0.
         11    1    3    3    0    0 -0.26225909288E+02  0.37625780160E+02 -0.96367477761E+01  0.46865387640E+02  0.51100000000E-03 0. -1.
         22    1    1    0    0    0  0.24965923248E+02  0.70314741622E+01 -0.12008416680E+02  0.28582180177E+02  0.00000000000E+00 0. -1.
</event>
<event>
 5    1  0.1047411E-009  0.9118800E+02  0.7815553E-02  0.1125453E+00
         25   -1    0    0    0    0  0.00000000000E+00  0.00000000000E+00  0.99999998245E-14  0.12509000000E+03  0.12509000000E+03 0.  0.
        -11    1    3    3    0    0 -0.54542598534E+02  0.17324919664E+02 -0.11176097929E+02  0.58309116452E+02  0.51100000000E-03 0.  1.
         23    2    1    0    0    0 -0.20819216204E+02  0.21965035469E+02  0.18791955662E+01  0.94767831171E+02  0.89785900354E+02 0.  0.
         11    1    3    3    0    0  0.33723382330E+02  0.46401158043E+01  0.13055293495E+02  0.36458714719E+02  0.51100000000E-03 0. -1.
         22    1    1    0    0    0  0.20819216204E+02 -0.21965035469E+02 -0.18791955662E+01  0.30322168829E+02  0.00000000000E+00 0.  1.
</event>
<event>
 5    1  0.1047411E-009  0.9118800E+02  0.7815553E-02  0.1125453E+00
         25   -1    0    0    0    0  0.00000000000E+00  0.00000000000E+00  0.99999998245E-14  0.12509000000E+03  0.12509000000E+03 0.  0.
        -11    1    3    3    0    0  0.46834222294E+02 -0.57783481339E+01 -0.12996630442E+02  0.48946359294E+02  0.51100000000E-03 0.  1.
         23    2    1    0    0    0  0.11714772256E+02  0.18095273333E+02 -0.24016248374E+02  0.92818418198E+02  0.87027603465E+02 0.  0.
         11    1    3    3    0    0 -0.35119450037E+02  0.23873621467E+02 -0.11019617933E+02  0.43872058904E+02  0.51100000000E-03 0. -1.
         22    1    1    0    0    0 -0.11714772256E+02 -0.18095273333E+02  0.24016248374E+02  0.32271581802E+02  0.00000000000E+00 0.  1.
</event>
<event>
 5    1  0.1047411E-009  0.9118800E+02  0.7815553E-02  0.1125453E+00
         25   -1    0    0    0    0  0.00000000000E+00  0.00000000000E+00  0.99999998245E-14  0.12509000000E+03  0.12509000000E+03 0.  0.
        -11    1    3    3    0    0  0.21823543517E+02 -0.12592443578E+02  0.30388414486E+02  0.39475212756E+02  0.51100000000E-03 0. -1.
         23    2    1    0    0    0  0.77989635553E+01 -0.19926638973E+02 -0.22117996239E+02  0.94315001528E+02  0.89152784490E+02 0.  0.
         11    1    3    3    0    0 -0.14024579961E+02 -0.73341953948E+01 -0.52506410725E+02  0.54839788773E+02  0.51100000000E-03 0.  1.
         22    1    1    0    0    0 -0.77989635553E+01  0.19926638973E+02  0.22117996239E+02  0.30774998472E+02  0.00000000000E+00 0.  1.
</event>
<event>
 5    1  0.1047411E-009  0.9118800E+02  0.7815553E-02  0.1125453E+00
         25   -1    0    0    0    0  0.00000000000E+00  0.00000000000E+00  0.99999998245E-14  0.12509000000E+03  0.12509000000E+03 0.  0.
        -11    1    3    3    0    0  0.29772337508E+02  0.40449794785E+02 -0.25375375719E+02  0.56271552956E+02  0.51100000000E-03 0.  1.
         23    2    1    0    0    0  0.43209192785E+01  0.37448434319E+02 -0.19842414089E+02  0.82489800785E+02  0.70638447465E+02 0.  0.
         11    1    3    3    0    0 -0.25451418230E+02 -0.30013604667E+01  0.55329616303E+01  0.26218247829E+02  0.51100000000E-03 0. -1.
         22    1    1    0    0    0 -0.43209192785E+01 -0.37448434319E+02  0.19842414089E+02  0.42600199215E+02  0.00000000000E+00 0.  1.
</event>
<event>
 5    1  0.1047411E-009  0.9118800E+02  0.7815553E-02  0.1125453E+00
         25   -1    0    0    0    0  0.00000000000E+00  0.00000000000E+00  0.99999998245E-14  0.12509000000E+03  0.12509000000E+03 0.  0.
        -11    1    3    3    0    0 -0.40363154711E+02  0.13621619939E+02  0.21585776444E+02  0.47756450171E+02  0.51100000000E-03 0. -1.
         23    2    1    0    0    0  0.89238579531E+01 -0.19173894077E+01  0.23920026247E+02  0.99487670446E+02  0.96136971516E+02 0.  0.
         11    1    3    3    0    0  0.49287012664E+02 -0.15539009346E+02  0.23342498034E+01  0.51731220276E+02  0.51100000000E-03 0.  1.
         22    1    1    0    0    0 -0.89238579531E+01  0.19173894077E+01 -0.23920026247E+02  0.25602329554E+02  0.00000000000E+00 0. -1.
</event>
<event>
 5    1  0.1047411E-009  0.9118800E+02  0.7815553E-02  0.1125453E+00
         25   -1    0    0    0    0  0.00000000000E+00  0.00000000000E+00  0.99999998245E-14  0.12509000000E+03  0.12509000000E+03 0.  0.
        -11    1    3    3    0    0  0.31056425503E+02  0.24560736343E+02 -0.38635375145E+02  0.55321094961E+02  0.51100000000E-03 0.  1.
         23    2    1    0    0    0  0.67989489731E+01 -0.61275602504E+01 -0.27668306472E+02  0.95947112621E+02  0.91414115626E+02 0.  0.
         11    1    3    3    0    0 -0.24257476530E+02 -0.30688296593E+02  0.10967068674E+02  0.40626017661E+02  0.51100000000E-03 0. -1.
         22    1    1    0    0    0 -0.67989489731E+01  0.61275602504E+01  0.27668306472E+02  0.29142887379E+02  0.00000000000E+00 0.  1.
</event>
<event>
 5    1  0.1047411E-009  0.9118800E+02  0.7815553E-02  0.1125453E+00
         25   -1    0    0    0    0  0.00000000000E+00  0.00000000000E+00  0.99999998245E-14  0.12509000000E+03  0.12509000000E+03 0.  0.
        -11    1    3    3    0    0  0.38839745238E+01  0.22354893078E+02 -0.55437666206E+02  0.59901263236E+02  0.51100000000E-03 0. -1.
         23    2    1    0    0    0  0.12679273997E+02  0.33146009261E+01 -0.24966255585E+02  0.96893112116E+02  0.92699572217E+02 0.  0.
         11    1    3    3    0    0  0.87952994734E+01 -0.19040292152E+02  0.30471410622E+02  0.36991848880E+02  0.51100000000E-03 0.  1.
         22    1    1    0    0    0 -0.12679273997E+02 -0.33146009261E+01  0.24966255585E+02  0.28196887884E+02  0.00000000000E+00 0. -1.
</event>
<event>
 5    1  0.1047411E-009  0.9118800E+02  0.7815553E-02  0.1125453E+00
         25   -1    0    0    0    0  0.00000000000E+00  0.00000000000E+00  0.99999998245E-14  0.12509000000E+03  0.12509000000E+03 0.  0.
        -11    1    3    3    0    0 -0.28513113869E+02 -0.28588950488E+02  0.56662490125E+01  0.40772933800E+02  0.51100000000E-03 0. -1.
         23    2    1    0    0    0  0.23325727020E+02 -0.14979462904E+02  0.12271423257E+02  0.94773969939E+02  0.89794452498E+02 0.  0.
         11    1    3    3    0    0  0.51838840889E+02  0.13609487585E+02  0.66051742444E+01  0.54001036139E+02  0.51100000000E-03 0.  1.
         22    1    1    0    0    0 -0.23325727020E+02  0.14979462904E+02 -0.12271423257E+02  0.30316030061E+02  0.00000000000E+00 0.  1.
</event>
<event>
 5    1  0.1047411E-009  0.9118800E+02  0.7815553E-02  0.1125453E+00
         25   -1    0    0    0    0  0.00000000000E+00  0.00000000000E+00  0.99999998245E-14  0.12509000000E+03  0.12509000000E+03 0.  0.
        -11    1    3    3    0    0 -0.14989635051E+02 -0.30780977691E+02  0.27181516582E+00  0.34237868367E+02  0.51100000000E-03 0. -1.
         23    2    1    0    0    0  0.16342414861E+02  0.19994754326E+02  0.14358495838E+02  0.95542899858E+02  0.90859312052E+02 0.  0.
         11    1    3    3    0    0  0.31332049912E+02  0.50775732017E+02  0.14086680672E+02  0.61305031491E+02  0.51100000000E-03 0.  1.
         22    1    1    0    0    0 -0.16342414861E+02 -0.19994754326E+02 -0.14358495838E+02  0.29547100142E+02  0.00000000000E+00 0.  1.
</event>
<event>
 5    1  0.1047411E-009  0.9118800E+02  0.7815553E-02  0.1125453E+00
         25   -1    0    0    0    0  0.00000000000E+00  0.00000000000E+00  0.99999998245E-14  0.12509000000E+03  0.12509000000E+03 0.  0.
        -11    1    3    3    0    0 -0.14145710178E+02 -0.51186261387E+01  0.60515037469E+02  0.62356805644E+02  0.51100000000E-03 0.  1.
         23    2    1    0    0    0 -0.95692214176E+01  0.11322544852E+00  0.36293945929E+02  0.87555571409E+02  0.79102115996E+02 0.  0.
         11    1    3    3    0    0  0.45764887603E+01  0.52318515872E+01 -0.24221091540E+02  0.25198765765E+02  0.51100000000E-03 0. -1.
         22    1    1    0    0    0  0.95692214176E+01 -0.11322544852E+00 -0.36293945929E+02  0.37534428591E+02  0.00000000000E+00 0.  1.
</event>
<event>
 5    1  0.1047411E-009  0.9118800E+02  0.7815553E-02  0.1125453E+00
         25   -1    0    0    0    0  0.00000000000E+00  0.00000000000E+00  0.99999998245E-14  0.12509000000E+03  0.12509000000E+03 0.  0.
        -11    1    3    3    0    0 -0.40617797873E+02 -0.11261644238E+02 -0.44350209610E+02  0.61184730348E+02  0.51100000000E-03 0. -1.
         23    2    1    0    0    0 -0.26462809530E+02 -0.38029112183E+01 -0.15466647710E+02  0.94203763367E+02  0.88996569704E+02 0.  0.
         11    1    3    3    0    0  0.14154988343E+02  0.74587330198E+01  0.28883561900E+02  0.33019033019E+02  0.51100000000E-03 0.  1.
         22    1    1    0    0    0  0.26462809530E+02  0.38029112183E+01  0.15466647710E+02  0.30886236633E+02  0.00000000000E+00 0. -1.
</event>
<event>
 5    1  0.1047411E-009  0.9118800E+02  0.7815553E-02  0.1125453E+00
         25   -1    0    0    0    0  0.00000000000E+00  0.00000000000E+00  0.99999998245E-14  0.12509000000E+03  0.12509000000E+03 0.  0.
        -11    1    3    3    0    0 -0.30715695276E+02  0.42057431363E+02 -0.16344078059E+02  0.54583975276E+02  0.51100000000E-03 0.  1.
         23    2    1    0    0    0  0.36005944398E+01  0.29372530855E+02  0.18418554264E+01  0.95440340971E+02  0.90718004851E+02 0.  0.
         11    1    3    3    0    0  0.34316289716E+02 -0.12684900508E+02  0.18185933485E+02  0.40856365695E+02  0.51100000000E-03 0. -1.
         22    1    1    0    0    0 -0.36005944398E+01 -0.29372530855E+02 -0.18418554264E+01  0.29649659029E+02  0.00000000000E+00 0.  1.
</event>
<event>
 5    1  0.1047411E-009  0.9118800E+02  0.7815553E-02  0.1125453E+00
         25   -1    0    0    0    0  0.00000000000E+00  0.00000000000E+00  0.99999998245E-14  0.12509000000E+03  0.12509000000E+03 0.  0.
        -11    1    3    3    0    0  0.52993068060E+02  0.63943573978E+01  0.24068596422E+02  0.58552970915E+02  0.51100000000E-03 0. -1.
         23    2    1    0    0    0  0.30060411726E+02 -0.52024681294E+01 -0.11539762464E+01  0.94560904224E+02  0.89497144751E+02 0.  0.
         11    1    3    3    0    0 -0.22932656335E+02 -0.11596825527E+02 -0.25222572669E+02  0.36007933309E+02  0.51100000000E-03 0.  1.
         22    1    1    0    0    0 -0.30060411726E+02  0.52024681294E+01  0.11539762464E+01  0.30529095776E+02  0.00000000000E+00 0. -1.
</event>
<event>
 5    1  0.1047411E-009  0.9118800E+02  0.7815553E-02  0.1125453E+00
         25   -1    0    0    0    0  0.00000000000E+00  0.00000000000E+00  0.99999998245E-14  0.12509000000E+03  0.12509000000E+03 0.  0.
        -11    1    3    3    0    0 -0.43766163258E+01 -0.38384838127E+02  0.18416250761E+02  0.42798467973E+02  0.51100000000E-03 0.  1.
         23    2    1    0    0    0  0.20105660124E+02  0.83290332544E+01  0.19957909246E+02  0.95561564460E+02  0.90885004794E+02 0.  0.
         11    1    3    3    0    0  0.24482276450E+02  0.46713871382E+02  0.15416584855E+01  0.52763096486E+02  0.51100000000E-03 0. -1.
         22    1    1    0    0    0 -0.20105660124E+02 -0.83290332544E+01 -0.19957909246E+02  0.29528435540E+02  0.00000000000E+00 0.  1.
</event>
<event>
 5    1  0.1047411E-009  0.9118800E+02  0.7815553E-02  0.1125453E+00
         25   -1    0    0    0    0  0.00000000000E+00  0.00000000000E+00  0.99999998245E-14  0.12509000000E+03  0.12509000000E+03 0.  0.
        -11    1    3    3    0    0 -0.24402777449E+02  0.37796647131E+02 -0.61740280679E+01  0.45411460056E+02  0.51100000000E-03 0.  1.
         23    2    1    0    0    0 -0.10134891735E+02 -0.72469329668E+01 -0.25694311407E+02  0.96534235143E+02  0.92214027393E+02 0.  0.
         11    1    3    3    0    0  0.14267885714E+02 -0.45043580097E+02 -0.19520283339E+02  0.51122775087E+02  0.51100000000E-03 0. -1.
         22    1    1    0    0    0  0.10134891735E+02  0.72469329668E+01  0.25694311407E+02  0.28555764857E+02  0.00000000000E+00 0.  1.
</event>
<event>
 5    1  0.1047411E-009  0.9118800E+02  0.7815553E-02  0.1125453E+00
         25   -1    0    0    0    0  0.00000000000E+00  0.00000000000E+00  0.99999998245E-14  0.12509000000E+03  0.12509000000E+03 0.  0.
        -11    1    3    3    0    0  0.58268548360E+01 -0.53351365660E+02  0.18197193434E+02  0.56669730053E+02  0.51100000000E-03 0.  1.
         23    2    1    0    0    0 -0.55336053504E+01 -0.28814879222E+02 -0.83717701141E+01  0.94577632219E+02  0.89520522388E+02 0.  0.
         11    1    3    3    0    0 -0.11360460186E+02  0.24536486438E+02 -0.26568963549E+02  0.37907902167E+02  0.51100000000E-03 0. -1.
         22    1    1    0    0    0  0.55336053504E+01  0.28814879222E+02  0.83717701141E+01  0.30512367781E+02  0.00000000000E+00 0.  1.
</event>
<event>
 5    1  0.1047411E-009  0.9118800E+02  0.7815553E-02  0.1125453E+00
         25   -1    0    0    0    0  0.00000000000E+00  0.00000000000E+00  0.99999998245E-14  0.12509000000E+03  0.12509000000E+03 0.  0.
        -11    1    3    3    0    0  0.25596197832E+02  0.73372649360E+01 -0.51578783197E+02  0.58046289085E+02  0.51100000000E-03 0. -1.
         23    2    1    0    0    0  0.74848779905E+01 -0.12588951664E+02 -0.26337097410E+02  0.94954509253E+02  0.90045605251E+02 0.  0.
         11    1    3    3    0    0 -0.18111319842E+02 -0.19926216600E+02  0.25241685786E+02  0.36908220169E+02  0.51100000000E-03 0.  1.
         22    1    1    0    0    0 -0.74848779905E+01  0.12588951664E+02  0.26337097410E+02  0.30135490747E+02  0.00000000000E+00 0. -1.
</event>
<event>
 5    1  0.1047411E-009  0.9118800E+02  0.7815553E-02  0.1125453E+00
         25   -1    0    0    0    0  0.00000000000E+00  0.00000000000E+00  0.99999998245E-14  0.12509000000E+03  0.12509000000E+03 0.  0.
        -11    1    3    3    0    0 -0.25399115968E+02  0.37013030254E+02 -0.24686188439E+02  0.51229751126E+02  0.51100000000E-03 0. -1.
         23    2    1    0    0    0 -0.15145211424E+02  0.19727167479E+02  0.15234597065E+02  0.95924412169E+02  0.91383047315E+02 0.  0.
         11    1    3    3    0    0  0.10253904544E+02 -0.17285862775E+02  0.39920785504E+02  0.44694661043E+02  0.51100000000E-03 0.  1.
         22    1    1    0    0    0  0.15145211424E+02 -0.19727167479E+02 -0.15234597065E+02  0.29165587831E+02  0.00000000000E+00 0. -1.
</event>
<event>
 5    1  0.1047411E-009  0.9118800E+02  0.7815553E-02  0.1125453E+00
         25   -1    0    0    0    0  0.00000000000E+00  0.00000000000E+00  0.99999998245E-14  0.12509000000E+03  0.12509000000E+03 0.  0.
        -11    1    3    3    0    0  0.17311127566E+02  0.13093503636E+02 -0.35853347323E+02  0.41911543632E+02  0.51100000000E-03 0.  1.
         23    2    1    0    0    0 -0.11985030150E+02 -0.24426453881E+02 -0.98490176251E+01  0.96153936946E+02  0.91696694843E+02 0.  0.
         11    1    3    3    0    0 -0.29296157717E+02 -0.37519957518E+02  0.26004329698E+02  0.54242393313E+02  0.51100000000E-03 0. -1.
         22    1    1    0    0    0  0.11985030150E+02  0.24426453881E+02  0.98490176251E+01  0.28936063054E+02  0.00000000000E+00 0. -1.
</event>
<event>
 5    1  0.1047411E-009  0.9118800E+02  0.7815553E-02  0.1125453E+00
         25   -1    0    0    0    0  0.00000000000E+00  0.00000000000E+00  0.99999998245E-14  0.12509000000E+03  0.12509000000E+03 0.  0.
        -11    1    3    3    0    0  0.28841540254E+02  0.93415911670E+01 -0.49920152156E+02  0.58404805977E+02  0.51100000000E-03 0. -1.
         23    2    1    0    0    0  0.16068539378E+02 -0.11504791093E+02 -0.22719810680E+02  0.94977743805E+02  0.90077876558E+02 0.  0.
         11    1    3    3    0    0 -0.12773000876E+02 -0.20846382260E+02  0.27200341476E+02  0.36572937828E+02  0.51100000000E-03 0.  1.
         22    1    1    0    0    0 -0.16068539378E+02  0.11504791093E+02  0.22719810680E+02  0.30112256195E+02  0.00000000000E+00 0. -1.
</event>
<event>
 5    1  0.1047411E-009  0.9118800E+02  0.7815553E-02  0.1125453E+00
         25   -1    0    0    0    0  0.00000000000E+00  0.00000000000E+00  0.99999998245E-14  0.12509000000E+03  0.12509000000E+03 0.  0.
        -11    1    3    3    0    0  0.34990930802E+02 -0.30679372683E+02  0.20903193546E+01  0.46582814234E+02  0.51100000000E-03 0.  1.
         23    2    1    0    0    0  0.12665849137E+02  0.48728775515E+01 -0.25069443649E+02  0.96583059181E+02  0.92280234319E+02 0.  0.
         11    1    3    3    0    0 -0.22325081666E+02  0.35552250235E+02 -0.27159763003E+02  0.50000244948E+02  0.51100000000E-03 0. -1.
         22    1    1    0    0    0 -0.12665849137E+02 -0.48728775515E+01  0.25069443649E+02  0.28506940819E+02  0.00000000000E+00 0. -1.
</event>
<event>
 5    1  0.1047411E-009  0.9118800E+02  0.7815553E-02  0.1125453E+00
         25   -1    0    0    0    0  0.00000000000E+00  0.00000000000E+00  0.99999998245E-14  0.12509000000E+03  0.12509000000E+03 0.  0.
        -11    1    3    3    0    0  0.36221842266E+02  0.22077233025E+02 -0.13412991308E+02  0.44489711297E+02  0.51100000000E-03 0. -1.
         23    2    1    0    0    0 -0.96589610557E+01  0.25437039776E+02  0.99910518435E+01  0.96104492619E+02  0.91629219484E+02 0.  0.
         11    1    3    3    0    0 -0.45880803321E+02  0.33598067501E+01  0.23404043151E+02  0.51614781322E+02  0.51100000000E-03 0.  1.
         22    1    1    0    0    0  0.96589610557E+01 -0.25437039776E+02 -0.99910518435E+01  0.28985507381E+02  0.00000000000E+00 0.  1.
</event>
<event>
 5    1  0.1047411E-009  0.9118800E+02  0.7815553E-02  0.1125453E+00
         25   -1    0    0    0    0  0.00000000000E+00  0.00000000000E+00  0.99999998245E-14  0.12509000000E+03  0.12509000000E+03 0.  0.
        -11    1    3    3    0    0 -0.75999745234E+01 -0.40687372317E+02  0.21601133135E+01  0.41447412086E+02  0.51100000000E-03 0. -1.
         23    2    1    0    0    0 -0.21254771685E+02  0.10689601284E+02 -0.14586100454E+02  0.97183240578E+02  0.93090252056E+02 0.  0.
         11    1    3    3    0    0 -0.13654797161E+02  0.51376973601E+02 -0.16746213767E+02  0.55735828492E+02  0.51100000000E-03 0.  1.
         22    1    1    0    0    0  0.21254771685E+02 -0.10689601284E+02  0.14586100454E+02  0.27906759422E+02  0.00000000000E+00 0.  1.
</event>
<event>
 5    1  0.1047411E-009  0.9118800E+02  0.7815553E-02  0.1125453E+00
         25   -1    0    0    0    0  0.00000000000E+00  0.00000000000E+00  0.99999998245E-14  0.12509000000E+03  0.12509000000E+03 0.  0.
        -11    1    3    3    0    0 -0.13545369709E+02 -0.64896478394E+01  0.57608211663E+02  0.59534012303E+02  0.51100000000E-03 0. -1.
         23    2    1    0    0    0 -0.10863340101E+02 -0.16308897964E+02  0.27453457081E+02  0.91360419263E+02  0.84906075114E+02 0.  0.
         11    1    3    3    0    0  0.26820296082E+01 -0.98192501248E+01 -0.30154754582E+02  0.31826406960E+02  0.51100000000E-03 0.  1.
         22    1    1    0    0    0  0.10863340101E+02  0.16308897964E+02 -0.27453457081E+02  0.33729580737E+02  0.00000000000E+00 0. -1.
</event>
<event>
 5    1  0.1047411E-009  0.9118800E+02  0.7815553E-02  0.1125453E+00
         25   -1    0    0    0    0  0.00000000000E+00  0.00000000000E+00  0.99999998245E-14  0.12509000000E+03  0.12509000000E+03 0.  0.
        -11    1    3    3    0    0  0.13985509816E+02 -0.28983206248E+01  0.36049506500E+02  0.38775787115E+02  0.51100000000E-03 0.  1.
         23    2    1    0    0    0 -0.23260387778E+02  0.18895550385E+02 -0.18021654749E+00  0.95121350682E+02  0.90277081330E+02 0.  0.
         11    1    3    3    0    0 -0.37245897594E+02  0.21793871010E+02 -0.36229723048E+02  0.56345563566E+02  0.51100000000E-03 0. -1.
         22    1    1    0    0    0  0.23260387778E+02 -0.18895550385E+02  0.18021654749E+00  0.29968649318E+02  0.00000000000E+00 0. -1.
</event>
<event>
 5    1  0.1047411E-009  0.9118800E+02  0.7815553E-02  0.1125453E+00
         25   -1    0    0    0    0  0.00000000000E+00  0.00000000000E+00  0.99999998245E-14  0.12509000000E+03  0.12509000000E+03 0.  0.
        -11    1    3    3    0    0  0.40083493271E+02  0.45858765726E+01 -0.17281046584E+01  0.40381964325E+02  0.51100000000E-03 0.  1.
         23    2    1    0    0    0 -0.10442043109E+02  0.25051195148E+02  0.10042637294E+02  0.96151216223E+02  0.91692983236E+02 0.  0.
         11    1    3    3    0    0 -0.50525536380E+02  0.20465318576E+02  0.11770741953E+02  0.55769251898E+02  0.51100000000E-03 0. -1.
         22    1    1    0    0    0  0.10442043109E+02 -0.25051195148E+02 -0.10042637294E+02  0.28938783777E+02  0.00000000000E+00 0. -1.
</event>
<event>
 5    1  0.1047411E-009  0.9118800E+02  0.7815553E-02  0.1125453E+00
         25   -1    0    0    0    0  0.00000000000E+00  0.00000000000E+00  0.99999998245E-14  0.12509000000E+03  0.12509000000E+03 0.  0.
        -11    1    3    3    0    0 -0.34882113699E+02 -0.16501872424E+02 -0.11366921326E+02  0.40227857889E+02  0.51100000000E-03 0.  1.
         23    2    1    0    0    0  0.81002751634E+01 -0.15387543276E+02  0.23688463766E+02  0.95704046529E+02  0.91080899538E+02 0.  0.
         11    1    3    3    0    0  0.42982388862E+02  0.11143291482E+01  0.35055385093E+02  0.55476188640E+02  0.51100000000E-03 0. -1.
         22    1    1    0    0    0 -0.81002751634E+01  0.15387543276E+02 -0.23688463766E+02  0.29385953471E+02  0.00000000000E+00 0. -1.
</event>
<event>
 5    1  0.1047411E-009  0.9118800E+02  0.7815553E-02  0.1125453E+00
         25   -1    0    0    0    0  0.00000000000E+00  0.00000000000E+00  0.99999998245E-14  0.12509000000E+03  0.12509000000E+03 0.  0.
        -11    1    3    3    0    0 -0.28116323722E+02  0.20401165222E+02 -0.26922072770E+02  0.43949211649E+02  0.51100000000E-03 0.  1.
         23    2    1    0    0    0 -0.23514236310E+02 -0.26648911457E+01  0.18468296596E+02  0.95071690034E+02  0.90208244151E+02 0.  0.
         11    1    3    3    0    0  0.46020874125E+01 -0.23066056368E+02  0.45390369365E+02  0.51122478386E+02  0.51100000000E-03 0. -1.
         22    1    1    0    0    0  0.23514236310E+02  0.26648911457E+01 -0.18468296596E+02  0.30018309966E+02  0.00000000000E+00 0. -1.
</event>
<event>
 5    1  0.1047411E-009  0.9118800E+02  0.7815553E-02  0.1125453E+00
         25   -1    0    0    0    0  0.00000000000E+00  0.00000000000E+00  0.99999998245E-14  0.12509000000E+03  0.12509000000E+03 0.  0.
        -11    1    3    3    0    0 -0.30718397895E+02  0.61587215746E+00  0.19839945742E+02  0.36573524783E+02  0.51100000000E-03 0. -1.
         23    2    1    0    0    0  0.27288076346E+02  0.37412875444E+01  0.11427642844E+02  0.95270084438E+02  0.90482935545E+02 0.  0.
         11    1    3    3    0    0  0.58006474240E+02  0.31254153869E+01 -0.84123028984E+01  0.58696559656E+02  0.51100000000E-03 0.  1.
         22    1    1    0    0    0 -0.27288076346E+02 -0.37412875444E+01 -0.11427642844E+02  0.29819915562E+02  0.00000000000E+00 0.  1.
</event>
<event>
 5    1  0.1047411E-009  0.9118800E+02  0.7815553E-02  0.1125453E+00
         25   -1    0    0    0    0  0.00000000000E+00  0.00000000000E+00  0.99999998245E-14  0.12509000000E+03  0.12509000000E+03 0.  0.
        -11    1    3    3    0    0  0.27078249374E+01 -0.41858155031E+02 -0.17187374101E+02  0.45330379298E+02  0.51100000000E-03 0. -1.
         23    2    1    0    0    0 -0.21603255975E+02 -0.13984349685E+02  0.15802009434E+02  0.94891221763E+02  0.89957644260E+02 0.  0.
         11    1    3    3    0    0 -0.24311080912E+02  0.27873805346E+02  0.32989383536E+02  0.49560842466E+02  0.51100000000E-03 0.  1.
         22    1    1    0    0    0  0.21603255975E+02  0.13984349685E+02 -0.15802009434E+02  0.30198778237E+02  0.00000000000E+00 0. -1.
</event>
<event>
 5    1  0.1047411E-009  0.9118800E+02  0.7815553E-02  0.1125453E+00
         25   -1    0    0    0    0  0.00000000000E+00  0.00000000000E+00  0.99999998245E-14  0.12509000000E+03  0.12509000000E+03 0.  0.
        -11    1    3    3    0    0 -0.18578795165E+02  0.49995161056E+02 -0.20786343593E+02  0.57242989432E+02  0.51100000000E-03 0. -1.
         23    2    1    0    0    0  0.88066673497E+01  0.27392641537E+02 -0.60521653599E+01  0.95686889523E+02  0.91057333152E+02 0.  0.
         11    1    3    3    0    0  0.27385462514E+02 -0.22602519519E+02  0.14734178233E+02  0.38443900091E+02  0.51100000000E-03 0.  1.
         22    1    1    0    0    0 -0.88066673497E+01 -0.27392641537E+02  0.60521653599E+01  0.29403110477E+02  0.00000000000E+00 0. -1.
</event>
<event>
 5    1  0.1047411E-009  0.9118800E+02  0.7815553E-02  0.1125453E+00
         25   -1    0    0    0    0  0.00000000000E+00  0.00000000000E+00  0.99999998245E-14  0.12509000000E+03  0.12509000000E+03 0.  0.
        -11    1    3    3    0    0  0.99666975894E+01 -0.40026549939E+02  0.99129867035E+01  0.42423190197E+02  0.51100000000E-03 0.  1.
         23    2    1    0    0    0 -0.46843906867E+01 -0.64039365452E+01 -0.28483858232E+02  0.95521704493E+02  0.90830126776E+02 0.  0.
         11    1    3    3    0    0 -0.14651088276E+02  0.33622613394E+02 -0.38396844936E+02  0.53098514296E+02  0.51100000000E-03 0. -1.
         22    1    1    0    0    0  0.46843906867E+01  0.64039365452E+01  0.28483858232E+02  0.29568295507E+02  0.00000000000E+00 0. -1.
</event>
<event>
 5    1  0.1047411E-009  0.9118800E+02  0.7815553E-02  0.1125453E+00
         25   -1    0    0    0    0  0.00000000000E+00  0.00000000000E+00  0.99999998245E-14  0.12509000000E+03  0.12509000000E+03 0.  0.
        -11    1    3    3    0    0  0.12552953388E+02  0.24136176510E+02 -0.39021941723E+02  0.47569355591E+02  0.51100000000E-03 0. -1.
         23    2    1    0    0    0  0.25576392574E+02 -0.12230796548E+02 -0.16944321792E+02  0.92061916764E+02  0.85933359273E+02 0.  0.
         11    1    3    3    0    0  0.13023439186E+02 -0.36366973058E+02  0.22077619931E+02  0.44492561172E+02  0.51100000000E-03 0.  1.
         22    1    1    0    0    0 -0.25576392574E+02  0.12230796548E+02  0.16944321792E+02  0.33028083236E+02  0.00000000000E+00 0. -1.
</event>
<event>
 5    1  0.1047411E-009  0.9118800E+02  0.7815553E-02  0.1125453E+00
         25   -1    0    0    0    0  0.00000000000E+00  0.00000000000E+00  0.99999998245E-14  0.12509000000E+03  0.12509000000E+03 0.  0.
        -11    1    3    3    0    0 -0.13399889702E+02  0.22680031550E+02  0.41805502106E+02  0.49412962689E+02  0.51100000000E-03 0.  1.
         23    2    1    0    0    0  0.22472302729E+02  0.10058439321E+02  0.20816769982E+02  0.92848497182E+02  0.87070827060E+02 0.  0.
         11    1    3    3    0    0  0.35872192431E+02 -0.12621592229E+02 -0.20988732124E+02  0.43435534493E+02  0.51100000000E-03 0. -1.
         22    1    1    0    0    0 -0.22472302729E+02 -0.10058439321E+02 -0.20816769982E+02  0.32241502818E+02  0.00000000000E+00 0.  1.
</event>
<event>
 5    1  0.1047411E-009  0.9118800E+02  0.7815553E-02  0.1125453E+00
         25   -1    0    0    0    0  0.00000000000E+00  0.00000000000E+00  0.99999998245E-14  0.12509000000E+03  0.12509000000E+03 0.  0.
        -11    1    3    3    0    0 -0.21275580795E+02 -0.46163244972E+02 -0.11390761113E+02  0.52090737790E+02  0.51100000000E-03 0. -1.
         23    2    1    0    0    0 -0.26779762238E+02 -0.77864610097E+01  0.88562962462E+01  0.95828786359E+02  0.91252055709E+02 0.  0.
         11    1    3    3    0    0 -0.55041814424E+01  0.38376783962E+02  0.20247057360E+02  0.43738048569E+02  0.51100000000E-03 0.  1.
         22    1    1    0    0    0  0.26779762238E+02  0.77864610097E+01 -0.88562962462E+01  0.29261213641E+02  0.00000000000E+00 0. -1.
</event>
<event>
 5    1  0.1047411E-009  0.9118800E+02  0.7815553E-02  0.1125453E+00
         25   -1    0    0    0    0  0.00000000000E+00  0.00000000000E+00  0.99999998245E-14  0.12509000000E+03  0.12509000000E+03 0.  0.
        -11    1    3    3    0    0 -0.43278061441E+01  0.32376666237E+02  0.56263088041E+01  0.33145644867E+02  0.51100000000E-03 0. -1.
         23    2    1    0    0    0 -0.14825794152E+02 -0.27359743801E+02  0.16410499964E+01  0.93928279923E+02  0.88608515229E+02 0.  0.
         11    1    3    3    0    0 -0.10497988008E+02 -0.59736410037E+02 -0.39852588076E+01  0.60782635056E+02  0.51100000000E-03 0.  1.
         22    1    1    0    0    0  0.14825794152E+02  0.27359743801E+02 -0.16410499964E+01  0.31161720077E+02  0.00000000000E+00 0.  1.
</event>
<event>
 5    1  0.1047411E-009  0.9118800E+02  0.7815553E-02  0.1125453E+00
         25   -1    0    0    0    0  0.00000000000E+00  0.00000000000E+00  0.99999998245E-14  0.12509000000E+03  0.12509000000E+03 0.  0.
        -11    1    3    3    0    0 -0.49833445877E+02 -0.18785110090E+02 -0.11786922324E+02  0.54545249355E+02  0.51100000000E-03 0.  1.
         23    2    1    0    0    0 -0.11469914341E+02 -0.17223626778E+02 -0.22613116715E+02  0.94437670530E+02  0.89324735170E+02 0.  0.
         11    1    3    3    0    0  0.38363531535E+02  0.15614833120E+01 -0.10826194391E+02  0.39892421176E+02  0.51100000000E-03 0. -1.
         22    1    1    0    0    0  0.11469914341E+02  0.17223626778E+02  0.22613116715E+02  0.30652329470E+02  0.00000000000E+00 0.  1.
</event>
<event>
 5    1  0.1047411E-009  0.9118800E+02  0.7815553E-02  0.1125453E+00
         25   -1    0    0    0    0  0.00000000000E+00  0.00000000000E+00  0.99999998245E-14  0.12509000000E+03  0.12509000000E+03 0.  0.
        -11    1    3    3    0    0  0.27404285211E+02 -0.22319369901E+02  0.13539729272E+02  0.37848030196E+02  0.51100000000E-03 0.  1.
         23    2    1    0    0    0 -0.30927213873E+01  0.26874048290E+02  0.11306461776E+02  0.95770800233E+02  0.91172532609E+02 0.  0.
         11    1    3    3    0    0 -0.30497006598E+02  0.49193418191E+02 -0.22332674965E+01  0.57922770037E+02  0.51100000000E-03 0. -1.
         22    1    1    0    0    0  0.30927213873E+01 -0.26874048290E+02 -0.11306461776E+02  0.29319199767E+02  0.00000000000E+00 0. -1.
</event>
<event>
 5    1  0.1047411E-009  0.9118800E+02  0.7815553E-02  0.1125453E+00
         25   -1    0    0    0    0  0.00000000000E+00  0.00000000000E+00  0.99999998245E-14  0.12509000000E+03  0.12509000000E+03 0.  0.
        -11    1    3    3    0    0  0.17658699164E+02  0.29808710131E+02  0.10400875948E+02  0.36174121642E+02  0.51100000000E-03 0.  1.
         23    2    1    0    0    0  0.11791212494E+02 -0.27589819989E+02 -0.13482608230E+01  0.95055874970E+02  0.90186311045E+02 0.  0.
         11    1    3    3    0    0 -0.58674866701E+01 -0.57398530120E+02 -0.11749136771E+02  0.58881753327E+02  0.51100000000E-03 0. -1.
         22    1    1    0    0    0 -0.11791212494E+02  0.27589819989E+02  0.13482608230E+01  0.30034125030E+02  0.00000000000E+00 0. -1.
</event>
<event>
 5    1  0.1047411E-009  0.9118800E+02  0.7815553E-02  0.1125453E+00
         25   -1    0    0    0    0  0.00000000000E+00  0.00000000000E+00  0.99999998245E-14  0.12509000000E+03  0.12509000000E+03 0.  0.
        -11    1    3    3    0    0  0.35840500405E+01  0.51775764957E+02 -0.32086101137E+02  0.61017154457E+02  0.51100000000E-03 0. -1.
         23    2    1    0    0    0  0.11324859162E+02  0.23011757203E+02 -0.13884364402E+02  0.95925484241E+02  0.91384514811E+02 0.  0.
         11    1    3    3    0    0  0.77408091217E+01 -0.28764007753E+02  0.18201736735E+02  0.34908329784E+02  0.51100000000E-03 0.  1.
         22    1    1    0    0    0 -0.11324859162E+02 -0.23011757203E+02  0.13884364402E+02  0.29164515759E+02  0.00000000000E+00 0. -1.
</event>
<event>
 5    1  0.1047411E-009  0.9118800E+02  0.7815553E-02  0.1125453E+00
         25   -1    0    0    0    0  0.00000000000E+00  0.00000000000E+00  0.99999998245E-14  0.12509000000E+03  0.12509000000E+03 0.  0.
        -11    1    3    3    0    0 -0.14979437362E+02 -0.48581323841E+01 -0.30636535680E+02  0.34446804099E+02  0.51100000000E-03 0.  1.
         23    2    1    0    0    0  0.27053377003E+02 -0.10676288159E+02  0.11094208949E+02  0.93962041372E+02  0.88656163973E+02 0.  0.
         11    1    3    3    0    0  0.42032814365E+02 -0.58181557748E+01  0.41730744629E+02  0.59515237273E+02  0.51100000000E-03 0. -1.
         22    1    1    0    0    0 -0.27053377003E+02  0.10676288159E+02 -0.11094208949E+02  0.31127958628E+02  0.00000000000E+00 0. -1.
</event>
<event>
 5    1  0.1047411E-009  0.9118800E+02  0.7815553E-02  0.1125453E+00
         25   -1    0    0    0    0  0.00000000000E+00  0.00000000000E+00  0.99999998245E-14  0.12509000000E+03  0.12509000000E+03 0.  0.
        -11    1    3    3    0    0 -0.31915898195E+02 -0.54867543819E+01  0.51167620627E+02  0.60554557485E+02  0.51100000000E-03 0. -1.
         23    2    1    0    0    0 -0.17766729118E+02  0.79426793191E+01  0.21203326257E+02  0.96309383907E+02  0.91908506494E+02 0.  0.
         11    1    3    3    0    0  0.14149169078E+02  0.13429433701E+02 -0.29964294371E+02  0.35754826423E+02  0.51100000000E-03 0.  1.
         22    1    1    0    0    0  0.17766729118E+02 -0.79426793191E+01 -0.21203326257E+02  0.28780616093E+02  0.00000000000E+00 0. -1.
</event>
<event>
 5    1  0.1047411E-009  0.9118800E+02  0.7815553E-02  0.1125453E+00
         25   -1    0    0    0    0  0.00000000000E+00  0.00000000000E+00  0.99999998245E-14  0.12509000000E+03  0.12509000000E+03 0.  0.
        -11    1    3    3    0    0 -0.34590926010E+02  0.33871707140E+02  0.32666632392E+02  0.58403198362E+02  0.51100000000E-03 0.  1.
         23    2    1    0    0    0 -0.13708704603E+02  0.24636757934E+02  0.17441084547E+01  0.96842162248E+02  0.92630794292E+02 0.  0.
         11    1    3    3    0    0  0.20882221407E+02 -0.92349492066E+01 -0.30922523937E+02  0.38438963886E+02  0.51100000000E-03 0. -1.
         22    1    1    0    0    0  0.13708704603E+02 -0.24636757934E+02 -0.17441084547E+01  0.28247837752E+02  0.00000000000E+00 0.  1.
</event>
<event>
 5    1  0.1047411E-009  0.9118800E+02  0.7815553E-02  0.1125453E+00
         25   -1    0    0    0    0  0.00000000000E+00  0.00000000000E+00  0.99999998245E-14  0.12509000000E+03  0.12509000000E+03 0.  0.
        -11    1    3    3    0    0  0.35760035643E+02  0.33887818849E+02 -0.75740120564E+01  0.49845060683E+02  0.51100000000E-03 0. -1.
         23    2    1    0    0    0  0.15382563421E+02  0.19820724374E+02  0.24269684441E+02  0.90182952646E+02  0.83153250044E+02 0.  0.
         11    1    3    3    0    0 -0.20377472222E+02 -0.14067094475E+02  0.31843696498E+02  0.40337891963E+02  0.51100000000E-03 0.  1.
         22    1    1    0    0    0 -0.15382563421E+02 -0.19820724374E+02 -0.24269684441E+02  0.34907047354E+02  0.00000000000E+00 0. -1.
</event>
<event>
 5    1  0.1047411E-009  0.9118800E+02  0.7815553E-02  0.1125453E+00
         25   -1    0    0    0    0  0.00000000000E+00  0.00000000000E+00  0.99999998245E-14  0.12509000000E+03  0.12509000000E+03 0.  0.
        -11    1    3    3    0    0 -0.15344524171E+02 -0.25402882420E+02 -0.46542819334E+02  0.55199591385E+02  0.51100000000E-03 0. -1.
         23    2    1    0    0    0  0.13162190692E+02 -0.41087340329E+01 -0.24267092427E+02  0.97179128749E+02  0.93084726622E+02 0.  0.
         11    1    3    3    0    0  0.28506714863E+02  0.21294148387E+02  0.22275726907E+02  0.41979537364E+02  0.51100000000E-03 0.  1.
         22    1    1    0    0    0 -0.13162190692E+02  0.41087340329E+01  0.24267092427E+02  0.27910871251E+02  0.00000000000E+00 0. -1.
</event>
<event>
 5    1  0.1047411E-009  0.9118800E+02  0.7815553E-02  0.1125453E+00
         25   -1    0    0    0    0  0.00000000000E+00  0.00000000000E+00  0.99999998245E-14  0.12509000000E+03  0.12509000000E+03 0.  0.
        -11    1    3    3    0    0  0.97987315999E+01  0.32808458556E+02 -0.12672256619E+02  0.36510220239E+02  0.51100000000E-03 0.  1.
         23    2    1    0    0    0  0.15230215650E+01 -0.26684395739E+02 -0.97241179727E+01  0.96648216635E+02  0.92368515944E+02 0.  0.
         11    1    3    3    0    0 -0.82757100349E+01 -0.59492854295E+02  0.29481386460E+01  0.60137996396E+02  0.51100000000E-03 0. -1.
         22    1    1    0    0    0 -0.15230215650E+01  0.26684395739E+02  0.97241179727E+01  0.28441783365E+02  0.00000000000E+00 0. -1.
</event>
<event>
 5    1  0.1047411E-009  0.9118800E+02  0.7815553E-02  0.1125453E+00
         25   -1    0    0    0    0  0.00000000000E+00  0.00000000000E+00  0.99999998245E-14  0.12509000000E+03  0.12509000000E+03 0.  0.
        -11    1    3    3    0    0  0.22437652866E+02  0.19977243466E+02 -0.78843898951E+00  0.30052623163E+02  0.51100000000E-03 0.  1.
         23    2    1    0    0    0 -0.28831249013E+02 -0.15258587889E+02 -0.32307439053E+01  0.92310385448E+02  0.86294287941E+02 0.  0.
         11    1    3    3    0    0 -0.51268901880E+02 -0.35235831354E+02 -0.24423049158E+01  0.62257762285E+02  0.51100000000E-03 0. -1.
         22    1    1    0    0    0  0.28831249013E+02  0.15258587889E+02  0.32307439053E+01  0.32779614552E+02  0.00000000000E+00 0. -1.
</event>
<event>
 5    1  0.1047411E-009  0.9118800E+02  0.7815553E-02  0.1125453E+00
         25   -1    0    0    0    0  0.00000000000E+00  0.00000000000E+00  0.99999998245E-14  0.12509000000E+03  0.12509000000E+03 0.  0.
        -11    1    3    3    0    0 -0.12545996123E+02  0.41732552481E+02 -0.62279381351E+01  0.44020394921E+02  0.51100000000E-03 0.  1.
         23    2    1    0    0    0 -0.32778777025E+01  0.36352292848E+01  0.28363744426E+02  0.96306995083E+02  0.91905255180E+02 0.  0.
         11    1    3    3    0    0  0.92681184208E+01 -0.38097323196E+02  0.34591682561E+02  0.52286600162E+02  0.51100000000E-03 0. -1.
         22    1    1    0    0    0  0.32778777025E+01 -0.36352292848E+01 -0.28363744426E+02  0.28783004917E+02  0.00000000000E+00 0.  1.
</event>
<event>
 5    1  0.1047411E-009  0.9118800E+02  0.7815553E-02  0.1125453E+00
         25   -1    0    0    0    0  0.00000000000E+00  0.00000000000E+00  0.99999998245E-14  0.12509000000E+03  0.12509000000E+03 0.  0.
        -11    1    3    3    0    0  0.37469813198E+01 -0.34566843587E+02  0.14585463251E+02  0.37704671900E+02  0.51100000000E-03 0. -1.
         23    2    1    0    0    0 -0.20481265217E+02  0.11165661319E+02 -0.15036803796E+02  0.97336447327E+02  0.93295896438E+02 0.  0.
         11    1    3    3    0    0 -0.24228246537E+02  0.45732504906E+02 -0.29622267047E+02  0.59631775426E+02  0.51100000000E-03 0.  1.
         22    1    1    0    0    0  0.20481265217E+02 -0.11165661319E+02  0.15036803796E+02  0.27753552673E+02  0.00000000000E+00 0.  1.
</event>
<event>
 5    1  0.1047411E-009  0.9118800E+02  0.7815553E-02  0.1125453E+00
         25   -1    0    0    0    0  0.00000000000E+00  0.00000000000E+00  0.99999998245E-14  0.12509000000E+03  0.12509000000E+03 0.  0.
        -11    1    3    3    0    0  0.19236579570E+02 -0.38052218910E+02  0.34340138782E+02  0.54747260108E+02  0.51100000000E-03 0.  1.
         23    2    1    0    0    0  0.67606356203E+01  0.68449850995E+00  0.28416492272E+02  0.95872338128E+02  0.91311737761E+02 0.  0.
         11    1    3    3    0    0 -0.12475943950E+02  0.38736717420E+02 -0.59236465100E+01  0.41125078020E+02  0.51100000000E-03 0. -1.
         22    1    1    0    0    0 -0.67606356203E+01 -0.68449850995E+00 -0.28416492272E+02  0.29217661872E+02  0.00000000000E+00 0.  1.
</event>
<event>
 5    1  0.1047411E-009  0.9118800E+02  0.7815553E-02  0.1125453E+00
         25   -1    0    0    0    0  0.00000000000E+00  0.00000000000E+00  0.99999998245E-14  0.12509000000E+03  0.12509000000E+03 0.  0.
        -11    1    3    3    0    0 -0.25705982598E+02 -0.85852539382E+01 -0.22696562491E+02  0.35350220306E+02  0.51100000000E-03 0.  1.
         23    2    1    0    0    0  0.28032642388E+02  0.68963507913E+01  0.12700290734E+01  0.96193604596E+02  0.91750792355E+02 0.  0.
         11    1    3    3    0    0  0.53738624986E+02  0.15481604729E+02  0.23966591565E+02  0.60843384290E+02  0.51100000000E-03 0. -1.
         22    1    1    0    0    0 -0.28032642388E+02 -0.68963507913E+01 -0.12700290734E+01  0.28896395404E+02  0.00000000000E+00 0. -1.
</event>
<event>
 5    1  0.1047411E-009  0.9118800E+02  0.7815553E-02  0.1125453E+00
         25   -1    0    0    0    0  0.00000000000E+00  0.00000000000E+00  0.99999998245E-14  0.12509000000E+03  0.12509000000E+03 0.  0.
        -11    1    3    3    0    0  0.87594376399E+01 -0.40959539734E+02 -0.44083200400E+02  0.60809047031E+02  0.51100000000E-03 0. -1.
         23    2    1    0    0    0 -0.60975619035E+01 -0.15378006785E+02 -0.21143200571E+02  0.98244175665E+02  0.94505130907E+02 0.  0.
         11    1    3    3    0    0 -0.14856999543E+02  0.25581532949E+02  0.22939999829E+02  0.37435128634E+02  0.51100000000E-03 0.  1.
         22    1    1    0    0    0  0.60975619035E+01  0.15378006785E+02  0.21143200571E+02  0.26845824335E+02  0.00000000000E+00 0. -1.
</event>
<event>
 5    1  0.1047411E-009  0.9118800E+02  0.7815553E-02  0.1125453E+00
         25   -1    0    0    0    0  0.00000000000E+00  0.00000000000E+00  0.99999998245E-14  0.12509000000E+03  0.12509000000E+03 0.  0.
        -11    1    3    3    0    0  0.29732570666E+02 -0.61171692441E+01 -0.23184593616E+02  0.38196477579E+02  0.51100000000E-03 0.  1.
         23    2    1    0    0    0 -0.19964159093E+02 -0.19905044065E+02  0.41954419810E+01  0.96587716566E+02  0.92286547397E+02 0.  0.
         11    1    3    3    0    0 -0.49696729760E+02 -0.13787874821E+02  0.27380035598E+02  0.58391238987E+02  0.51100000000E-03 0. -1.
         22    1    1    0    0    0  0.19964159093E+02  0.19905044065E+02 -0.41954419810E+01  0.28502283434E+02  0.00000000000E+00 0. -1.
</event>
<event>
 5    1  0.1047411E-009  0.9118800E+02  0.7815553E-02  0.1125453E+00
         25   -1    0    0    0    0  0.00000000000E+00  0.00000000000E+00  0.99999998245E-14  0.12509000000E+03  0.12509000000E+03 0.  0.
        -11    1    3    3    0    0  0.15371180927E+01  0.31156982751E+02  0.41407691607E+02  0.51843198499E+02  0.51100000000E-03 0. -1.
         23    2    1    0    0    0  0.93333518490E+01  0.27802964900E+02 -0.16370000033E+01  0.95716609270E+02  0.91098151502E+02 0.  0.
         11    1    3    3    0    0  0.77962337563E+01 -0.33540178504E+01 -0.43044691610E+02  0.43873410770E+02  0.51100000000E-03 0.  1.
         22    1    1    0    0    0 -0.93333518490E+01 -0.27802964900E+02  0.16370000033E+01  0.29373390730E+02  0.00000000000E+00 0. -1.
</event>
<event>
 5    1  0.1047411E-009  0.9118800E+02  0.7815553E-02  0.1125453E+00
         25   -1    0    0    0    0  0.00000000000E+00  0.00000000000E+00  0.99999998245E-14  0.12509000000E+03  0.12509000000E+03 0.  0.
        -11    1    3    3    0    0 -0.39393589768E+02 -0.99083039978E+01 -0.39893412538E+02  0.56934293419E+02  0.51100000000E-03 0. -1.
         23    2    1    0    0    0 -0.28937059664E+02 -0.99463759623E+01 -0.41073019734E+01  0.94216811854E+02  0.89014908244E+02 0.  0.
         11    1    3    3    0    0  0.10456530104E+02 -0.38071964514E-01  0.35786110564E+02  0.37282518435E+02  0.51100000000E-03 0.  1.
         22    1    1    0    0    0  0.28937059664E+02  0.99463759623E+01  0.41073019734E+01  0.30873188146E+02  0.00000000000E+00 0. -1.
</event>
<event>
 5    1  0.1047411E-009  0.9118800E+02  0.7815553E-02  0.1125453E+00
         25   -1    0    0    0    0  0.00000000000E+00  0.00000000000E+00  0.99999998245E-14  0.12509000000E+03  0.12509000000E+03 0.  0.
        -11    1    3    3    0    0 -0.39435263657E+02 -0.30571339445E+02  0.37154221588E+02  0.62210794860E+02  0.51100000000E-03 0. -1.
         23    2    1    0    0    0 -0.15785899215E+02 -0.17512968823E+02  0.19614543017E+02  0.94420324606E+02  0.89300440704E+02 0.  0.
         11    1    3    3    0    0  0.23649364442E+02  0.13058370622E+02 -0.17539678571E+02  0.32209529746E+02  0.51100000000E-03 0.  1.
         22    1    1    0    0    0  0.15785899215E+02  0.17512968823E+02 -0.19614543017E+02  0.30669675394E+02  0.00000000000E+00 0. -1.
</event>
<event>
 5    1  0.1047411E-009  0.9118800E+02  0.7815553E-02  0.1125453E+00
         25   -1    0    0    0    0  0.00000000000E+00  0.00000000000E+00  0.99999998245E-14  0.12509000000E+03  0.12509000000E+03 0.  0.
        -11    1    3    3    0    0 -0.30689195237E+02  0.15983116351E+02 -0.18073374397E+02  0.39037591818E+02  0.51100000000E-03 0.  1.
         23    2    1    0    0    0  0.21779076989E+02 -0.11359031286E+02 -0.91797250312E+01  0.98867430754E+02  0.95326521629E+02 0.  0.
         11    1    3    3    0    0  0.52468272226E+02 -0.27342147637E+02  0.88936493660E+01  0.59829838936E+02  0.51100000000E-03 0. -1.
         22    1    1    0    0    0 -0.21779076989E+02  0.11359031286E+02  0.91797250312E+01  0.26222569246E+02  0.00000000000E+00 0. -1.
</event>
<event>
 5    1  0.1047411E-009  0.9118800E+02  0.7815553E-02  0.1125453E+00
         25   -1    0    0    0    0  0.00000000000E+00  0.00000000000E+00  0.99999998245E-14  0.12509000000E+03  0.12509000000E+03 0.  0.
        -11    1    3    3    0    0  0.38307481033E+02  0.99027628479E+01  0.45524925650E+02  0.60316222286E+02  0.51100000000E-03 0.  1.
         23    2    1    0    0    0  0.10049002338E+02  0.71160685419E+01  0.29960851939E+02  0.92697508148E+02  0.86853638314E+02 0.  0.
         11    1    3    3    0    0 -0.28258478695E+02 -0.27866943060E+01 -0.15564073712E+02  0.32381285862E+02  0.51100000000E-03 0. -1.
         22    1    1    0    0    0 -0.10049002338E+02 -0.71160685419E+01 -0.29960851939E+02  0.32392491852E+02  0.00000000000E+00 0.  1.
</event>
<event>
 5    1  0.1047411E-009  0.9118800E+02  0.7815553E-02  0.1125453E+00
         25   -1    0    0    0    0  0.00000000000E+00  0.00000000000E+00  0.99999998245E-14  0.12509000000E+03  0.12509000000E+03 0.  0.
        -11    1    3    3    0    0 -0.33837063042E+02 -0.46630844434E+02 -0.12128754826E+02  0.58876898541E+02  0.51100000000E-03 0.  1.
         23    2    1    0    0    0 -0.25691711986E+02 -0.14642332744E+02  0.33395816944E+01  0.95330719450E+02  0.90566722874E+02 0.  0.
         11    1    3    3    0    0  0.81453510559E+01  0.31988511690E+02  0.15468336520E+02  0.36453820910E+02  0.51100000000E-03 0. -1.
         22    1    1    0    0    0  0.25691711986E+02  0.14642332744E+02 -0.33395816944E+01  0.29759280550E+02  0.00000000000E+00 0.  1.
</event>
<event>
 5    1  0.1047411E-009  0.9118800E+02  0.7815553E-02  0.1125453E+00
         25   -1    0    0    0    0  0.00000000000E+00  0.00000000000E+00  0.99999998245E-14  0.12509000000E+03  0.12509000000E+03 0.  0.
        -11    1    3    3    0    0  0.22237134901E+02  0.26260611445E+02 -0.53292839998E+01  0.34821130801E+02  0.51100000000E-03 0.  1.
         23    2    1    0    0    0  0.56313919353E+01 -0.29938089388E+02  0.46767508069E+01  0.94269977784E+02  0.89089589414E+02 0.  0.
         11    1    3    3    0    0 -0.16605742966E+02 -0.56198700833E+02  0.10006034807E+02  0.59448846982E+02  0.51100000000E-03 0. -1.
         22    1    1    0    0    0 -0.56313919353E+01  0.29938089388E+02 -0.46767508069E+01  0.30820022216E+02  0.00000000000E+00 0. -1.
</event>
<event>
 5    1  0.1047411E-009  0.9118800E+02  0.7815553E-02  0.1125453E+00
         25   -1    0    0    0    0  0.00000000000E+00  0.00000000000E+00  0.99999998245E-14  0.12509000000E+03  0.12509000000E+03 0.  0.
        -11    1    3    3    0    0 -0.14409315482E+02  0.56404938829E+02  0.32464622622E+01  0.58306817907E+02  0.51100000000E-03 0. -1.
         23    2    1    0    0    0 -0.13737566137E+02  0.27250688815E+02 -0.13259853222E+02  0.91816219455E+02  0.85574959441E+02 0.  0.
         11    1    3    3    0    0  0.67174934483E+00 -0.29154250013E+02 -0.16506315484E+02  0.33509401549E+02  0.51100000000E-03 0.  1.
         22    1    1    0    0    0  0.13737566137E+02 -0.27250688815E+02  0.13259853222E+02  0.33273780545E+02  0.00000000000E+00 0. -1.
</event>
<event>
 5    1  0.1047411E-009  0.9118800E+02  0.7815553E-02  0.1125453E+00
         25   -1    0    0    0    0  0.00000000000E+00  0.00000000000E+00  0.99999998245E-14  0.12509000000E+03  0.12509000000E+03 0.  0.
        -11    1    3    3    0    0  0.44455025921E+01 -0.97366483710E+00  0.54955632359E+02  0.55143739851E+02  0.51100000000E-03 0.  1.
         23    2    1    0    0    0 -0.13661735384E+02  0.14052871672E+02  0.22175929885E+02  0.95494424618E+02  0.90792549534E+02 0.  0.
         11    1    3    3    0    0 -0.18107237976E+02  0.15026536509E+02 -0.32779702474E+02  0.40350684767E+02  0.51100000000E-03 0. -1.
         22    1    1    0    0    0  0.13661735384E+02 -0.14052871672E+02 -0.22175929885E+02  0.29595575382E+02  0.00000000000E+00 0.  1.
</event>
<event>
 5    1  0.1047411E-009  0.9118800E+02  0.7815553E-02  0.1125453E+00
         25   -1    0    0    0    0  0.00000000000E+00  0.00000000000E+00  0.99999998245E-14  0.12509000000E+03  0.12509000000E+03 0.  0.
        -11    1    3    3    0    0  0.25954543220E+02 -0.13211921728E+02  0.27489094174E+02  0.40048014786E+02  0.51100000000E-03 0.  1.
         23    2    1    0    0    0 -0.20995547294E+02  0.13567796795E+02  0.14335820663E+01  0.10005096500E+03  0.96867137485E+02 0.  0.
         11    1    3    3    0    0 -0.46950090514E+02  0.26779718522E+02 -0.26055512108E+02  0.60002950218E+02  0.51100000000E-03 0. -1.
         22    1    1    0    0    0  0.20995547294E+02 -0.13567796795E+02 -0.14335820663E+01  0.25039034997E+02  0.00000000000E+00 0. -1.
</event>
<event>
 5    1  0.1047411E-009  0.9118800E+02  0.7815553E-02  0.1125453E+00
         25   -1    0    0    0    0  0.00000000000E+00  0.00000000000E+00  0.99999998245E-14  0.12509000000E+03  0.12509000000E+03 0.  0.
        -11    1    3    3    0    0 -0.36415280537E+02 -0.36866603537E+02 -0.10125031210E+02  0.52799009178E+02  0.51100000000E-03 0. -1.
         23    2    1    0    0    0 -0.34044654614E+02 -0.34244860455E+01  0.65646274086E+01  0.90249507101E+02  0.83253309763E+02 0.  0.
         11    1    3    3    0    0  0.23706259235E+01  0.33442117491E+02  0.16689658618E+02  0.37450497922E+02  0.51100000000E-03 0.  1.
         22    1    1    0    0    0  0.34044654614E+02  0.34244860455E+01 -0.65646274086E+01  0.34840492899E+02  0.00000000000E+00 0. -1.
</event>
<event>
 5    1  0.1047411E-009  0.9118800E+02  0.7815553E-02  0.1125453E+00
         25   -1    0    0    0    0  0.00000000000E+00  0.00000000000E+00  0.99999998245E-14  0.12509000000E+03  0.12509000000E+03 0.  0.
        -11    1    3    3    0    0 -0.17600153222E+02 -0.83140904054E+01 -0.34407814002E+02  0.39532102870E+02  0.51100000000E-03 0. -1.
         23    2    1    0    0    0 -0.14623651089E+02  0.22773703734E+02  0.12012022721E+02  0.95479504516E+02  0.90771990944E+02 0.  0.
         11    1    3    3    0    0  0.29765021327E+01  0.31087794139E+02  0.46419836722E+02  0.55947401646E+02  0.51100000000E-03 0.  1.
         22    1    1    0    0    0  0.14623651089E+02 -0.22773703734E+02 -0.12012022721E+02  0.29610495484E+02  0.00000000000E+00 0.  1.
</event>
<event>
 5    1  0.1047411E-009  0.9118800E+02  0.7815553E-02  0.1125453E+00
         25   -1    0    0    0    0  0.00000000000E+00  0.00000000000E+00  0.99999998245E-14  0.12509000000E+03  0.12509000000E+03 0.  0.
        -11    1    3    3    0    0  0.42264961782E+01 -0.76902627322E+01 -0.35347873427E+02  0.36420812276E+02  0.51100000000E-03 0. -1.
         23    2    1    0    0    0 -0.17981138194E+02 -0.12835760150E+02  0.19377057783E+02  0.95703805321E+02  0.91080568263E+02 0.  0.
         11    1    3    3    0    0 -0.22207634372E+02 -0.51454974182E+01  0.54724931210E+02  0.59282993044E+02  0.51100000000E-03 0.  1.
         22    1    1    0    0    0  0.17981138194E+02  0.12835760150E+02 -0.19377057783E+02  0.29386194679E+02  0.00000000000E+00 0.  1.
</event>
<event>
 5    1  0.1047411E-009  0.9118800E+02  0.7815553E-02  0.1125453E+00
         25   -1    0    0    0    0  0.00000000000E+00  0.00000000000E+00  0.99999998245E-14  0.12509000000E+03  0.12509000000E+03 0.  0.
        -11    1    3    3    0    0  0.53823159893E+02  0.14390067716E+02  0.81260993498E+01  0.56303108979E+02  0.51100000000E-03 0.  1.
         23    2    1    0    0    0  0.16546968001E+02  0.24219029960E+02 -0.26865746901E+00  0.95756815054E+02  0.91153342727E+02 0.  0.
         11    1    3    3    0    0 -0.37276191892E+02  0.98289622441E+01 -0.83947568188E+01  0.39453706075E+02  0.51100000000E-03 0. -1.
         22    1    1    0    0    0 -0.16546968001E+02 -0.24219029960E+02  0.26865746901E+00  0.29333184946E+02  0.00000000000E+00 0.  1.
</event>
<event>
 5    1  0.1047411E-009  0.9118800E+02  0.7815553E-02  0.1125453E+00
         25   -1    0    0    0    0  0.00000000000E+00  0.00000000000E+00  0.99999998245E-14  0.12509000000E+03  0.12509000000E+03 0.  0.
        -11    1    3    3    0    0 -0.83032174289E+01 -0.21605533249E+02 -0.54986670585E+02  0.59659671713E+02  0.51100000000E-03 0. -1.
         23    2    1    0    0    0 -0.77996873448E+01 -0.21354692470E+02 -0.19536048932E+02  0.95114756531E+02  0.90267943861E+02 0.  0.
         11    1    3    3    0    0  0.50353008409E+00  0.25084077902E+00  0.35450621653E+02  0.35455084818E+02  0.51100000000E-03 0.  1.
         22    1    1    0    0    0  0.77996873448E+01  0.21354692470E+02  0.19536048932E+02  0.29975243469E+02  0.00000000000E+00 0. -1.
</event>
<event>
 5    1  0.1047411E-009  0.9118800E+02  0.7815553E-02  0.1125453E+00
         25   -1    0    0    0    0  0.00000000000E+00  0.00000000000E+00  0.99999998245E-14  0.12509000000E+03  0.12509000000E+03 0.  0.
        -11    1    3    3    0    0 -0.37138468252E+02 -0.26431039358E+02  0.25239789591E+02  0.52104823621E+02  0.51100000000E-03 0. -1.
         23    2    1    0    0    0 -0.16083201034E+02 -0.21872216052E+02 -0.12220064957E+02  0.95317644062E+02  0.90548661456E+02 0.  0.
         11    1    3    3    0    0  0.21055267218E+02  0.45588233062E+01 -0.37459854548E+02  0.43212820442E+02  0.51100000000E-03 0.  1.
         22    1    1    0    0    0  0.16083201034E+02  0.21872216052E+02  0.12220064957E+02  0.29772355938E+02  0.00000000000E+00 0. -1.
</event>
<event>
 5    1  0.1047411E-009  0.9118800E+02  0.7815553E-02  0.1125453E+00
         25   -1    0    0    0    0  0.00000000000E+00  0.00000000000E+00  0.99999998245E-14  0.12509000000E+03  0.12509000000E+03 0.  0.
        -11    1    3    3    0    0  0.36807961371E+02  0.15762079461E+01 -0.27713933554E+02  0.46101763145E+02  0.51100000000E-03 0. -1.
         23    2    1    0    0    0 -0.79219206061E+01 -0.85127643738E+01 -0.30908404940E+02  0.92066470823E+02  0.85939988192E+02 0.  0.
         11    1    3    3    0    0 -0.44729881977E+02 -0.10088972320E+02 -0.31944713860E+01  0.45964707678E+02  0.51100000000E-03 0.  1.
         22    1    1    0    0    0  0.79219206061E+01  0.85127643738E+01  0.30908404940E+02  0.33023529177E+02  0.00000000000E+00 0. -1.
</event>
<event>
 5    1  0.1047411E-009  0.9118800E+02  0.7815553E-02  0.1125453E+00
         25   -1    0    0    0    0  0.00000000000E+00  0.00000000000E+00  0.99999998245E-14  0.12509000000E+03  0.12509000000E+03 0.  0.
        -11    1    3    3    0    0  0.21322120692E+02 -0.10094688193E+02  0.38593623689E+02  0.45232768545E+02  0.51100000000E-03 0.  1.
         23    2    1    0    0    0  0.83001671165E+01  0.27122487536E+02  0.67031964086E+01  0.95944589617E+02  0.91410663112E+02 0.  0.
         11    1    3    3    0    0 -0.13021953576E+02  0.37217175728E+02 -0.31890427280E+02  0.50711821073E+02  0.51100000000E-03 0. -1.
         22    1    1    0    0    0 -0.83001671165E+01 -0.27122487536E+02 -0.67031964086E+01  0.29145410383E+02  0.00000000000E+00 0.  1.
</event>
<event>
 5    1  0.1047411E-009  0.9118800E+02  0.7815553E-02  0.1125453E+00
         25   -1    0    0    0    0  0.00000000000E+00  0.00000000000E+00  0.99999998245E-14  0.12509000000E+03  0.12509000000E+03 0.  0.
        -11    1    3    3    0    0 -0.71648612718E+01 -0.31842099599E+02  0.87552153363E+01  0.33792134289E+02  0.51100000000E-03 0.  1.
         23    2    1    0    0    0 -0.12290572697E+02  0.21535857599E+02 -0.18697535387E+02  0.94034418066E+02  0.88758225601E+02 0.  0.
         11    1    3    3    0    0 -0.51257114247E+01  0.53377957198E+02 -0.27452750723E+02  0.60242283778E+02  0.51100000000E-03 0. -1.
         22    1    1    0    0    0  0.12290572697E+02 -0.21535857599E+02  0.18697535387E+02  0.31055581934E+02  0.00000000000E+00 0. -1.
</event>
<event>
 5    1  0.1047411E-009  0.9118800E+02  0.7815553E-02  0.1125453E+00
         25   -1    0    0    0    0  0.00000000000E+00  0.00000000000E+00  0.99999998245E-14  0.12509000000E+03  0.12509000000E+03 0.  0.
        -11    1    3    3    0    0 -0.44840992342E+02 -0.34580531257E+02 -0.45599429581E+01  0.56809513431E+02  0.51100000000E-03 0.  1.
         23    2    1    0    0    0 -0.22883617795E+02 -0.51128833022E+01 -0.17566238584E+02  0.95791974861E+02  0.91201579870E+02 0.  0.
         11    1    3    3    0    0  0.21957374547E+02  0.29467647955E+02 -0.13006295626E+02  0.38982461430E+02  0.51100000000E-03 0. -1.
         22    1    1    0    0    0  0.22883617795E+02  0.51128833022E+01  0.17566238584E+02  0.29298025139E+02  0.00000000000E+00 0.  1.
</event>
<event>
 5    1  0.1047411E-009  0.9118800E+02  0.7815553E-02  0.1125453E+00
         25   -1    0    0    0    0  0.00000000000E+00  0.00000000000E+00  0.99999998245E-14  0.12509000000E+03  0.12509000000E+03 0.  0.
        -11    1    3    3    0    0  0.21571625267E+02 -0.26976025854E+02 -0.45568401264E+02  0.57179718271E+02  0.51100000000E-03 0. -1.
         23    2    1    0    0    0  0.24298927302E+02 -0.13654907161E+01 -0.18704820221E+02  0.94395167659E+02  0.89265194477E+02 0.  0.
         11    1    3    3    0    0  0.27273020349E+01  0.25610535138E+02  0.26863581043E+02  0.37215449388E+02  0.51100000000E-03 0.  1.
         22    1    1    0    0    0 -0.24298927302E+02  0.13654907161E+01  0.18704820221E+02  0.30694832341E+02  0.00000000000E+00 0. -1.
</event>
<event>
 5    1  0.1047411E-009  0.9118800E+02  0.7815553E-02  0.1125453E+00
         25   -1    0    0    0    0  0.00000000000E+00  0.00000000000E+00  0.99999998245E-14  0.12509000000E+03  0.12509000000E+03 0.  0.
        -11    1    3    3    0    0  0.90756191978E+01  0.32236649515E+02 -0.18917909388E+02  0.38463693682E+02  0.51100000000E-03 0.  1.
         23    2    1    0    0    0 -0.14159277063E+02  0.30631970698E+01  0.25070692895E+02  0.96134725084E+02  0.91670482825E+02 0.  0.
         11    1    3    3    0    0 -0.23234896261E+02 -0.29173452445E+02  0.43988602283E+02  0.57671031402E+02  0.51100000000E-03 0. -1.
         22    1    1    0    0    0  0.14159277063E+02 -0.30631970698E+01 -0.25070692895E+02  0.28955274916E+02  0.00000000000E+00 0. -1.
</event>
<event>
 5    1  0.1047411E-009  0.9118800E+02  0.7815553E-02  0.1125453E+00
         25   -1    0    0    0    0  0.00000000000E+00  0.00000000000E+00  0.99999998245E-14  0.12509000000E+03  0.12509000000E+03 0.  0.
        -11    1    3    3    0    0  0.41385963350E+02  0.38479011921E+02 -0.15567677159E+02  0.58615568693E+02  0.51100000000E-03 0. -1.
         23    2    1    0    0    0  0.81529270361E+01  0.21401674771E+02 -0.17856160351E+02  0.96049608048E+02  0.91554261733E+02 0.  0.
         11    1    3    3    0    0 -0.33233036314E+02 -0.17077337150E+02 -0.22884831919E+01  0.37434039354E+02  0.51100000000E-03 0.  1.
         22    1    1    0    0    0 -0.81529270361E+01 -0.21401674771E+02  0.17856160351E+02  0.29040391952E+02  0.00000000000E+00 0. -1.
</event>
<event>
 5    1  0.1047411E-009  0.9118800E+02  0.7815553E-02  0.1125453E+00
         25   -1    0    0    0    0  0.00000000000E+00  0.00000000000E+00  0.99999998245E-14  0.12509000000E+03  0.12509000000E+03 0.  0.
        -11    1    3    3    0    0  0.31891303622E+02 -0.33864497591E+02  0.89024099894E+01  0.47361507025E+02  0.51100000000E-03 0. -1.
         23    2    1    0    0    0 -0.13161619240E+02 -0.18495463913E+02  0.18359930779E+02  0.95894153299E+02  0.91341617965E+02 0.  0.
         11    1    3    3    0    0 -0.45052922862E+02  0.15369033678E+02  0.94575207892E+01  0.48532646274E+02  0.51100000000E-03 0.  1.
         22    1    1    0    0    0  0.13161619240E+02  0.18495463913E+02 -0.18359930779E+02  0.29195846701E+02  0.00000000000E+00 0. -1.
</event>
<event>
 5    1  0.1047411E-009  0.9118800E+02  0.7815553E-02  0.1125453E+00
         25   -1    0    0    0    0  0.00000000000E+00  0.00000000000E+00  0.99999998245E-14  0.12509000000E+03  0.12509000000E+03 0.  0.
        -11    1    3    3    0    0  0.37389323030E+02  0.20420460108E+02  0.43833066476E+02  0.61125235252E+02  0.51100000000E-03 0. -1.
         23    2    1    0    0    0  0.12104106760E+02  0.17239878290E+02  0.21085100457E+02  0.95285566350E+02  0.90504336302E+02 0.  0.
         11    1    3    3    0    0 -0.25285216269E+02 -0.31805818180E+01 -0.22747966019E+02  0.34160331098E+02  0.51100000000E-03 0.  1.
         22    1    1    0    0    0 -0.12104106760E+02 -0.17239878290E+02 -0.21085100457E+02  0.29804433650E+02  0.00000000000E+00 0. -1.
</event>
<event>
 5    1  0.1047411E-009  0.9118800E+02  0.7815553E-02  0.1125453E+00
         25   -1    0    0    0    0  0.00000000000E+00  0.00000000000E+00  0.99999998245E-14  0.12509000000E+03  0.12509000000E+03 0.  0.
        -11    1    3    3    0    0 -0.11380156571E+02  0.16782024682E+02 -0.51191411995E+02  0.55060920609E+02  0.51100000000E-03 0.  1.
         23    2    1    0    0    0 -0.23682641613E+02  0.12443142887E+02 -0.13143411816E+02  0.95283145204E+02  0.90500989869E+02 0.  0.
         11    1    3    3    0    0 -0.12302485042E+02 -0.43388817956E+01  0.38048000180E+02  0.40222224595E+02  0.51100000000E-03 0. -1.
         22    1    1    0    0    0  0.23682641613E+02 -0.12443142887E+02  0.13143411816E+02  0.29806854796E+02  0.00000000000E+00 0.  1.
</event>
<event>
 5    1  0.1047411E-009  0.9118800E+02  0.7815553E-02  0.1125453E+00
         25   -1    0    0    0    0  0.00000000000E+00  0.00000000000E+00  0.99999998245E-14  0.12509000000E+03  0.12509000000E+03 0.  0.
        -11    1    3    3    0    0  0.50698822051E+02 -0.21589340361E+02  0.20126372441E+02  0.58664649001E+02  0.51100000000E-03 0. -1.
         23    2    1    0    0    0  0.19495226946E+02  0.21664597251E+01  0.18823935059E+02  0.97903644001E+02  0.94053312309E+02 0.  0.
         11    1    3    3    0    0 -0.31203595105E+02  0.23755800087E+02 -0.13024373820E+01  0.39238995000E+02  0.51100000000E-03 0.  1.
         22    1    1    0    0    0 -0.19495226946E+02 -0.21664597251E+01 -0.18823935059E+02  0.27186355999E+02  0.00000000000E+00 0. -1.
</event>
<event>
 5    1  0.1047411E-009  0.9118800E+02  0.7815553E-02  0.1125453E+00
         25   -1    0    0    0    0  0.00000000000E+00  0.00000000000E+00  0.99999998245E-14  0.12509000000E+03  0.12509000000E+03 0.  0.
        -11    1    3    3    0    0  0.28021407142E+02  0.21388772096E+02  0.40130388463E+02  0.53414669413E+02  0.51100000000E-03 0.  1.
         23    2    1    0    0    0 -0.88864419703E+01  0.18370141938E+02  0.23376799249E+02  0.94059277984E+02  0.88793254620E+02 0.  0.
         11    1    3    3    0    0 -0.36907849112E+02 -0.30186301585E+01 -0.16753589214E+02  0.40644608572E+02  0.51100000000E-03 0. -1.
         22    1    1    0    0    0  0.88864419703E+01 -0.18370141938E+02 -0.23376799249E+02  0.31030722016E+02  0.00000000000E+00 0.  1.
</event>
<event>
 5    1  0.1047411E-009  0.9118800E+02  0.7815553E-02  0.1125453E+00
         25   -1    0    0    0    0  0.00000000000E+00  0.00000000000E+00  0.99999998245E-14  0.12509000000E+03  0.12509000000E+03 0.  0.
        -11    1    3    3    0    0  0.17847329517E+01 -0.35300298717E+02  0.18858712124E+02  0.40061794574E+02  0.51100000000E-03 0.  1.
         23    2    1    0    0    0  0.10382200793E+02  0.20344973369E+02  0.17383150115E+02  0.96386656246E+02  0.92013616164E+02 0.  0.
         11    1    3    3    0    0  0.85974678417E+01  0.55645272087E+02 -0.14755620082E+01  0.56324861672E+02  0.51100000000E-03 0. -1.
         22    1    1    0    0    0 -0.10382200793E+02 -0.20344973369E+02 -0.17383150115E+02  0.28703343754E+02  0.00000000000E+00 0. -1.
</event>
<event>
 5    1  0.1047411E-009  0.9118800E+02  0.7815553E-02  0.1125453E+00
         25   -1    0    0    0    0  0.00000000000E+00  0.00000000000E+00  0.99999998245E-14  0.12509000000E+03  0.12509000000E+03 0.  0.
        -11    1    3    3    0    0  0.10095963307E+02 -0.57258287754E+02  0.17485194610E+02  0.60713853628E+02  0.51100000000E-03 0. -1.
         23    2    1    0    0    0  0.13094554642E+02 -0.21501505282E+02  0.12634142060E+02  0.96922578459E+02  0.92739325957E+02 0.  0.
         11    1    3    3    0    0  0.29985913358E+01  0.35756782472E+02 -0.48510525494E+01  0.36208724831E+02  0.51100000000E-03 0.  1.
         22    1    1    0    0    0 -0.13094554642E+02  0.21501505282E+02 -0.12634142060E+02  0.28167421541E+02  0.00000000000E+00 0. -1.
</event>
<event>
 5    1  0.1047411E-009  0.9118800E+02  0.7815553E-02  0.1125453E+00
         25   -1    0    0    0    0  0.00000000000E+00  0.00000000000E+00  0.99999998245E-14  0.12509000000E+03  0.12509000000E+03 0.  0.
        -11    1    3    3    0    0 -0.20264665333E+02 -0.26559632756E+02 -0.44785343215E+01  0.33706498232E+02  0.51100000000E-03 0. -1.
         23    2    1    0    0    0  0.18506446850E+02  0.17992423907E+02  0.14175489580E+02  0.95642412698E+02  0.90996212607E+02 0.  0.
         11    1    3    3    0    0  0.38771112183E+02  0.44552056662E+02  0.18654023901E+02  0.61935914466E+02  0.51100000000E-03 0.  1.
         22    1    1    0    0    0 -0.18506446850E+02 -0.17992423907E+02 -0.14175489580E+02  0.29447587302E+02  0.00000000000E+00 0.  1.
</event>
<event>
 5    1  0.1047411E-009  0.9118800E+02  0.7815553E-02  0.1125453E+00
         25   -1    0    0    0    0  0.00000000000E+00  0.00000000000E+00  0.99999998245E-14  0.12509000000E+03  0.12509000000E+03 0.  0.
        -11    1    3    3    0    0  0.28396174297E+01 -0.29997652739E+02  0.25008906148E+02  0.39158242861E+02  0.51100000000E-03 0. -1.
         23    2    1    0    0    0 -0.28431838375E+01  0.25881392399E+02  0.84689426245E+01  0.97710205333E+02  0.93795687909E+02 0.  0.
         11    1    3    3    0    0 -0.56828012672E+01  0.55879045137E+02 -0.16539963524E+02  0.58551962472E+02  0.51100000000E-03 0.  1.
         22    1    1    0    0    0  0.28431838375E+01 -0.25881392399E+02 -0.84689426245E+01  0.27379794667E+02  0.00000000000E+00 0.  1.
</event>
<event>
 5    1  0.1047411E-009  0.9118800E+02  0.7815553E-02  0.1125453E+00
         25   -1    0    0    0    0  0.00000000000E+00  0.00000000000E+00  0.99999998245E-14  0.12509000000E+03  0.12509000000E+03 0.  0.
        -11    1    3    3    0    0 -0.40639778413E+00 -0.49948815751E+01 -0.39756614933E+02  0.40071217005E+02  0.51100000000E-03 0. -1.
         23    2    1    0    0    0 -0.16032558929E+02  0.25680981403E+02  0.26579528565E+01  0.94698875226E+02  0.89689779262E+02 0.  0.
         11    1    3    3    0    0 -0.15626161145E+02  0.30675862978E+02  0.42414567790E+02  0.54627658220E+02  0.51100000000E-03 0.  1.
         22    1    1    0    0    0  0.16032558929E+02 -0.25680981403E+02 -0.26579528565E+01  0.30391124774E+02  0.00000000000E+00 0.  1.
</event>
<event>
 5    1  0.1047411E-009  0.9118800E+02  0.7815553E-02  0.1125453E+00
         25   -1    0    0    0    0  0.00000000000E+00  0.00000000000E+00  0.99999998245E-14  0.12509000000E+03  0.12509000000E+03 0.  0.
        -11    1    3    3    0    0 -0.16044110696E+02 -0.26543192126E+02 -0.32234760118E+02  0.44732921841E+02  0.51100000000E-03 0. -1.
         23    2    1    0    0    0 -0.21734811266E+02  0.11874159413E+00  0.14587265158E+02  0.98913590293E+02  0.95387074175E+02 0.  0.
         11    1    3    3    0    0 -0.56907005696E+01  0.26661933721E+02  0.46822025277E+02  0.54180668453E+02  0.51100000000E-03 0.  1.
         22    1    1    0    0    0  0.21734811266E+02 -0.11874159413E+00 -0.14587265158E+02  0.26176409707E+02  0.00000000000E+00 0.  1.
</event>
<event>
 5    1  0.1047411E-009  0.9118800E+02  0.7815553E-02  0.1125453E+00
         25   -1    0    0    0    0  0.00000000000E+00  0.00000000000E+00  0.99999998245E-14  0.12509000000E+03  0.12509000000E+03 0.  0.
        -11    1    3    3    0    0 -0.61527189590E+01  0.49803961299E+02  0.27249522366E+02  0.57103651207E+02  0.51100000000E-03 0.  1.
         23    2    1    0    0    0 -0.16812907446E+02  0.12274776524E+02  0.18839918363E+02  0.97013559352E+02  0.92861963035E+02 0.  0.
         11    1    3    3    0    0 -0.10660188487E+02 -0.37529184775E+02 -0.84096040031E+01  0.39909908146E+02  0.51100000000E-03 0. -1.
         22    1    1    0    0    0  0.16812907446E+02 -0.12274776524E+02 -0.18839918363E+02  0.28076440648E+02  0.00000000000E+00 0.  1.
</event>
<event>
 5    1  0.1047411E-009  0.9118800E+02  0.7815553E-02  0.1125453E+00
         25   -1    0    0    0    0  0.00000000000E+00  0.00000000000E+00  0.99999998245E-14  0.12509000000E+03  0.12509000000E+03 0.  0.
        -11    1    3    3    0    0  0.12822271743E+02  0.38291724002E+02 -0.16476739715E+02  0.43613641577E+02  0.51100000000E-03 0.  1.
         23    2    1    0    0    0  0.82846750138E+01 -0.17888594490E+02 -0.15544865058E+02  0.99984612479E+02  0.96781414797E+02 0.  0.
         11    1    3    3    0    0 -0.45375967287E+01 -0.56180318492E+02  0.93187465681E+00  0.56370970903E+02  0.51100000000E-03 0. -1.
         22    1    1    0    0    0 -0.82846750138E+01  0.17888594490E+02  0.15544865058E+02  0.25105387521E+02  0.00000000000E+00 0. -1.
</event>
<event>
 5    1  0.1047411E-009  0.9118800E+02  0.7815553E-02  0.1125453E+00
         25   -1    0    0    0    0  0.00000000000E+00  0.00000000000E+00  0.99999998245E-14  0.12509000000E+03  0.12509000000E+03 0.  0.
        -11    1    3    3    0    0 -0.26114767239E+01  0.31785195969E+02 -0.19895120336E+02  0.37589018435E+02  0.51100000000E-03 0. -1.
         23    2    1    0    0    0  0.25420089279E+02 -0.14811370151E+02  0.49755430866E+00  0.95665432289E+02  0.91027851507E+02 0.  0.
         11    1    3    3    0    0  0.28031566003E+02 -0.46596566119E+02  0.20392674645E+02  0.58076413854E+02  0.51100000000E-03 0.  1.
         22    1    1    0    0    0 -0.25420089279E+02  0.14811370151E+02 -0.49755430866E+00  0.29424567711E+02  0.00000000000E+00 0.  1.
</event>
<event>
 5    1  0.1047411E-009  0.9118800E+02  0.7815553E-02  0.1125453E+00
         25   -1    0    0    0    0  0.00000000000E+00  0.00000000000E+00  0.99999998245E-14  0.12509000000E+03  0.12509000000E+03 0.  0.
        -11    1    3    3    0    0 -0.51982943284E+02 -0.92180266537E+01  0.27845171768E+02  0.59687117529E+02  0.51100000000E-03 0.  1.
         23    2    1    0    0    0 -0.25017824770E+02  0.49541611250E+01  0.22279907027E+01  0.99489234167E+02  0.96139006152E+02 0.  0.
         11    1    3    3    0    0  0.26965118513E+02  0.14172187779E+02 -0.25617181065E+02  0.39802116638E+02  0.51100000000E-03 0. -1.
         22    1    1    0    0    0  0.25017824770E+02 -0.49541611250E+01 -0.22279907027E+01  0.25600765833E+02  0.00000000000E+00 0.  1.
</event>
<event>
 5    1  0.1047411E-009  0.9118800E+02  0.7815553E-02  0.1125453E+00
         25   -1    0    0    0    0  0.00000000000E+00  0.00000000000E+00  0.99999998245E-14  0.12509000000E+03  0.12509000000E+03 0.  0.
        -11    1    3    3    0    0  0.14248186152E+02  0.27830718923E+02 -0.16227732115E+02  0.35226396554E+02  0.51100000000E-03 0. -1.
         23    2    1    0    0    0  0.15516431617E+01 -0.41877566542E+01  0.31049941578E+02  0.93720527988E+02  0.88314741647E+02 0.  0.
         11    1    3    3    0    0 -0.12696542990E+02 -0.32018475577E+02  0.47277673693E+02  0.58494131434E+02  0.51100000000E-03 0.  1.
         22    1    1    0    0    0 -0.15516431617E+01  0.41877566542E+01 -0.31049941578E+02  0.31369472012E+02  0.00000000000E+00 0.  1.
</event>
<event>
 5    1  0.1047411E-009  0.9118800E+02  0.7815553E-02  0.1125453E+00
         25   -1    0    0    0    0  0.00000000000E+00  0.00000000000E+00  0.99999998245E-14  0.12509000000E+03  0.12509000000E+03 0.  0.
        -11    1    3    3    0    0 -0.36225825791E+02  0.39950285999E+02 -0.11693464144E+02  0.55182179275E+02  0.51100000000E-03 0.  1.
         23    2    1    0    0    0 -0.27186252832E+01  0.29192135325E+02  0.68806171864E+01  0.94974977484E+02  0.90074034921E+02 0.  0.
         11    1    3    3    0    0  0.33507200508E+02 -0.10758150674E+02  0.18574081331E+02  0.39792798209E+02  0.51100000000E-03 0. -1.
         22    1    1    0    0    0  0.27186252832E+01 -0.29192135325E+02 -0.68806171864E+01  0.30115022516E+02  0.00000000000E+00 0.  1.
</event>
<event>
 5    1  0.1047411E-009  0.9118800E+02  0.7815553E-02  0.1125453E+00
         25   -1    0    0    0    0  0.00000000000E+00  0.00000000000E+00  0.99999998245E-14  0.12509000000E+03  0.12509000000E+03 0.  0.
        -11    1    3    3    0    0 -0.18101264703E+02 -0.20173191333E+01 -0.42713257809E+02  0.46434338083E+02  0.51100000000E-03 0.  1.
         23    2    1    0    0    0 -0.25877062437E+02 -0.14117877366E+02  0.40277107903E+01  0.95338373559E+02  0.90577294047E+02 0.  0.
         11    1    3    3    0    0 -0.77757977340E+01 -0.12100558233E+02  0.46740968599E+02  0.48904035476E+02  0.51100000000E-03 0. -1.
         22    1    1    0    0    0  0.25877062437E+02  0.14117877366E+02 -0.40277107903E+01  0.29751626441E+02  0.00000000000E+00 0. -1.
</event>
<event>
 5    1  0.1047411E-009  0.9118800E+02  0.7815553E-02  0.1125453E+00
         25   -1    0    0    0    0  0.00000000000E+00  0.00000000000E+00  0.99999998245E-14  0.12509000000E+03  0.12509000000E+03 0.  0.
        -11    1    3    3    0    0  0.17172835910E+02  0.17890658762E+02 -0.52593767151E+02  0.58147109194E+02  0.51100000000E-03 0. -1.
         23    2    1    0    0    0  0.21104440641E+02 -0.73969746935E+00 -0.19400527994E+02  0.96413789414E+02  0.92050495575E+02 0.  0.
         11    1    3    3    0    0  0.39316047308E+01 -0.18630356232E+02  0.33193239158E+02  0.38266680221E+02  0.51100000000E-03 0.  1.
         22    1    1    0    0    0 -0.21104440641E+02  0.73969746935E+00  0.19400527994E+02  0.28676210586E+02  0.00000000000E+00 0. -1.
</event>
<event>
 5    1  0.1047411E-009  0.9118800E+02  0.7815553E-02  0.1125453E+00
         25   -1    0    0    0    0  0.00000000000E+00  0.00000000000E+00  0.99999998245E-14  0.12509000000E+03  0.12509000000E+03 0.  0.
        -11    1    3    3    0    0 -0.48346178297E+02  0.24695657824E+02  0.26244971591E+02  0.60299477654E+02  0.51100000000E-03 0. -1.
         23    2    1    0    0    0 -0.23931586437E+02  0.17537572068E+02  0.21467546891E+01  0.95342801491E+02  0.90583408950E+02 0.  0.
         11    1    3    3    0    0  0.24414591861E+02 -0.71580857557E+01 -0.24098216902E+02  0.35043323837E+02  0.51100000000E-03 0.  1.
         22    1    1    0    0    0  0.23931586437E+02 -0.17537572068E+02 -0.21467546891E+01  0.29747198509E+02  0.00000000000E+00 0. -1.
</event>
<event>
 5    1  0.1047411E-009  0.9118800E+02  0.7815553E-02  0.1125453E+00
         25   -1    0    0    0    0  0.00000000000E+00  0.00000000000E+00  0.99999998245E-14  0.12509000000E+03  0.12509000000E+03 0.  0.
        -11    1    3    3    0    0 -0.38948320985E+02  0.41902415122E+02 -0.19450990883E+02  0.60424540935E+02  0.51100000000E-03 0.  1.
         23    2    1    0    0    0 -0.14177988631E+02  0.26908503260E+02 -0.12007068731E+01  0.94651133295E+02  0.89623169034E+02 0.  0.
         11    1    3    3    0    0  0.24770332354E+02 -0.14993911862E+02  0.18250284010E+02  0.34226592360E+02  0.51100000000E-03 0. -1.
         22    1    1    0    0    0  0.14177988631E+02 -0.26908503260E+02  0.12007068731E+01  0.30438866705E+02  0.00000000000E+00 0.  1.
</event>
<event>
 5    1  0.1047411E-009  0.9118800E+02  0.7815553E-02  0.1125453E+00
         25   -1    0    0    0    0  0.00000000000E+00  0.00000000000E+00  0.99999998245E-14  0.12509000000E+03  0.12509000000E+03 0.  0.
        -11    1    3    3    0    0 -0.44335779610E+02  0.32862149712E+02  0.25920270242E+02  0.60970834396E+02  0.51100000000E-03 0.  1.
         23    2    1    0    0    0 -0.27601712552E+02  0.10271435963E+02  0.71218609993E+01  0.94790200716E+02  0.89817060268E+02 0.  0.
         11    1    3    3    0    0  0.16734067058E+02 -0.22590713749E+02 -0.18798409242E+02  0.33819366320E+02  0.51100000000E-03 0. -1.
         22    1    1    0    0    0  0.27601712552E+02 -0.10271435963E+02 -0.71218609993E+01  0.30299799284E+02  0.00000000000E+00 0.  1.
</event>
<event>
 5    1  0.1047411E-009  0.9118800E+02  0.7815553E-02  0.1125453E+00
         25   -1    0    0    0    0  0.00000000000E+00  0.00000000000E+00  0.99999998245E-14  0.12509000000E+03  0.12509000000E+03 0.  0.
        -11    1    3    3    0    0 -0.94589530856E+01 -0.30131179337E+02  0.46004473686E+02  0.55801177059E+02  0.51100000000E-03 0.  1.
         23    2    1    0    0    0  0.84205698832E+01 -0.26164315010E+02  0.10659052179E+02  0.95609620585E+02  0.90951123016E+02 0.  0.
         11    1    3    3    0    0  0.17879522969E+02  0.39668643271E+01 -0.35345421507E+02  0.39808443526E+02  0.51100000000E-03 0. -1.
         22    1    1    0    0    0 -0.84205698832E+01  0.26164315010E+02 -0.10659052179E+02  0.29480379415E+02  0.00000000000E+00 0.  1.
</event>
<event>
 5    1  0.1047411E-009  0.9118800E+02  0.7815553E-02  0.1125453E+00
         25   -1    0    0    0    0  0.00000000000E+00  0.00000000000E+00  0.99999998245E-14  0.12509000000E+03  0.12509000000E+03 0.  0.
        -11    1    3    3    0    0 -0.36289388578E+02 -0.96090609382E+01  0.61558792348E+01  0.38041406715E+02  0.51100000000E-03 0. -1.
         23    2    1    0    0    0  0.19268950477E+02 -0.22631609116E+02  0.80797787511E+00  0.95355592121E+02  0.90601070285E+02 0.  0.
         11    1    3    3    0    0  0.55558339054E+02 -0.13022548178E+02 -0.53479013597E+01  0.57314185406E+02  0.51100000000E-03 0.  1.
         22    1    1    0    0    0 -0.19268950477E+02  0.22631609116E+02 -0.80797787511E+00  0.29734407879E+02  0.00000000000E+00 0.  1.
</event>
<event>
 5    1  0.1047411E-009  0.9118800E+02  0.7815553E-02  0.1125453E+00
         25   -1    0    0    0    0  0.00000000000E+00  0.00000000000E+00  0.99999998245E-14  0.12509000000E+03  0.12509000000E+03 0.  0.
        -11    1    3    3    0    0  0.27035890272E+02 -0.29415492109E+02  0.39663895844E+02  0.56297736834E+02  0.51100000000E-03 0. -1.
         23    2    1    0    0    0  0.46541007685E+00 -0.10879366253E+01  0.28300730366E+02  0.96764542335E+02  0.92525915837E+02 0.  0.
         11    1    3    3    0    0 -0.26570480196E+02  0.28327555484E+02 -0.11363165478E+02  0.40466805501E+02  0.51100000000E-03 0.  1.
         22    1    1    0    0    0 -0.46541007685E+00  0.10879366253E+01 -0.28300730366E+02  0.28325457665E+02  0.00000000000E+00 0. -1.
</event>
<event>
 5    1  0.1047411E-009  0.9118800E+02  0.7815553E-02  0.1125453E+00
         25   -1    0    0    0    0  0.00000000000E+00  0.00000000000E+00  0.99999998245E-14  0.12509000000E+03  0.12509000000E+03 0.  0.
        -11    1    3    3    0    0 -0.37190735350E+02  0.41280733502E+01  0.19632653384E+02  0.42256749338E+02  0.51100000000E-03 0.  1.
         23    2    1    0    0    0  0.12379680653E+02  0.22696706400E+02  0.14522640546E+02  0.95436938389E+02  0.90713312949E+02 0.  0.
         11    1    3    3    0    0  0.49570416003E+02  0.18568633049E+02 -0.51100128379E+01  0.53180189051E+02  0.51100000000E-03 0. -1.
         22    1    1    0    0    0 -0.12379680653E+02 -0.22696706400E+02 -0.14522640546E+02  0.29653061611E+02  0.00000000000E+00 0. -1.
</event>
<event>
 5    1  0.1047411E-009  0.9118800E+02  0.7815553E-02  0.1125453E+00
         25   -1    0    0    0    0  0.00000000000E+00  0.00000000000E+00  0.99999998245E-14  0.12509000000E+03  0.12509000000E+03 0.  0.
        -11    1    3    3    0    0  0.17366943937E+02 -0.57726399841E+01 -0.54375365003E+02  0.57372593052E+02  0.51100000000E-03 0.  1.
         23    2    1    0    0    0 -0.11805084278E+01  0.13240373896E+02 -0.23410779625E+02  0.98168527089E+02  0.94404946942E+02 0.  0.
         11    1    3    3    0    0 -0.18547452365E+02  0.19013013880E+02  0.30964585378E+02  0.40795934036E+02  0.51100000000E-03 0. -1.
         22    1    1    0    0    0  0.11805084278E+01 -0.13240373896E+02  0.23410779625E+02  0.26921472911E+02  0.00000000000E+00 0.  1.
</event>
<event>
 5    1  0.1047411E-009  0.9118800E+02  0.7815553E-02  0.1125453E+00
         25   -1    0    0    0    0  0.00000000000E+00  0.00000000000E+00  0.99999998245E-14  0.12509000000E+03  0.12509000000E+03 0.  0.
        -11    1    3    3    0    0 -0.44183047582E+02 -0.18413746435E+01 -0.14583361079E+02  0.46564007289E+02  0.51100000000E-03 0. -1.
         23    2    1    0    0    0 -0.13342000272E+02 -0.21136975194E+02  0.17098748563E+02  0.94805550293E+02  0.89838435385E+02 0.  0.
         11    1    3    3    0    0  0.30841047310E+02 -0.19295600551E+02  0.31682109641E+02  0.48241543004E+02  0.51100000000E-03 0.  1.
         22    1    1    0    0    0  0.13342000272E+02  0.21136975194E+02 -0.17098748563E+02  0.30284449707E+02  0.00000000000E+00 0. -1.
</event>
<event>
 5    1  0.1047411E-009  0.9118800E+02  0.7815553E-02  0.1125453E+00
         25   -1    0    0    0    0  0.00000000000E+00  0.00000000000E+00  0.99999998245E-14  0.12509000000E+03  0.12509000000E+03 0.  0.
        -11    1    3    3    0    0  0.38888597436E+02  0.28242468261E+02  0.17569903795E+02  0.51172859443E+02  0.51100000000E-03 0.  1.
         23    2    1    0    0    0  0.26702205578E+02 -0.12283076081E+02  0.53999667574E+01  0.95206202020E+02  0.90394576836E+02 0.  0.
         11    1    3    3    0    0 -0.12186391858E+02 -0.40525544342E+02 -0.12169937038E+02  0.44033342577E+02  0.51100000000E-03 0. -1.
         22    1    1    0    0    0 -0.26702205578E+02  0.12283076081E+02 -0.53999667574E+01  0.29883797980E+02  0.00000000000E+00 0. -1.
</event>
<event>
 5    1  0.1047411E-009  0.9118800E+02  0.7815553E-02  0.1125453E+00
         25   -1    0    0    0    0  0.00000000000E+00  0.00000000000E+00  0.99999998245E-14  0.12509000000E+03  0.12509000000E+03 0.  0.
        -11    1    3    3    0    0  0.23790195468E+02  0.16147677063E+02  0.19250804030E+02  0.34602230145E+02  0.51100000000E-03 0.  1.
         23    2    1    0    0    0 -0.23502555082E+02  0.17586981053E+01 -0.17108209450E+02  0.95966917316E+02  0.91441212121E+02 0.  0.
         11    1    3    3    0    0 -0.47292750550E+02 -0.14388978957E+02 -0.36359013481E+02  0.61364687171E+02  0.51100000000E-03 0. -1.
         22    1    1    0    0    0  0.23502555082E+02 -0.17586981053E+01  0.17108209450E+02  0.29123082684E+02  0.00000000000E+00 0. -1.
</event>
<event>
 5    1  0.1047411E-009  0.9118800E+02  0.7815553E-02  0.1125453E+00
         25   -1    0    0    0    0  0.00000000000E+00  0.00000000000E+00  0.99999998245E-14  0.12509000000E+03  0.12509000000E+03 0.  0.
        -11    1    3    3    0    0 -0.11606151255E+02 -0.51720602419E+02 -0.28701109650E+01  0.53084470410E+02  0.51100000000E-03 0. -1.
         23    2    1    0    0    0  0.42759122731E+01 -0.19194679384E+02 -0.23261883296E+02  0.94629626449E+02  0.89593146194E+02 0.  0.
         11    1    3    3    0    0  0.15882063528E+02  0.32525923035E+02 -0.20391772331E+02  0.41545156038E+02  0.51100000000E-03 0.  1.
         22    1    1    0    0    0 -0.42759122731E+01  0.19194679384E+02  0.23261883296E+02  0.30460373551E+02  0.00000000000E+00 0. -1.
</event>
<event>
 5    1  0.1047411E-009  0.9118800E+02  0.7815553E-02  0.1125453E+00
         25   -1    0    0    0    0  0.00000000000E+00  0.00000000000E+00  0.99999998245E-14  0.12509000000E+03  0.12509000000E+03 0.  0.
        -11    1    3    3    0    0 -0.37530881048E+02 -0.55064302694E+01 -0.17420424866E+02  0.41741574112E+02  0.51100000000E-03 0. -1.
         23    2    1    0    0    0 -0.10751431143E+02  0.73691560548E+01  0.26956319275E+02  0.95147707479E+02  0.90313594530E+02 0.  0.
         11    1    3    3    0    0  0.26779449905E+02  0.12875586324E+02  0.44376744141E+02  0.53406133367E+02  0.51100000000E-03 0.  1.
         22    1    1    0    0    0  0.10751431143E+02 -0.73691560548E+01 -0.26956319275E+02  0.29942292521E+02  0.00000000000E+00 0.  1.
</event>
<event>
 5    1  0.1047411E-009  0.9118800E+02  0.7815553E-02  0.1125453E+00
         25   -1    0    0    0    0  0.00000000000E+00  0.00000000000E+00  0.99999998245E-14  0.12509000000E+03  0.12509000000E+03 0.  0.
        -11    1    3    3    0    0  0.23652756952E+02  0.31709767652E+02 -0.17042229200E+02  0.43074352605E+02  0.51100000000E-03 0. -1.
         23    2    1    0    0    0 -0.22821458628E+02  0.65081075644E+01 -0.16924251046E+02  0.95942020457E+02  0.91407147302E+02 0.  0.
         11    1    3    3    0    0 -0.46474215580E+02 -0.25201660088E+02  0.11797815371E+00  0.52867667852E+02  0.51100000000E-03 0.  1.
         22    1    1    0    0    0  0.22821458628E+02 -0.65081075644E+01  0.16924251046E+02  0.29147979543E+02  0.00000000000E+00 0.  1.
</event>
<event>
 5    1  0.1047411E-009  0.9118800E+02  0.7815553E-02  0.1125453E+00
         25   -1    0    0    0    0  0.00000000000E+00  0.00000000000E+00  0.99999998245E-14  0.12509000000E+03  0.12509000000E+03 0.  0.
        -11    1    3    3    0    0 -0.19364019861E+02 -0.32827673990E+02  0.31690750638E+02  0.49567379606E+02  0.51100000000E-03 0.  1.
         23    2    1    0    0    0 -0.10314316413E+02 -0.24156196441E+02 -0.12857927233E+02  0.95845628879E+02  0.91275140826E+02 0.  0.
         11    1    3    3    0    0  0.90497034478E+01  0.86714775493E+01 -0.44548677871E+02  0.46278249272E+02  0.51100000000E-03 0. -1.
         22    1    1    0    0    0  0.10314316413E+02  0.24156196441E+02  0.12857927233E+02  0.29244371121E+02  0.00000000000E+00 0.  1.
</event>
<event>
 5    1  0.1047411E-009  0.9118800E+02  0.7815553E-02  0.1125453E+00
         25   -1    0    0    0    0  0.00000000000E+00  0.00000000000E+00  0.99999998245E-14  0.12509000000E+03  0.12509000000E+03 0.  0.
        -11    1    3    3    0    0 -0.46236481225E+02  0.38011403074E+02  0.57551037010E+01  0.60131524000E+02  0.51100000000E-03 0.  1.
         23    2    1    0    0    0 -0.25860220652E+02  0.56682540578E+01  0.20848131149E+01  0.98533897839E+02  0.94887841484E+02 0.  0.
         11    1    3    3    0    0  0.20376260573E+02 -0.32343149016E+02 -0.36702905861E+01  0.38402373839E+02  0.51100000000E-03 0. -1.
         22    1    1    0    0    0  0.25860220652E+02 -0.56682540578E+01 -0.20848131149E+01  0.26556102161E+02  0.00000000000E+00 0.  1.
</event>
<event>
 5    1  0.1047411E-009  0.9118800E+02  0.7815553E-02  0.1125453E+00
         25   -1    0    0    0    0  0.00000000000E+00  0.00000000000E+00  0.99999998245E-14  0.12509000000E+03  0.12509000000E+03 0.  0.
        -11    1    3    3    0    0 -0.26699682421E+02  0.13569929599E+02  0.41047554900E+02  0.50812575158E+02  0.51100000000E-03 0. -1.
         23    2    1    0    0    0 -0.60370199604E+01  0.30288085034E+02  0.80672904162E+01  0.93169867173E+02  0.87531304511E+02 0.  0.
         11    1    3    3    0    0  0.20662662460E+02  0.16718155436E+02 -0.32980264484E+02  0.42357292015E+02  0.51100000000E-03 0.  1.
         22    1    1    0    0    0  0.60370199604E+01 -0.30288085034E+02 -0.80672904162E+01  0.31920132827E+02  0.00000000000E+00 0.  1.
</event>
<event>
 5    1  0.1047411E-009  0.9118800E+02  0.7815553E-02  0.1125453E+00
         25   -1    0    0    0    0  0.00000000000E+00  0.00000000000E+00  0.99999998245E-14  0.12509000000E+03  0.12509000000E+03 0.  0.
        -11    1    3    3    0    0  0.43179974947E+02  0.57374451679E+01  0.41974203196E+02  0.60491836207E+02  0.51100000000E-03 0.  1.
         23    2    1    0    0    0  0.27325812188E+02  0.71797282325E+00  0.11046212450E+02  0.95607220175E+02  0.90947821543E+02 0.  0.
         11    1    3    3    0    0 -0.15854162759E+02 -0.50194723447E+01 -0.30927990746E+02  0.35115383968E+02  0.51100000000E-03 0. -1.
         22    1    1    0    0    0 -0.27325812188E+02 -0.71797282325E+00 -0.11046212450E+02  0.29482779825E+02  0.00000000000E+00 0.  1.
</event>
<event>
 5    1  0.1047411E-009  0.9118800E+02  0.7815553E-02  0.1125453E+00
         25   -1    0    0    0    0  0.00000000000E+00  0.00000000000E+00  0.99999998245E-14  0.12509000000E+03  0.12509000000E+03 0.  0.
        -11    1    3    3    0    0 -0.84134495830E+01 -0.32576734806E+02 -0.74850833504E+01  0.34468191968E+02  0.51100000000E-03 0. -1.
         23    2    1    0    0    0  0.42748996245E+01  0.26801562973E+02  0.73479439203E+01  0.96972553024E+02  0.92806708893E+02 0.  0.
         11    1    3    3    0    0  0.12688349207E+02  0.59378297779E+02  0.14833027271E+02  0.62504361056E+02  0.51100000000E-03 0.  1.
         22    1    1    0    0    0 -0.42748996245E+01 -0.26801562973E+02 -0.73479439203E+01  0.28117446976E+02  0.00000000000E+00 0.  1.
</event>
<event>
 5    1  0.1047411E-009  0.9118800E+02  0.7815553E-02  0.1125453E+00
         25   -1    0    0    0    0  0.00000000000E+00  0.00000000000E+00  0.99999998245E-14  0.12509000000E+03  0.12509000000E+03 0.  0.
        -11    1    3    3    0    0 -0.20481350748E+02 -0.12754999712E+00  0.29535154749E+02  0.35941999997E+02  0.51100000000E-03 0. -1.
         23    2    1    0    0    0 -0.44482253924E+01  0.11734407504E+02 -0.26688546629E+02  0.95598279980E+02  0.90935524331E+02 0.  0.
         11    1    3    3    0    0  0.16033125356E+02  0.11861957501E+02 -0.56223701378E+02  0.59656279982E+02  0.51100000000E-03 0.  1.
         22    1    1    0    0    0  0.44482253924E+01 -0.11734407504E+02  0.26688546629E+02  0.29491720020E+02  0.00000000000E+00 0.  1.
</event>
<event>
 5    1  0.1047411E-009  0.9118800E+02  0.7815553E-02  0.1125453E+00
         25   -1    0    0    0    0  0.00000000000E+00  0.00000000000E+00  0.99999998245E-14  0.12509000000E+03  0.12509000000E+03 0.  0.
        -11    1    3    3    0    0  0.35263295138E+02 -0.70084020918E+01  0.29761106154E+02  0.46672702125E+02  0.51100000000E-03 0. -1.
         23    2    1    0    0    0 -0.92801371919E+01 -0.22009005882E+02  0.18160701324E+02  0.95084527852E+02  0.90226044345E+02 0.  0.
         11    1    3    3    0    0 -0.44543432330E+02 -0.15000603790E+02 -0.11600404829E+02  0.48411825728E+02  0.51100000000E-03 0.  1.
         22    1    1    0    0    0  0.92801371919E+01  0.22009005882E+02 -0.18160701324E+02  0.30005472148E+02  0.00000000000E+00 0. -1.
</event>
<event>
 5    1  0.1047411E-009  0.9118800E+02  0.7815553E-02  0.1125453E+00
         25   -1    0    0    0    0  0.00000000000E+00  0.00000000000E+00  0.99999998245E-14  0.12509000000E+03  0.12509000000E+03 0.  0.
        -11    1    3    3    0    0  0.13331316016E+02 -0.48467017724E+02 -0.12239292054E+01  0.50281943048E+02  0.51100000000E-03 0.  1.
         23    2    1    0    0    0  0.22880696484E+02 -0.78037620908E+01 -0.17642064115E+02  0.95162297104E+02  0.90333799818E+02 0.  0.
         11    1    3    3    0    0  0.95493804683E+01  0.40663255633E+02 -0.16418134910E+02  0.44880354056E+02  0.51100000000E-03 0. -1.
         22    1    1    0    0    0 -0.22880696484E+02  0.78037620908E+01  0.17642064115E+02  0.29927702896E+02  0.00000000000E+00 0. -1.
</event>
<event>
 5    1  0.1047411E-009  0.9118800E+02  0.7815553E-02  0.1125453E+00
         25   -1    0    0    0    0  0.00000000000E+00  0.00000000000E+00  0.99999998245E-14  0.12509000000E+03  0.12509000000E+03 0.  0.
        -11    1    3    3    0    0 -0.84228262415E+01  0.12055573752E+02  0.43105140562E+02  0.45544857048E+02  0.51100000000E-03 0. -1.
         23    2    1    0    0    0  0.20001103628E+02 -0.16492418101E+02  0.11587540427E+02  0.96694312047E+02  0.92430919545E+02 0.  0.
         11    1    3    3    0    0  0.28423929870E+02 -0.28547991853E+02 -0.31517600135E+02  0.51149454999E+02  0.51100000000E-03 0.  1.
         22    1    1    0    0    0 -0.20001103628E+02  0.16492418101E+02 -0.11587540427E+02  0.28395687953E+02  0.00000000000E+00 0.  1.
</event>
<event>
 5    1  0.1047411E-009  0.9118800E+02  0.7815553E-02  0.1125453E+00
         25   -1    0    0    0    0  0.00000000000E+00  0.00000000000E+00  0.99999998245E-14  0.12509000000E+03  0.12509000000E+03 0.  0.
        -11    1    3    3    0    0 -0.61275653323E+02 -0.37124684535E+01 -0.10695504795E+02  0.62312775057E+02  0.51100000000E-03 0. -1.
         23    2    1    0    0    0 -0.28477883146E+02 -0.54536841674E+01 -0.42173709770E+01  0.95789509945E+02  0.91198198985E+02 0.  0.
         11    1    3    3    0    0  0.32797770177E+02 -0.17412157139E+01  0.64781338177E+01  0.33476734888E+02  0.51100000000E-03 0.  1.
         22    1    1    0    0    0  0.28477883146E+02  0.54536841674E+01  0.42173709770E+01  0.29300490055E+02  0.00000000000E+00 0. -1.
</event>
<event>
 5    1  0.1047411E-009  0.9118800E+02  0.7815553E-02  0.1125453E+00
         25   -1    0    0    0    0  0.00000000000E+00  0.00000000000E+00  0.99999998245E-14  0.12509000000E+03  0.12509000000E+03 0.  0.
        -11    1    3    3    0    0  0.14587516233E+02 -0.14963531721E+02  0.50272423765E+02  0.54442809469E+02  0.51100000000E-03 0.  1.
         23    2    1    0    0    0 -0.49327410337E+01  0.11052243300E+02  0.29930684998E+02  0.92804865332E+02  0.87008120936E+02 0.  0.
         11    1    3    3    0    0 -0.19520257267E+02  0.26015775022E+02 -0.20341738767E+02  0.38362055863E+02  0.51100000000E-03 0. -1.
         22    1    1    0    0    0  0.49327410337E+01 -0.11052243300E+02 -0.29930684998E+02  0.32285134668E+02  0.00000000000E+00 0.  1.
</event>
<event>
 5    1  0.1047411E-009  0.9118800E+02  0.7815553E-02  0.1125453E+00
         25   -1    0    0    0    0  0.00000000000E+00  0.00000000000E+00  0.99999998245E-14  0.12509000000E+03  0.12509000000E+03 0.  0.
        -11    1    3    3    0    0 -0.41953136023E+02  0.27256337022E+02  0.35923564290E+02  0.61591200683E+02  0.51100000000E-03 0.  1.
         23    2    1    0    0    0 -0.13591972093E+02  0.16911561096E+02  0.19284176250E+02  0.96062046960E+02  0.91571255361E+02 0.  0.
         11    1    3    3    0    0  0.28361163930E+02 -0.10344775927E+02 -0.16639388040E+02  0.34470846277E+02  0.51100000000E-03 0. -1.
         22    1    1    0    0    0  0.13591972093E+02 -0.16911561096E+02 -0.19284176250E+02  0.29027953040E+02  0.00000000000E+00 0.  1.
</event>
<event>
 5    1  0.1047411E-009  0.9118800E+02  0.7815553E-02  0.1125453E+00
         25   -1    0    0    0    0  0.00000000000E+00  0.00000000000E+00  0.99999998245E-14  0.12509000000E+03  0.12509000000E+03 0.  0.
        -11    1    3    3    0    0  0.14417974670E+02  0.11514227363E+02 -0.27669155258E+02  0.33257143267E+02  0.51100000000E-03 0.  1.
         23    2    1    0    0    0 -0.10133671372E+02 -0.63314114244E+01  0.26875426315E+02  0.95677985351E+02  0.91045100225E+02 0.  0.
         11    1    3    3    0    0 -0.24551646042E+02 -0.17845638787E+02  0.54544581574E+02  0.62420842083E+02  0.51100000000E-03 0. -1.
         22    1    1    0    0    0  0.10133671372E+02  0.63314114244E+01 -0.26875426315E+02  0.29412014649E+02  0.00000000000E+00 0. -1.
</event>
<event>
 5    1  0.1047411E-009  0.9118800E+02  0.7815553E-02  0.1125453E+00
         25   -1    0    0    0    0  0.00000000000E+00  0.00000000000E+00  0.99999998245E-14  0.12509000000E+03  0.12509000000E+03 0.  0.
        -11    1    3    3    0    0  0.26859484455E+02  0.18144836683E+02 -0.26593247927E+02  0.41926934529E+02  0.51100000000E-03 0.  1.
         23    2    1    0    0    0 -0.19729900778E+01 -0.25930218780E+02 -0.10992788715E+02  0.96856857427E+02  0.92650636755E+02 0.  0.
         11    1    3    3    0    0 -0.28832474532E+02 -0.44075055463E+02  0.15600459212E+02  0.54929922898E+02  0.51100000000E-03 0. -1.
         22    1    1    0    0    0  0.19729900778E+01  0.25930218780E+02  0.10992788715E+02  0.28233142573E+02  0.00000000000E+00 0.  1.
</event>
<event>
 5    1  0.1047411E-009  0.9118800E+02  0.7815553E-02  0.1125453E+00
         25   -1    0    0    0    0  0.00000000000E+00  0.00000000000E+00  0.99999998245E-14  0.12509000000E+03  0.12509000000E+03 0.  0.
        -11    1    3    3    0    0  0.78750642097E+01 -0.52788053156E+02  0.10798380044E+02  0.54453651890E+02  0.51100000000E-03 0.  1.
         23    2    1    0    0    0  0.16463456867E+02 -0.25921025567E+02 -0.13370100738E+02  0.91598141703E+02  0.85255586276E+02 0.  0.
         11    1    3    3    0    0  0.85883926572E+01  0.26867027589E+02 -0.24168480782E+02  0.37144489813E+02  0.51100000000E-03 0. -1.
         22    1    1    0    0    0 -0.16463456867E+02  0.25921025567E+02  0.13370100738E+02  0.33491858297E+02  0.00000000000E+00 0.  1.
</event>
<event>
 5    1  0.1047411E-009  0.9118800E+02  0.7815553E-02  0.1125453E+00
         25   -1    0    0    0    0  0.00000000000E+00  0.00000000000E+00  0.99999998245E-14  0.12509000000E+03  0.12509000000E+03 0.  0.
        -11    1    3    3    0    0 -0.91507719772E+01 -0.77762337184E+01 -0.40350564611E+02  0.42099578422E+02  0.51100000000E-03 0.  1.
         23    2    1    0    0    0 -0.18800384083E+02 -0.26585062618E+02  0.50114794685E+01  0.92145578279E+02  0.86055056061E+02 0.  0.
         11    1    3    3    0    0 -0.96496121062E+01 -0.18808828900E+02  0.45362044079E+02  0.50045999857E+02  0.51100000000E-03 0. -1.
         22    1    1    0    0    0  0.18800384083E+02  0.26585062618E+02 -0.50114794685E+01  0.32944421721E+02  0.00000000000E+00 0. -1.
</event>
<event>
 5    1  0.1047411E-009  0.9118800E+02  0.7815553E-02  0.1125453E+00
         25   -1    0    0    0    0  0.00000000000E+00  0.00000000000E+00  0.99999998245E-14  0.12509000000E+03  0.12509000000E+03 0.  0.
        -11    1    3    3    0    0 -0.25826992047E+02 -0.29576369165E+02  0.28323647677E+02  0.48415123145E+02  0.51100000000E-03 0. -1.
         23    2    1    0    0    0 -0.17474720305E+01  0.10173977823E+02  0.28380889924E+02  0.94890026554E+02  0.89955982254E+02 0.  0.
         11    1    3    3    0    0  0.24079520016E+02  0.39750346988E+02  0.57242247658E-01  0.46474903409E+02  0.51100000000E-03 0.  1.
         22    1    1    0    0    0  0.17474720305E+01 -0.10173977823E+02 -0.28380889924E+02  0.30199973446E+02  0.00000000000E+00 0.  1.
</event>
<event>
 5    1  0.1047411E-009  0.9118800E+02  0.7815553E-02  0.1125453E+00
         25   -1    0    0    0    0  0.00000000000E+00  0.00000000000E+00  0.99999998245E-14  0.12509000000E+03  0.12509000000E+03 0.  0.
        -11    1    3    3    0    0 -0.31697609706E+02 -0.56391932003E+01 -0.11835127631E+02  0.34301737672E+02  0.51100000000E-03 0.  1.
         23    2    1    0    0    0  0.25855563141E+02 -0.73689117678E+01  0.10727415136E+02  0.96143697274E+02  0.91682725112E+02 0.  0.
         11    1    3    3    0    0  0.57553172847E+02 -0.17297185674E+01  0.22562542767E+02  0.61841959602E+02  0.51100000000E-03 0. -1.
         22    1    1    0    0    0 -0.25855563141E+02  0.73689117678E+01 -0.10727415136E+02  0.28946302726E+02  0.00000000000E+00 0. -1.
</event>
<event>
 5    1  0.1047411E-009  0.9118800E+02  0.7815553E-02  0.1125453E+00
         25   -1    0    0    0    0  0.00000000000E+00  0.00000000000E+00  0.99999998245E-14  0.12509000000E+03  0.12509000000E+03 0.  0.
        -11    1    3    3    0    0 -0.19500556956E+02  0.10273537701E+02  0.38849722253E+02  0.44666746220E+02  0.51100000000E-03 0.  1.
         23    2    1    0    0    0 -0.21381411273E+01 -0.25541232592E+02  0.12355491224E+01  0.99429665017E+02  0.96061467269E+02 0.  0.
         11    1    3    3    0    0  0.17362415829E+02 -0.35814770294E+02 -0.37614173131E+02  0.54762918797E+02  0.51100000000E-03 0. -1.
         22    1    1    0    0    0  0.21381411273E+01  0.25541232592E+02 -0.12355491224E+01  0.25660334983E+02  0.00000000000E+00 0. -1.
</event>
<event>
 5    1  0.1047411E-009  0.9118800E+02  0.7815553E-02  0.1125453E+00
         25   -1    0    0    0    0  0.00000000000E+00  0.00000000000E+00  0.99999998245E-14  0.12509000000E+03  0.12509000000E+03 0.  0.
        -11    1    3    3    0    0  0.16311454326E+02 -0.40932537675E+02  0.10266361967E+02  0.45243058816E+02  0.51100000000E-03 0.  1.
         23    2    1    0    0    0 -0.24037062450E+02 -0.13083508210E+02  0.13883805263E+02  0.94402565978E+02  0.89275561361E+02 0.  0.
         11    1    3    3    0    0 -0.40348516776E+02  0.27849029465E+02  0.36174432957E+01  0.49159507162E+02  0.51100000000E-03 0. -1.
         22    1    1    0    0    0  0.24037062450E+02  0.13083508210E+02 -0.13883805263E+02  0.30687434022E+02  0.00000000000E+00 0. -1.
</event>
<event>
 5    1  0.1047411E-009  0.9118800E+02  0.7815553E-02  0.1125453E+00
         25   -1    0    0    0    0  0.00000000000E+00  0.00000000000E+00  0.99999998245E-14  0.12509000000E+03  0.12509000000E+03 0.  0.
        -11    1    3    3    0    0 -0.17694034267E+02 -0.28849290182E+02  0.13860036628E+02  0.36571314007E+02  0.51100000000E-03 0. -1.
         23    2    1    0    0    0 -0.12759228061E+02  0.22224067409E+02 -0.14954331141E+02  0.95419491194E+02  0.90689250779E+02 0.  0.
         11    1    3    3    0    0  0.49348062051E+01  0.51073357592E+02 -0.28814367769E+02  0.58848177186E+02  0.51100000000E-03 0.  1.
         22    1    1    0    0    0  0.12759228061E+02 -0.22224067409E+02  0.14954331141E+02  0.29670508806E+02  0.00000000000E+00 0.  1.
</event>
<event>
 5    1  0.1047411E-009  0.9118800E+02  0.7815553E-02  0.1125453E+00
         25   -1    0    0    0    0  0.00000000000E+00  0.00000000000E+00  0.99999998245E-14  0.12509000000E+03  0.12509000000E+03 0.  0.
        -11    1    3    3    0    0 -0.10792529702E+02 -0.27073479603E+02  0.35659413523E+02  0.46054812650E+02  0.51100000000E-03 0.  1.
         23    2    1    0    0    0 -0.42287872753E+01 -0.50768128629E+01 -0.18804447222E+02  0.10515851972E+03  0.10325236251E+03 0.  0.
         11    1    3    3    0    0  0.65637424270E+01  0.21996666740E+02 -0.54463860745E+02  0.59103707074E+02  0.51100000000E-03 0. -1.
         22    1    1    0    0    0  0.42287872753E+01  0.50768128629E+01  0.18804447222E+02  0.19931480276E+02  0.00000000000E+00 0. -1.
</event>
<event>
 5    1  0.1047411E-009  0.9118800E+02  0.7815553E-02  0.1125453E+00
         25   -1    0    0    0    0  0.00000000000E+00  0.00000000000E+00  0.99999998245E-14  0.12509000000E+03  0.12509000000E+03 0.  0.
        -11    1    3    3    0    0 -0.14261010538E+01  0.18134513434E+02  0.42762949555E+02  0.46471111420E+02  0.51100000000E-03 0.  1.
         23    2    1    0    0    0 -0.26523264713E+02 -0.38782865993E+01  0.34218590718E+01  0.98067161557E+02  0.94270538231E+02 0.  0.
         11    1    3    3    0    0 -0.25097163659E+02 -0.22012800034E+02 -0.39341090483E+02  0.51596050137E+02  0.51100000000E-03 0. -1.
         22    1    1    0    0    0  0.26523264713E+02  0.38782865993E+01 -0.34218590718E+01  0.27022838443E+02  0.00000000000E+00 0.  1.
</event>
<event>
 5    1  0.1047411E-009  0.9118800E+02  0.7815553E-02  0.1125453E+00
         25   -1    0    0    0    0  0.00000000000E+00  0.00000000000E+00  0.99999998245E-14  0.12509000000E+03  0.12509000000E+03 0.  0.
        -11    1    3    3    0    0  0.62698419295E+01 -0.26901108178E+02 -0.46401437678E+02  0.54000684791E+02  0.51100000000E-03 0. -1.
         23    2    1    0    0    0 -0.13935807672E+02 -0.24012191260E+02 -0.10290232296E+02  0.95481201556E+02  0.90774329551E+02 0.  0.
         11    1    3    3    0    0 -0.20205649602E+02  0.28889169185E+01  0.36111205381E+02  0.41480516766E+02  0.51100000000E-03 0.  1.
         22    1    1    0    0    0  0.13935807672E+02  0.24012191260E+02  0.10290232296E+02  0.29608798444E+02  0.00000000000E+00 0. -1.
</event>
<event>
 5    1  0.1047411E-009  0.9118800E+02  0.7815553E-02  0.1125453E+00
         25   -1    0    0    0    0  0.00000000000E+00  0.00000000000E+00  0.99999998245E-14  0.12509000000E+03  0.12509000000E+03 0.  0.
        -11    1    3    3    0    0  0.98213346327E+00  0.32337659999E+02 -0.23452834020E+02  0.39959032323E+02  0.51100000000E-03 0. -1.
         23    2    1    0    0    0 -0.27066825155E+02 -0.10535089437E+02 -0.16566541603E+02  0.91652723884E+02  0.85335633596E+02 0.  0.
         11    1    3    3    0    0 -0.28048958618E+02 -0.42872749436E+02  0.68862924169E+01  0.51693691561E+02  0.51100000000E-03 0.  1.
         22    1    1    0    0    0  0.27066825155E+02  0.10535089437E+02  0.16566541603E+02  0.33437276116E+02  0.00000000000E+00 0.  1.
</event>
<event>
 5    1  0.1047411E-009  0.9118800E+02  0.7815553E-02  0.1125453E+00
         25   -1    0    0    0    0  0.00000000000E+00  0.00000000000E+00  0.99999998245E-14  0.12509000000E+03  0.12509000000E+03 0.  0.
        -11    1    3    3    0    0  0.46595623671E+02  0.21405460959E+02 -0.31979981623E+02  0.60432318581E+02  0.51100000000E-03 0.  1.
         23    2    1    0    0    0  0.15522206762E+02  0.19676468107E+02 -0.14922349384E+02  0.95921887084E+02  0.91379590778E+02 0.  0.
         11    1    3    3    0    0 -0.31073416909E+02 -0.17289928520E+01  0.17057632238E+02  0.35489568503E+02  0.51100000000E-03 0. -1.
         22    1    1    0    0    0 -0.15522206762E+02 -0.19676468107E+02  0.14922349384E+02  0.29168112916E+02  0.00000000000E+00 0.  1.
</event>
<event>
 5    1  0.1047411E-009  0.9118800E+02  0.7815553E-02  0.1125453E+00
         25   -1    0    0    0    0  0.00000000000E+00  0.00000000000E+00  0.99999998245E-14  0.12509000000E+03  0.12509000000E+03 0.  0.
        -11    1    3    3    0    0  0.38771223051E+02  0.18066962023E+02  0.29967809854E+02  0.52227315471E+02  0.51100000000E-03 0.  1.
         23    2    1    0    0    0  0.69654413285E+01  0.27952941542E+02  0.11682537538E+01  0.96258608591E+02  0.91839373895E+02 0.  0.
         11    1    3    3    0    0 -0.31805781722E+02  0.98859795189E+01 -0.28799556100E+02  0.44031293120E+02  0.51100000000E-03 0. -1.
         22    1    1    0    0    0 -0.69654413285E+01 -0.27952941542E+02 -0.11682537538E+01  0.28831391409E+02  0.00000000000E+00 0. -1.
</event>
<event>
 5    1  0.1047411E-009  0.9118800E+02  0.7815553E-02  0.1125453E+00
         25   -1    0    0    0    0  0.00000000000E+00  0.00000000000E+00  0.99999998245E-14  0.12509000000E+03  0.12509000000E+03 0.  0.
        -11    1    3    3    0    0  0.31507931069E+02  0.37621473371E+02 -0.17130556990E+02  0.51976734814E+02  0.51100000000E-03 0. -1.
         23    2    1    0    0    0 -0.83845008308E+01  0.21783925735E+02 -0.19080047621E+02  0.94942239025E+02  0.90028558020E+02 0.  0.
         11    1    3    3    0    0 -0.39892431900E+02 -0.15837547637E+02 -0.19494906315E+01  0.42965504210E+02  0.51100000000E-03 0.  1.
         22    1    1    0    0    0  0.83845008308E+01 -0.21783925735E+02  0.19080047621E+02  0.30147760975E+02  0.00000000000E+00 0. -1.
</event>
<event>
 5    1  0.1047411E-009  0.9118800E+02  0.7815553E-02  0.1125453E+00
         25   -1    0    0    0    0  0.00000000000E+00  0.00000000000E+00  0.99999998245E-14  0.12509000000E+03  0.12509000000E+03 0.  0.
        -11    1    3    3    0    0  0.47101868050E+01 -0.24740086093E+02 -0.21127824821E+02  0.32873130389E+02  0.51100000000E-03 0. -1.
         23    2    1    0    0    0 -0.20540882028E+01  0.27901944122E+02  0.11127753579E+02  0.94980787724E+02  0.90082103510E+02 0.  0.
         11    1    3    3    0    0 -0.67642750078E+01  0.52642030215E+02  0.32255578400E+02  0.62107657336E+02  0.51100000000E-03 0.  1.
         22    1    1    0    0    0  0.20540882028E+01 -0.27901944122E+02 -0.11127753579E+02  0.30109212276E+02  0.00000000000E+00 0.  1.
</event>
<event>
 5    1  0.1047411E-009  0.9118800E+02  0.7815553E-02  0.1125453E+00
         25   -1    0    0    0    0  0.00000000000E+00  0.00000000000E+00  0.99999998245E-14  0.12509000000E+03  0.12509000000E+03 0.  0.
        -11    1    3    3    0    0 -0.17802475949E+02 -0.50261081595E+02 -0.26774957555E+02  0.59665759237E+02  0.51100000000E-03 0. -1.
         23    2    1    0    0    0  0.35772973053E+01 -0.27423045991E+02 -0.74060622736E+01  0.96460115861E+02  0.92113428370E+02 0.  0.
         11    1    3    3    0    0  0.21379773254E+02  0.22838035605E+02  0.19368895281E+02  0.36794356624E+02  0.51100000000E-03 0.  1.
         22    1    1    0    0    0 -0.35772973053E+01  0.27423045991E+02  0.74060622736E+01  0.28629884139E+02  0.00000000000E+00 0. -1.
</event>
<event>
 5    1  0.1047411E-009  0.9118800E+02  0.7815553E-02  0.1125453E+00
         25   -1    0    0    0    0  0.00000000000E+00  0.00000000000E+00  0.99999998245E-14  0.12509000000E+03  0.12509000000E+03 0.  0.
        -11    1    3    3    0    0 -0.29439987530E+02  0.34774860502E+02 -0.13176193846E+02  0.47430115678E+02  0.51100000000E-03 0. -1.
         23    2    1    0    0    0 -0.10865256280E+02  0.11614940948E+02  0.24796541087E+02  0.95631060828E+02  0.90980606163E+02 0.  0.
         11    1    3    3    0    0  0.18574731249E+02 -0.23159919554E+02  0.37972734934E+02  0.48200945150E+02  0.51100000000E-03 0.  1.
         22    1    1    0    0    0  0.10865256280E+02 -0.11614940948E+02 -0.24796541087E+02  0.29458939172E+02  0.00000000000E+00 0.  1.
</event>
<event>
 5    1  0.1047411E-009  0.9118800E+02  0.7815553E-02  0.1125453E+00
         25   -1    0    0    0    0  0.00000000000E+00  0.00000000000E+00  0.99999998245E-14  0.12509000000E+03  0.12509000000E+03 0.  0.
        -11    1    3    3    0    0 -0.27656973605E+02 -0.19733192017E+02  0.71096163049E+01  0.34711002585E+02  0.51100000000E-03 0. -1.
         23    2    1    0    0    0  0.26570152613E+02  0.88256163191E+00 -0.12180360093E+02  0.95847683114E+02  0.91277956054E+02 0.  0.
         11    1    3    3    0    0  0.54227126218E+02  0.20615753649E+02 -0.19289976398E+02  0.61136680529E+02  0.51100000000E-03 0.  1.
         22    1    1    0    0    0 -0.26570152613E+02 -0.88256163191E+00  0.12180360093E+02  0.29242316886E+02  0.00000000000E+00 0.  1.
</event>
<event>
 5    1  0.1047411E-009  0.9118800E+02  0.7815553E-02  0.1125453E+00
         25   -1    0    0    0    0  0.00000000000E+00  0.00000000000E+00  0.99999998245E-14  0.12509000000E+03  0.12509000000E+03 0.  0.
        -11    1    3    3    0    0  0.39412714471E+02 -0.19073761433E+02 -0.34099167888E+02  0.55497060175E+02  0.51100000000E-03 0.  1.
         23    2    1    0    0    0  0.16064010444E+02 -0.24882653700E+02 -0.22857509527E+01  0.95384385310E+02  0.90640815403E+02 0.  0.
         11    1    3    3    0    0 -0.23348704026E+02 -0.58088922668E+01  0.31813416935E+02  0.39887325135E+02  0.51100000000E-03 0. -1.
         22    1    1    0    0    0 -0.16064010444E+02  0.24882653700E+02  0.22857509527E+01  0.29705614690E+02  0.00000000000E+00 0.  1.
</event>
<event>
 5    1  0.1047411E-009  0.9118800E+02  0.7815553E-02  0.1125453E+00
         25   -1    0    0    0    0  0.00000000000E+00  0.00000000000E+00  0.99999998245E-14  0.12509000000E+03  0.12509000000E+03 0.  0.
        -11    1    3    3    0    0 -0.33755932870E+02 -0.39629892026E+02 -0.29497733753E+02  0.59834000725E+02  0.51100000000E-03 0.  1.
         23    2    1    0    0    0 -0.25819178004E+02 -0.11366778228E+02 -0.96315243643E+01  0.95280607828E+02  0.90497482653E+02 0.  0.
         11    1    3    3    0    0  0.79367548663E+01  0.28263113798E+02  0.19866209389E+02  0.35446607103E+02  0.51100000000E-03 0. -1.
         22    1    1    0    0    0  0.25819178004E+02  0.11366778228E+02  0.96315243643E+01  0.29809392172E+02  0.00000000000E+00 0.  1.
</event>
<event>
 5    1  0.1047411E-009  0.9118800E+02  0.7815553E-02  0.1125453E+00
         25   -1    0    0    0    0  0.00000000000E+00  0.00000000000E+00  0.99999998245E-14  0.12509000000E+03  0.12509000000E+03 0.  0.
        -11    1    3    3    0    0  0.56123176399E+02  0.31344013363E+01  0.17489483915E+02  0.58868645719E+02  0.51100000000E-03 0.  1.
         23    2    1    0    0    0  0.39472921225E+02  0.41818325110E+00 -0.31074525970E+01  0.85492744427E+02  0.75769827113E+02 0.  0.
         11    1    3    3    0    0 -0.16650255174E+02 -0.27162180852E+01 -0.20596936512E+02  0.26624098708E+02  0.51100000000E-03 0. -1.
         22    1    1    0    0    0 -0.39472921225E+02 -0.41818325110E+00  0.31074525970E+01  0.39597255573E+02  0.00000000000E+00 0.  1.
</event>
<event>
 5    1  0.1047411E-009  0.9118800E+02  0.7815553E-02  0.1125453E+00
         25   -1    0    0    0    0  0.00000000000E+00  0.00000000000E+00  0.99999998245E-14  0.12509000000E+03  0.12509000000E+03 0.  0.
        -11    1    3    3    0    0 -0.16805564122E+02 -0.27790980699E+01 -0.69590518729E+01  0.18400510177E+02  0.51100000000E-03 0. -1.
         23    2    1    0    0    0  0.73608013141E+01  0.27164637824E+01  0.46820925918E+02  0.77616221182E+02  0.61404544745E+02 0.  0.
         11    1    3    3    0    0  0.24166365436E+02  0.54955618523E+01  0.53779977790E+02  0.59215711005E+02  0.51100000000E-03 0.  1.
         22    1    1    0    0    0 -0.73608013141E+01 -0.27164637824E+01 -0.46820925918E+02  0.47473778818E+02  0.00000000000E+00 0.  1.
</event>
<event>
 5    1  0.1047411E-009  0.9118800E+02  0.7815553E-02  0.1125453E+00
         25   -1    0    0    0    0  0.00000000000E+00  0.00000000000E+00  0.99999998245E-14  0.12509000000E+03  0.12509000000E+03 0.  0.
        -11    1    3    3    0    0  0.34726779479E+02  0.95316429595E+01 -0.12742262152E+02  0.38199040244E+02  0.51100000000E-03 0. -1.
         23    2    1    0    0    0  0.13966209778E+00 -0.26322988574E+02  0.14560431863E+02  0.95008021857E+02  0.90119913494E+02 0.  0.
         11    1    3    3    0    0 -0.34587117382E+02 -0.35854631534E+02  0.27302694015E+02  0.56808981613E+02  0.51100000000E-03 0.  1.
         22    1    1    0    0    0 -0.13966209778E+00  0.26322988574E+02 -0.14560431863E+02  0.30081978143E+02  0.00000000000E+00 0.  1.
</event>
<event>
 5    1  0.1047411E-009  0.9118800E+02  0.7815553E-02  0.1125453E+00
         25   -1    0    0    0    0  0.00000000000E+00  0.00000000000E+00  0.99999998245E-14  0.12509000000E+03  0.12509000000E+03 0.  0.
        -11    1    3    3    0    0  0.13837859377E+02 -0.40150724737E+02 -0.18175024127E+02  0.46194139794E+02  0.51100000000E-03 0.  1.
         23    2    1    0    0    0  0.24367169676E+01  0.95043016992E+01 -0.25595067328E+02  0.97678746619E+02  0.93753723815E+02 0.  0.
         11    1    3    3    0    0 -0.11401142409E+02  0.49655026436E+02 -0.74200432018E+01  0.51484606825E+02  0.51100000000E-03 0. -1.
         22    1    1    0    0    0 -0.24367169676E+01 -0.95043016992E+01  0.25595067328E+02  0.27411253381E+02  0.00000000000E+00 0.  1.
</event>
<event>
 5    1  0.1047411E-009  0.9118800E+02  0.7815553E-02  0.1125453E+00
         25   -1    0    0    0    0  0.00000000000E+00  0.00000000000E+00  0.99999998245E-14  0.12509000000E+03  0.12509000000E+03 0.  0.
        -11    1    3    3    0    0  0.23537146415E+02  0.12443067066E+02 -0.31514514089E+02  0.41255203040E+02  0.51100000000E-03 0.  1.
         23    2    1    0    0    0 -0.23940434664E+02 -0.87062323079E+01 -0.13470526246E+02  0.96273373372E+02  0.91859482092E+02 0.  0.
         11    1    3    3    0    0 -0.47477581079E+02 -0.21149299374E+02  0.18043987843E+02  0.55018170331E+02  0.51100000000E-03 0. -1.
         22    1    1    0    0    0  0.23940434664E+02  0.87062323079E+01  0.13470526246E+02  0.28816626628E+02  0.00000000000E+00 0. -1.
</event>
<event>
 5    1  0.1047411E-009  0.9118800E+02  0.7815553E-02  0.1125453E+00
         25   -1    0    0    0    0  0.00000000000E+00  0.00000000000E+00  0.99999998245E-14  0.12509000000E+03  0.12509000000E+03 0.  0.
        -11    1    3    3    0    0  0.40618507313E+02 -0.21898453257E+02 -0.39700282990E+02  0.60872964945E+02  0.51100000000E-03 0.  1.
         23    2    1    0    0    0  0.23128623109E+02 -0.40533162303E+01 -0.10321562370E+02  0.99440492614E+02  0.96075565791E+02 0.  0.
         11    1    3    3    0    0 -0.17489884203E+02  0.17845137027E+02  0.29378720620E+02  0.38567527669E+02  0.51100000000E-03 0. -1.
         22    1    1    0    0    0 -0.23128623109E+02  0.40533162303E+01  0.10321562370E+02  0.25649507386E+02  0.00000000000E+00 0.  1.
</event>
<event>
 5    1  0.1047411E-009  0.9118800E+02  0.7815553E-02  0.1125453E+00
         25   -1    0    0    0    0  0.00000000000E+00  0.00000000000E+00  0.99999998245E-14  0.12509000000E+03  0.12509000000E+03 0.  0.
        -11    1    3    3    0    0 -0.42241911891E+02  0.36064158736E+02  0.25449748653E+02  0.61095763947E+02  0.51100000000E-03 0.  1.
         23    2    1    0    0    0 -0.27727265018E+02  0.12636793522E+02  0.84792142033E+01  0.93461107363E+02  0.87946527732E+02 0.  0.
         11    1    3    3    0    0  0.14514646873E+02 -0.23427365214E+02 -0.16970534449E+02  0.32365343416E+02  0.51100000000E-03 0. -1.
         22    1    1    0    0    0  0.27727265018E+02 -0.12636793522E+02 -0.84792142033E+01  0.31628892637E+02  0.00000000000E+00 0.  1.
</event>
<event>
 5    1  0.1047411E-009  0.9118800E+02  0.7815553E-02  0.1125453E+00
         25   -1    0    0    0    0  0.00000000000E+00  0.00000000000E+00  0.99999998245E-14  0.12509000000E+03  0.12509000000E+03 0.  0.
        -11    1    3    3    0    0 -0.29843328563E+01 -0.10268581376E+02 -0.48020026948E+02  0.49196270127E+02  0.51100000000E-03 0.  1.
         23    2    1    0    0    0 -0.21184368617E+02 -0.21593717982E+02 -0.93194636477E+01  0.93436903269E+02  0.87912094503E+02 0.  0.
         11    1    3    3    0    0 -0.18200035760E+02 -0.11325136606E+02  0.38700563300E+02  0.44240633142E+02  0.51100000000E-03 0. -1.
         22    1    1    0    0    0  0.21184368617E+02  0.21593717982E+02  0.93194636477E+01  0.31653096731E+02  0.00000000000E+00 0. -1.
</event>
<event>
 5    1  0.1047411E-009  0.9118800E+02  0.7815553E-02  0.1125453E+00
         25   -1    0    0    0    0  0.00000000000E+00  0.00000000000E+00  0.99999998245E-14  0.12509000000E+03  0.12509000000E+03 0.  0.
        -11    1    3    3    0    0  0.17883574683E+02  0.70906932696E+01  0.27638956250E+02  0.33675095803E+02  0.51100000000E-03 0. -1.
         23    2    1    0    0    0 -0.19766073374E+02  0.51262944598E+01 -0.21386480061E+02  0.95520453488E+02  0.90828403893E+02 0.  0.
         11    1    3    3    0    0 -0.37649648057E+02 -0.19643988099E+01 -0.49025436311E+02  0.61845357685E+02  0.51100000000E-03 0.  1.
         22    1    1    0    0    0  0.19766073374E+02 -0.51262944598E+01  0.21386480061E+02  0.29569546512E+02  0.00000000000E+00 0.  1.
</event>
<event>
 5    1  0.1047411E-009  0.9118800E+02  0.7815553E-02  0.1125453E+00
         25   -1    0    0    0    0  0.00000000000E+00  0.00000000000E+00  0.99999998245E-14  0.12509000000E+03  0.12509000000E+03 0.  0.
        -11    1    3    3    0    0  0.26087756610E+02 -0.56117987188E+02 -0.24449403820E+01  0.61933652119E+02  0.51100000000E-03 0.  1.
         23    2    1    0    0    0  0.12111230880E+02 -0.22681492534E+02  0.49109729547E+01  0.98912726033E+02  0.95385940782E+02 0.  0.
         11    1    3    3    0    0 -0.13976525730E+02  0.33436494655E+02  0.73559133368E+01  0.36979073914E+02  0.51100000000E-03 0. -1.
         22    1    1    0    0    0 -0.12111230880E+02  0.22681492534E+02 -0.49109729547E+01  0.26177273967E+02  0.00000000000E+00 0.  1.
</event>
<event>
 5    1  0.1047411E-009  0.9118800E+02  0.7815553E-02  0.1125453E+00
         25   -1    0    0    0    0  0.00000000000E+00  0.00000000000E+00  0.99999998245E-14  0.12509000000E+03  0.12509000000E+03 0.  0.
        -11    1    3    3    0    0  0.23740053237E+02  0.34116459407E+02  0.38142039990E+02  0.56412216275E+02  0.51100000000E-03 0.  1.
         23    2    1    0    0    0  0.21814460449E+02  0.18140315806E+02  0.12157107717E+01  0.96692470267E+02  0.92428426966E+02 0.  0.
         11    1    3    3    0    0 -0.19255927882E+01 -0.15976143600E+02 -0.36926329218E+02  0.40280253993E+02  0.51100000000E-03 0. -1.
         22    1    1    0    0    0 -0.21814460449E+02 -0.18140315806E+02 -0.12157107717E+01  0.28397529733E+02  0.00000000000E+00 0.  1.
</event>
<event>
 5    1  0.1047411E-009  0.9118800E+02  0.7815553E-02  0.1125453E+00
         25   -1    0    0    0    0  0.00000000000E+00  0.00000000000E+00  0.99999998245E-14  0.12509000000E+03  0.12509000000E+03 0.  0.
        -11    1    3    3    0    0  0.20319264104E+00 -0.20106187463E+02 -0.27435757637E+02  0.34015009318E+02  0.51100000000E-03 0. -1.
         23    2    1    0    0    0 -0.57674491629E+01  0.21003989164E+02  0.18904143935E+02  0.96249096953E+02  0.91826417636E+02 0.  0.
         11    1    3    3    0    0 -0.59706418040E+01  0.41110176627E+02  0.46339901572E+02  0.62234087635E+02  0.51100000000E-03 0.  1.
         22    1    1    0    0    0  0.57674491629E+01 -0.21003989164E+02 -0.18904143935E+02  0.28840903047E+02  0.00000000000E+00 0.  1.
</event>
<event>
 5    1  0.1047411E-009  0.9118800E+02  0.7815553E-02  0.1125453E+00
         25   -1    0    0    0    0  0.00000000000E+00  0.00000000000E+00  0.99999998245E-14  0.12509000000E+03  0.12509000000E+03 0.  0.
        -11    1    3    3    0    0  0.88540680196E-01 -0.45226752924E+01 -0.31658134810E+02  0.31979679973E+02  0.51100000000E-03 0.  1.
         23    2    1    0    0    0 -0.13530393684E+02 -0.10141328331E+02  0.27424640297E+02  0.92871542728E+02  0.87103929072E+02 0.  0.
         11    1    3    3    0    0 -0.13618934364E+02 -0.56186530389E+01  0.59082775107E+02  0.60891862755E+02  0.51100000000E-03 0. -1.
         22    1    1    0    0    0  0.13530393684E+02  0.10141328331E+02 -0.27424640297E+02  0.32218457272E+02  0.00000000000E+00 0. -1.
</event>
<event>
 5    1  0.1047411E-009  0.9118800E+02  0.7815553E-02  0.1125453E+00
         25   -1    0    0    0    0  0.00000000000E+00  0.00000000000E+00  0.99999998245E-14  0.12509000000E+03  0.12509000000E+03 0.  0.
        -11    1    3    3    0    0 -0.22767648644E+02  0.16261166246E+02 -0.32681257309E+02  0.43021575193E+02  0.51100000000E-03 0. -1.
         23    2    1    0    0    0  0.25159649123E+02  0.74606301754E+01 -0.15026979942E+02  0.94849644963E+02  0.89899811328E+02 0.  0.
         11    1    3    3    0    0  0.47927297768E+02 -0.88005360710E+01  0.17654277368E+02  0.51828069770E+02  0.51100000000E-03 0.  1.
         22    1    1    0    0    0 -0.25159649123E+02 -0.74606301754E+01  0.15026979942E+02  0.30240355037E+02  0.00000000000E+00 0. -1.
</event>
<event>
 5    1  0.1047411E-009  0.9118800E+02  0.7815553E-02  0.1125453E+00
         25   -1    0    0    0    0  0.00000000000E+00  0.00000000000E+00  0.99999998245E-14  0.12509000000E+03  0.12509000000E+03 0.  0.
        -11    1    3    3    0    0 -0.10147179572E+02 -0.23418120260E+02 -0.30545153471E+02  0.39804271261E+02  0.51100000000E-03 0.  1.
         23    2    1    0    0    0 -0.20577433576E+02 -0.27031815232E+01  0.20529159482E+02  0.95897803235E+02  0.91346616321E+02 0.  0.
         11    1    3    3    0    0 -0.10430254004E+02  0.20714938737E+02  0.51074312953E+02  0.56093531974E+02  0.51100000000E-03 0. -1.
         22    1    1    0    0    0  0.20577433576E+02  0.27031815232E+01 -0.20529159482E+02  0.29192196765E+02  0.00000000000E+00 0. -1.
</event>
<event>
 5    1  0.1047411E-009  0.9118800E+02  0.7815553E-02  0.1125453E+00
         25   -1    0    0    0    0  0.00000000000E+00  0.00000000000E+00  0.99999998245E-14  0.12509000000E+03  0.12509000000E+03 0.  0.
        -11    1    3    3    0    0  0.50745435961E+02 -0.49804313249E+00  0.19389431550E+02  0.54325844438E+02  0.51100000000E-03 0. -1.
         23    2    1    0    0    0  0.19901187522E+02  0.21876271507E+02  0.12176114428E+02  0.93107406571E+02  0.87441997210E+02 0.  0.
         11    1    3    3    0    0 -0.30844248439E+02  0.22374314640E+02 -0.72133171213E+01  0.38781562133E+02  0.51100000000E-03 0.  1.
         22    1    1    0    0    0 -0.19901187522E+02 -0.21876271507E+02 -0.12176114428E+02  0.31982593429E+02  0.00000000000E+00 0. -1.
</event>
<event>
 5    1  0.1047411E-009  0.9118800E+02  0.7815553E-02  0.1125453E+00
         25   -1    0    0    0    0  0.00000000000E+00  0.00000000000E+00  0.99999998245E-14  0.12509000000E+03  0.12509000000E+03 0.  0.
        -11    1    3    3    0    0 -0.30504976553E+02 -0.40834249760E+02 -0.32483725022E+02  0.60441558051E+02  0.51100000000E-03 0.  1.
         23    2    1    0    0    0 -0.63962427678E+01 -0.27102794400E+02 -0.12913067357E+02  0.94394386398E+02  0.89264099665E+02 0.  0.
         11    1    3    3    0    0  0.24108733786E+02  0.13731455360E+02  0.19570657666E+02  0.33952828347E+02  0.51100000000E-03 0. -1.
         22    1    1    0    0    0  0.63962427678E+01  0.27102794400E+02  0.12913067357E+02  0.30695613602E+02  0.00000000000E+00 0.  1.
</event>
<event>
 5    1  0.1047411E-009  0.9118800E+02  0.7815553E-02  0.1125453E+00
         25   -1    0    0    0    0  0.00000000000E+00  0.00000000000E+00  0.99999998245E-14  0.12509000000E+03  0.12509000000E+03 0.  0.
        -11    1    3    3    0    0 -0.95077651213E+01 -0.49593478686E+02  0.25520485629E+02  0.56579200355E+02  0.51100000000E-03 0. -1.
         23    2    1    0    0    0 -0.16357780839E+02 -0.23732503574E+02 -0.35059202493E+01  0.96053812291E+02  0.91560005783E+02 0.  0.
         11    1    3    3    0    0 -0.68500157174E+01  0.25860975112E+02 -0.29026405878E+02  0.39474611937E+02  0.51100000000E-03 0.  1.
         22    1    1    0    0    0  0.16357780839E+02  0.23732503574E+02  0.35059202493E+01  0.29036187709E+02  0.00000000000E+00 0. -1.
</event>
<event>
 5    1  0.1047411E-009  0.9118800E+02  0.7815553E-02  0.1125453E+00
         25   -1    0    0    0    0  0.00000000000E+00  0.00000000000E+00  0.99999998245E-14  0.12509000000E+03  0.12509000000E+03 0.  0.
        -11    1    3    3    0    0 -0.22370199786E+02  0.30089196165E+02 -0.21637439476E+02  0.43289309900E+02  0.51100000000E-03 0.  1.
         23    2    1    0    0    0  0.53728203488E+01  0.13829715496E+02  0.22646034780E+02  0.98016560609E+02  0.94203370604E+02 0.  0.
         11    1    3    3    0    0  0.27743020134E+02 -0.16259480669E+02  0.44283474255E+02  0.54727250709E+02  0.51100000000E-03 0. -1.
         22    1    1    0    0    0 -0.53728203488E+01 -0.13829715496E+02 -0.22646034780E+02  0.27073439391E+02  0.00000000000E+00 0.  1.
</event>
<event>
 5    1  0.1047411E-009  0.9118800E+02  0.7815553E-02  0.1125453E+00
         25   -1    0    0    0    0  0.00000000000E+00  0.00000000000E+00  0.99999998245E-14  0.12509000000E+03  0.12509000000E+03 0.  0.
        -11    1    3    3    0    0  0.21183461854E+02 -0.48436430383E+02  0.10494284944E+02  0.53897651722E+02  0.51100000000E-03 0. -1.
         23    2    1    0    0    0  0.24111979893E+02 -0.81118039826E+01  0.16493705455E+02  0.94771173211E+02  0.89790556374E+02 0.  0.
         11    1    3    3    0    0  0.29285180393E+01  0.40324626400E+02  0.59994205107E+01  0.40873521490E+02  0.51100000000E-03 0.  1.
         22    1    1    0    0    0 -0.24111979893E+02  0.81118039826E+01 -0.16493705455E+02  0.30318826789E+02  0.00000000000E+00 0. -1.
</event>
<event>
 5    1  0.1047411E-009  0.9118800E+02  0.7815553E-02  0.1125453E+00
         25   -1    0    0    0    0  0.00000000000E+00  0.00000000000E+00  0.99999998245E-14  0.12509000000E+03  0.12509000000E+03 0.  0.
        -11    1    3    3    0    0  0.27760847030E+02 -0.18919712893E+02  0.22704971928E+02  0.40547945870E+02  0.51100000000E-03 0. -1.
         23    2    1    0    0    0  0.99713624078E+01  0.60217655321E+00 -0.26707085855E+02  0.96575808450E+02  0.92270405104E+02 0.  0.
         11    1    3    3    0    0 -0.17789484622E+02  0.19521889446E+02 -0.49412057783E+02  0.56027862580E+02  0.51100000000E-03 0.  1.
         22    1    1    0    0    0 -0.99713624078E+01 -0.60217655321E+00  0.26707085855E+02  0.28514191550E+02  0.00000000000E+00 0.  1.
</event>
<event>
 5    1  0.1047411E-009  0.9118800E+02  0.7815553E-02  0.1125453E+00
         25   -1    0    0    0    0  0.00000000000E+00  0.00000000000E+00  0.99999998245E-14  0.12509000000E+03  0.12509000000E+03 0.  0.
        -11    1    3    3    0    0 -0.90782536094E+01 -0.12844385806E+02  0.32699344182E+02  0.36285534935E+02  0.51100000000E-03 0.  1.
         23    2    1    0    0    0 -0.16163639065E+02  0.87213564078E+01 -0.22544413047E+02  0.96011213143E+02  0.91501787983E+02 0.  0.
         11    1    3    3    0    0 -0.70853854559E+01  0.21565742214E+02 -0.55243757229E+02  0.59725678208E+02  0.51100000000E-03 0. -1.
         22    1    1    0    0    0  0.16163639065E+02 -0.87213564078E+01  0.22544413047E+02  0.29078786857E+02  0.00000000000E+00 0. -1.
</event>
<event>
 5    1  0.1047411E-009  0.9118800E+02  0.7815553E-02  0.1125453E+00
         25   -1    0    0    0    0  0.00000000000E+00  0.00000000000E+00  0.99999998245E-14  0.12509000000E+03  0.12509000000E+03 0.  0.
        -11    1    3    3    0    0  0.13933932663E+02 -0.20890140460E+02  0.23275905195E+02  0.34239161946E+02  0.51100000000E-03 0. -1.
         23    2    1    0    0    0 -0.23814062451E+02  0.17147006728E+02  0.22962541867E+02  0.87828656235E+02  0.79532792715E+02 0.  0.
         11    1    3    3    0    0 -0.37747995114E+02  0.38037147188E+02 -0.31336332814E+00  0.53589494289E+02  0.51100000000E-03 0.  1.
         22    1    1    0    0    0  0.23814062451E+02 -0.17147006728E+02 -0.22962541867E+02  0.37261343765E+02  0.00000000000E+00 0.  1.
</event>
<event>
 5    1  0.1047411E-009  0.9118800E+02  0.7815553E-02  0.1125453E+00
         25   -1    0    0    0    0  0.00000000000E+00  0.00000000000E+00  0.99999998245E-14  0.12509000000E+03  0.12509000000E+03 0.  0.
        -11    1    3    3    0    0  0.38285263641E+02 -0.21691142973E+02  0.13172965430E+02  0.45932495187E+02  0.51100000000E-03 0.  1.
         23    2    1    0    0    0  0.58956992200E+01  0.17535196302E+02  0.20667761910E+02  0.97351961839E+02  0.93316695789E+02 0.  0.
         11    1    3    3    0    0 -0.32389564421E+02  0.39226339275E+02  0.74947964801E+01  0.51419466653E+02  0.51100000000E-03 0. -1.
         22    1    1    0    0    0 -0.58956992200E+01 -0.17535196302E+02 -0.20667761910E+02  0.27738038161E+02  0.00000000000E+00 0. -1.
</event>
<event>
 5    1  0.1047411E-009  0.9118800E+02  0.7815553E-02  0.1125453E+00
         25   -1    0    0    0    0  0.00000000000E+00  0.00000000000E+00  0.99999998245E-14  0.12509000000E+03  0.12509000000E+03 0.  0.
        -11    1    3    3    0    0 -0.50353453389E+02 -0.89384335539E+00 -0.10269665990E+02  0.51397813805E+02  0.51100000000E-03 0.  1.
         23    2    1    0    0    0 -0.12204580655E+02  0.21584653766E+02 -0.15287336757E+02  0.95960088701E+02  0.91431870216E+02 0.  0.
         11    1    3    3    0    0  0.38148872734E+02  0.22478497121E+02 -0.50176707671E+01  0.44562274896E+02  0.51100000000E-03 0. -1.
         22    1    1    0    0    0  0.12204580655E+02 -0.21584653766E+02  0.15287336757E+02  0.29129911299E+02  0.00000000000E+00 0.  1.
</event>
<event>
 5    1  0.1047411E-009  0.9118800E+02  0.7815553E-02  0.1125453E+00
         25   -1    0    0    0    0  0.00000000000E+00  0.00000000000E+00  0.99999998245E-14  0.12509000000E+03  0.12509000000E+03 0.  0.
        -11    1    3    3    0    0 -0.19496776705E+02  0.47692978408E+02  0.33981990035E+02  0.61721310244E+02  0.51100000000E-03 0. -1.
         23    2    1    0    0    0 -0.75602342092E+01  0.26222105136E+02  0.10076432584E+02  0.95998928643E+02  0.91484992583E+02 0.  0.
         11    1    3    3    0    0  0.11936542495E+02 -0.21470873271E+02 -0.23905557451E+02  0.34277618399E+02  0.51100000000E-03 0.  1.
         22    1    1    0    0    0  0.75602342092E+01 -0.26222105136E+02 -0.10076432584E+02  0.29091071357E+02  0.00000000000E+00 0. -1.
</event>
<event>
 5    1  0.1047411E-009  0.9118800E+02  0.7815553E-02  0.1125453E+00
         25   -1    0    0    0    0  0.00000000000E+00  0.00000000000E+00  0.99999998245E-14  0.12509000000E+03  0.12509000000E+03 0.  0.
        -11    1    3    3    0    0  0.38476445077E+02 -0.46966905272E+01 -0.45230586323E+01  0.39025040516E+02  0.51100000000E-03 0.  1.
         23    2    1    0    0    0 -0.57248184701E+01  0.22974997600E+02  0.17514259777E+02  0.95638797023E+02  0.90991242102E+02 0.  0.
         11    1    3    3    0    0 -0.44201263547E+02  0.27671688127E+02  0.22037318409E+02  0.56613756507E+02  0.51100000000E-03 0. -1.
         22    1    1    0    0    0  0.57248184701E+01 -0.22974997600E+02 -0.17514259777E+02  0.29451202977E+02  0.00000000000E+00 0. -1.
</event>
<event>
 5    1  0.1047411E-009  0.9118800E+02  0.7815553E-02  0.1125453E+00
         25   -1    0    0    0    0  0.00000000000E+00  0.00000000000E+00  0.99999998245E-14  0.12509000000E+03  0.12509000000E+03 0.  0.
        -11    1    3    3    0    0 -0.20111005495E+02 -0.26937609441E+02 -0.14003179009E+02  0.36416704505E+02  0.51100000000E-03 0. -1.
         23    2    1    0    0    0  0.25975281490E+02  0.62377745433E+01 -0.17243718600E+02  0.93294231242E+02  0.87708851732E+02 0.  0.
         11    1    3    3    0    0  0.46086286986E+02  0.33175383984E+02 -0.32405395902E+01  0.56877526737E+02  0.51100000000E-03 0.  1.
         22    1    1    0    0    0 -0.25975281490E+02 -0.62377745433E+01  0.17243718600E+02  0.31795768758E+02  0.00000000000E+00 0.  1.
</event>
<event>
 5    1  0.1047411E-009  0.9118800E+02  0.7815553E-02  0.1125453E+00
         25   -1    0    0    0    0  0.00000000000E+00  0.00000000000E+00  0.99999998245E-14  0.12509000000E+03  0.12509000000E+03 0.  0.
        -11    1    3    3    0    0 -0.14796292298E+02  0.35647679788E+02  0.47553581278E+02  0.61245656439E+02  0.51100000000E-03 0. -1.
         23    2    1    0    0    0 -0.86532959468E+01  0.23049414893E+02  0.16121616455E+02  0.95661075881E+02  0.91021864758E+02 0.  0.
         11    1    3    3    0    0  0.61429963509E+01 -0.12598264895E+02 -0.31431964823E+02  0.34415419442E+02  0.51100000000E-03 0.  1.
         22    1    1    0    0    0  0.86532959468E+01 -0.23049414893E+02 -0.16121616455E+02  0.29428924119E+02  0.00000000000E+00 0. -1.
</event>
<event>
 5    1  0.1047411E-009  0.9118800E+02  0.7815553E-02  0.1125453E+00
         25   -1    0    0    0    0  0.00000000000E+00  0.00000000000E+00  0.99999998245E-14  0.12509000000E+03  0.12509000000E+03 0.  0.
        -11    1    3    3    0    0  0.16335219583E+02  0.38768986607E+02 -0.15194282097E+02  0.44729631454E+02  0.51100000000E-03 0. -1.
         23    2    1    0    0    0 -0.90401037455E+01 -0.25507399766E+01 -0.28558007189E+02  0.95026907599E+02  0.90146123838E+02 0.  0.
         11    1    3    3    0    0 -0.25375323328E+02 -0.41319726583E+02 -0.13363725092E+02  0.50297276144E+02  0.51100000000E-03 0.  1.
         22    1    1    0    0    0  0.90401037455E+01  0.25507399766E+01  0.28558007189E+02  0.30063092401E+02  0.00000000000E+00 0. -1.
</event>
<event>
 5    1  0.1047411E-009  0.9118800E+02  0.7815553E-02  0.1125453E+00
         25   -1    0    0    0    0  0.00000000000E+00  0.00000000000E+00  0.99999998245E-14  0.12509000000E+03  0.12509000000E+03 0.  0.
        -11    1    3    3    0    0 -0.49547128277E+02 -0.14019510433E+01  0.29759506104E+02  0.57814458322E+02  0.51100000000E-03 0.  1.
         23    2    1    0    0    0 -0.10899053295E+02 -0.94723969639E+01  0.23091404523E+02  0.97855304668E+02  0.93988999473E+02 0.  0.
         11    1    3    3    0    0  0.38648074982E+02 -0.80704459205E+01 -0.66681015810E+01  0.40040846346E+02  0.51100000000E-03 0. -1.
         22    1    1    0    0    0  0.10899053295E+02  0.94723969639E+01 -0.23091404523E+02  0.27234695332E+02  0.00000000000E+00 0.  1.
</event>
<event>
 5    1  0.1047411E-009  0.9118800E+02  0.7815553E-02  0.1125453E+00
         25   -1    0    0    0    0  0.00000000000E+00  0.00000000000E+00  0.99999998245E-14  0.12509000000E+03  0.12509000000E+03 0.  0.
        -11    1    3    3    0    0  0.23977070124E+02 -0.48845164964E+01 -0.42972745483E+02  0.49451140004E+02  0.51100000000E-03 0. -1.
         23    2    1    0    0    0  0.29063025885E+02 -0.27093392205E+01  0.29924390489E+01  0.95747970690E+02  0.91141204771E+02 0.  0.
         11    1    3    3    0    0  0.50859557608E+01  0.21751772759E+01  0.45965184532E+02  0.46296830685E+02  0.51100000000E-03 0.  1.
         22    1    1    0    0    0 -0.29063025885E+02  0.27093392205E+01 -0.29924390489E+01  0.29342029310E+02  0.00000000000E+00 0.  1.
</event>
<event>
 5    1  0.1047411E-009  0.9118800E+02  0.7815553E-02  0.1125453E+00
         25   -1    0    0    0    0  0.00000000000E+00  0.00000000000E+00  0.99999998245E-14  0.12509000000E+03  0.12509000000E+03 0.  0.
        -11    1    3    3    0    0 -0.14317560498E+02  0.12690379285E+02  0.58808312942E+02  0.61842185734E+02  0.51100000000E-03 0.  1.
         23    2    1    0    0    0 -0.65404210605E+01  0.12246708126E+02  0.25436138392E+02  0.96111454421E+02  0.91638723076E+02 0.  0.
         11    1    3    3    0    0  0.77771394376E+01 -0.44367115954E+00 -0.33372174550E+02  0.34269268687E+02  0.51100000000E-03 0. -1.
         22    1    1    0    0    0  0.65404210605E+01 -0.12246708126E+02 -0.25436138392E+02  0.28978545579E+02  0.00000000000E+00 0.  1.
</event>
<event>
 5    1  0.1047411E-009  0.9118800E+02  0.7815553E-02  0.1125453E+00
         25   -1    0    0    0    0  0.00000000000E+00  0.00000000000E+00  0.99999998245E-14  0.12509000000E+03  0.12509000000E+03 0.  0.
        -11    1    3    3    0    0 -0.35950030636E+02  0.23192196592E+02  0.33254155992E+02  0.54185990593E+02  0.51100000000E-03 0.  1.
         23    2    1    0    0    0  0.36622469421E+01  0.17753668266E+02  0.23622730224E+02  0.95313529880E+02  0.90542977671E+02 0.  0.
         11    1    3    3    0    0  0.39612277578E+02 -0.54385283265E+01 -0.96314257688E+01  0.41127539288E+02  0.51100000000E-03 0. -1.
         22    1    1    0    0    0 -0.36622469421E+01 -0.17753668266E+02 -0.23622730224E+02  0.29776470120E+02  0.00000000000E+00 0.  1.
</event>
<event>
 5    1  0.1047411E-009  0.9118800E+02  0.7815553E-02  0.1125453E+00
         25   -1    0    0    0    0  0.00000000000E+00  0.00000000000E+00  0.99999998245E-14  0.12509000000E+03  0.12509000000E+03 0.  0.
        -11    1    3    3    0    0  0.30139148212E+02 -0.12276891012E+02  0.37053158600E+02  0.49315584457E+02  0.51100000000E-03 0.  1.
         23    2    1    0    0    0  0.23333699565E+01 -0.29576097372E+02  0.52574398656E+01  0.94959768919E+02  0.90052911602E+02 0.  0.
         11    1    3    3    0    0 -0.27805778256E+02 -0.17299206360E+02 -0.31795718734E+02  0.45644184461E+02  0.51100000000E-03 0. -1.
         22    1    1    0    0    0 -0.23333699565E+01  0.29576097372E+02 -0.52574398656E+01  0.30130231081E+02  0.00000000000E+00 0.  1.
</event>
<event>
 5    1  0.1047411E-009  0.9118800E+02  0.7815553E-02  0.1125453E+00
         25   -1    0    0    0    0  0.00000000000E+00  0.00000000000E+00  0.99999998245E-14  0.12509000000E+03  0.12509000000E+03 0.  0.
        -11    1    3    3    0    0  0.35785225155E+02  0.53782561995E+01 -0.17056488335E+02  0.40005396807E+02  0.51100000000E-03 0. -1.
         23    2    1    0    0    0 -0.60180838979E+01  0.22796072114E+02  0.16451262588E+02  0.96340699515E+02  0.91951118017E+02 0.  0.
         11    1    3    3    0    0 -0.41803309053E+02  0.17417815915E+02  0.33507750923E+02  0.56335302708E+02  0.51100000000E-03 0.  1.
         22    1    1    0    0    0  0.60180838979E+01 -0.22796072114E+02 -0.16451262588E+02  0.28749300485E+02  0.00000000000E+00 0.  1.
</event>
<event>
 5    1  0.1047411E-009  0.9118800E+02  0.7815553E-02  0.1125453E+00
         25   -1    0    0    0    0  0.00000000000E+00  0.00000000000E+00  0.99999998245E-14  0.12509000000E+03  0.12509000000E+03 0.  0.
        -11    1    3    3    0    0 -0.10946971163E+02 -0.32008945861E+02  0.17272014216E+02  0.37983302491E+02  0.51100000000E-03 0. -1.
         23    2    1    0    0    0  0.27260371142E+02  0.76105755370E+01  0.14969201358E+02  0.93072416017E+02  0.87391927197E+02 0.  0.
         11    1    3    3    0    0  0.38207342305E+02  0.39619521398E+02 -0.23028128577E+01  0.55089113526E+02  0.51100000000E-03 0.  1.
         22    1    1    0    0    0 -0.27260371142E+02 -0.76105755370E+01 -0.14969201358E+02  0.32017583983E+02  0.00000000000E+00 0.  1.
</event>
<event>
 5    1  0.1047411E-009  0.9118800E+02  0.7815553E-02  0.1125453E+00
         25   -1    0    0    0    0  0.00000000000E+00  0.00000000000E+00  0.99999998245E-14  0.12509000000E+03  0.12509000000E+03 0.  0.
        -11    1    3    3    0    0 -0.27234637077E+01 -0.19881742001E+02 -0.49572944375E+02  0.53480629519E+02  0.51100000000E-03 0. -1.
         23    2    1    0    0    0 -0.22404763378E+01 -0.27089864791E+02 -0.65184785755E+01  0.97136984572E+02  0.93028074795E+02 0.  0.
         11    1    3    3    0    0  0.48298736996E+00 -0.72081227900E+01  0.43054465799E+02  0.43656355052E+02  0.51100000000E-03 0.  1.
         22    1    1    0    0    0  0.22404763378E+01  0.27089864791E+02  0.65184785755E+01  0.27953015428E+02  0.00000000000E+00 0. -1.
</event>
<event>
 5    1  0.1047411E-009  0.9118800E+02  0.7815553E-02  0.1125453E+00
         25   -1    0    0    0    0  0.00000000000E+00  0.00000000000E+00  0.99999998245E-14  0.12509000000E+03  0.12509000000E+03 0.  0.
        -11    1    3    3    0    0  0.17935416401E+01  0.47396725553E+02 -0.13374363474E+02  0.49280218986E+02  0.51100000000E-03 0.  1.
         23    2    1    0    0    0  0.27557443862E+02  0.10518400484E+02 -0.30512382282E+01  0.95436003377E+02  0.90712023596E+02 0.  0.
         11    1    3    3    0    0  0.25763902222E+02 -0.36878325069E+02  0.10323125245E+02  0.46155784391E+02  0.51100000000E-03 0. -1.
         22    1    1    0    0    0 -0.27557443862E+02 -0.10518400484E+02  0.30512382282E+01  0.29653996623E+02  0.00000000000E+00 0.  1.
</event>
<event>
 5    1  0.1047411E-009  0.9118800E+02  0.7815553E-02  0.1125453E+00
         25   -1    0    0    0    0  0.00000000000E+00  0.00000000000E+00  0.99999998245E-14  0.12509000000E+03  0.12509000000E+03 0.  0.
        -11    1    3    3    0    0 -0.14390754134E+02 -0.98729585162E+01  0.30703491775E+02  0.35316759787E+02  0.51100000000E-03 0. -1.
         23    2    1    0    0    0  0.17472423607E+02  0.15652603554E+02 -0.15499813784E+02  0.96973566869E+02  0.92808075398E+02 0.  0.
         11    1    3    3    0    0  0.31863177740E+02  0.25525562070E+02 -0.46203305559E+02  0.61656807082E+02  0.51100000000E-03 0.  1.
         22    1    1    0    0    0 -0.17472423607E+02 -0.15652603554E+02  0.15499813784E+02  0.28116433131E+02  0.00000000000E+00 0.  1.
</event>
<event>
 5    1  0.1047411E-009  0.9118800E+02  0.7815553E-02  0.1125453E+00
         25   -1    0    0    0    0  0.00000000000E+00  0.00000000000E+00  0.99999998245E-14  0.12509000000E+03  0.12509000000E+03 0.  0.
        -11    1    3    3    0    0  0.16442236916E+02 -0.63785061008E+01  0.46852928886E+02  0.50062255645E+02  0.51100000000E-03 0.  1.
         23    2    1    0    0    0 -0.20176647222E+02 -0.81446561685E+01  0.20329222773E+02  0.95312326892E+02  0.90541315662E+02 0.  0.
         11    1    3    3    0    0 -0.36618884137E+02 -0.17661500677E+01 -0.26523706113E+02  0.45250071246E+02  0.51100000000E-03 0. -1.
         22    1    1    0    0    0  0.20176647222E+02  0.81446561685E+01 -0.20329222773E+02  0.29777673108E+02  0.00000000000E+00 0.  1.
</event>
<event>
 5    1  0.1047411E-009  0.9118800E+02  0.7815553E-02  0.1125453E+00
         25   -1    0    0    0    0  0.00000000000E+00  0.00000000000E+00  0.99999998245E-14  0.12509000000E+03  0.12509000000E+03 0.  0.
        -11    1    3    3    0    0 -0.39135523313E+01  0.45349013651E+02  0.10499333897E+02  0.46712792076E+02  0.51100000000E-03 0. -1.
         23    2    1    0    0    0  0.14478750250E+02  0.28135258227E+01  0.25678386334E+02  0.95477001822E+02  0.90768541995E+02 0.  0.
         11    1    3    3    0    0  0.18392302581E+02 -0.42535487829E+02  0.15179052437E+02  0.48764209746E+02  0.51100000000E-03 0.  1.
         22    1    1    0    0    0 -0.14478750250E+02 -0.28135258227E+01 -0.25678386334E+02  0.29612998178E+02  0.00000000000E+00 0. -1.
</event>
<event>
 5    1  0.1047411E-009  0.9118800E+02  0.7815553E-02  0.1125453E+00
         25   -1    0    0    0    0  0.00000000000E+00  0.00000000000E+00  0.99999998245E-14  0.12509000000E+03  0.12509000000E+03 0.  0.
        -11    1    3    3    0    0  0.23225342652E+02 -0.23897100540E+02 -0.17959011159E+02  0.37855171874E+02  0.51100000000E-03 0. -1.
         23    2    1    0    0    0  0.41892005679E+02 -0.20060219196E+02  0.15300541116E+02  0.76187453109E+02  0.58421476521E+02 0.  0.
         11    1    3    3    0    0  0.18666663026E+02  0.38368813437E+01  0.33259552274E+02  0.38332281236E+02  0.51100000000E-03 0.  1.
         22    1    1    0    0    0 -0.41892005679E+02  0.20060219196E+02 -0.15300541116E+02  0.48902546891E+02  0.00000000000E+00 0. -1.
</event>
<event>
 5    1  0.1047411E-009  0.9118800E+02  0.7815553E-02  0.1125453E+00
         25   -1    0    0    0    0  0.00000000000E+00  0.00000000000E+00  0.99999998245E-14  0.12509000000E+03  0.12509000000E+03 0.  0.
        -11    1    3    3    0    0 -0.28570238255E+02  0.19735607549E+02  0.39876338275E+02  0.52876034966E+02  0.51100000000E-03 0. -1.
         23    2    1    0    0    0  0.96040753190E+01  0.17703970036E+02  0.22571559795E+02  0.94838650785E+02  0.89884512311E+02 0.  0.
         11    1    3    3    0    0  0.38174313574E+02 -0.20316375131E+01 -0.17304778480E+02  0.41962615818E+02  0.51100000000E-03 0.  1.
         22    1    1    0    0    0 -0.96040753190E+01 -0.17703970036E+02 -0.22571559795E+02  0.30251349215E+02  0.00000000000E+00 0. -1.
</event>
<event>
 5    1  0.1047411E-009  0.9118800E+02  0.7815553E-02  0.1125453E+00
         25   -1    0    0    0    0  0.00000000000E+00  0.00000000000E+00  0.99999998245E-14  0.12509000000E+03  0.12509000000E+03 0.  0.
        -11    1    3    3    0    0 -0.14819236535E+02  0.25292065825E+02  0.21431162974E+02  0.36312437427E+02  0.51100000000E-03 0. -1.
         23    2    1    0    0    0 -0.87120838260E+01 -0.25308759241E+02 -0.10366929329E+02  0.96386221109E+02  0.92013024606E+02 0.  0.
         11    1    3    3    0    0  0.61071527089E+01 -0.50600825066E+02 -0.31798092303E+02  0.60073783683E+02  0.51100000000E-03 0.  1.
         22    1    1    0    0    0  0.87120838260E+01  0.25308759241E+02  0.10366929329E+02  0.28703778891E+02  0.00000000000E+00 0.  1.
</event>
<event>
 5    1  0.1047411E-009  0.9118800E+02  0.7815553E-02  0.1125453E+00
         25   -1    0    0    0    0  0.00000000000E+00  0.00000000000E+00  0.99999998245E-14  0.12509000000E+03  0.12509000000E+03 0.  0.
        -11    1    3    3    0    0 -0.17986068260E+02  0.52122948058E+01  0.26023761655E+02  0.32060923872E+02  0.51100000000E-03 0.  1.
         23    2    1    0    0    0  0.27977758288E+02  0.28340542188E+01 -0.14559775290E+02  0.93423394899E+02  0.87892871359E+02 0.  0.
         11    1    3    3    0    0  0.45963826548E+02 -0.23782405871E+01 -0.40583536945E+02  0.61362471026E+02  0.51100000000E-03 0. -1.
         22    1    1    0    0    0 -0.27977758288E+02 -0.28340542188E+01  0.14559775290E+02  0.31666605101E+02  0.00000000000E+00 0. -1.
</event>
<event>
 5    1  0.1047411E-009  0.9118800E+02  0.7815553E-02  0.1125453E+00
         25   -1    0    0    0    0  0.00000000000E+00  0.00000000000E+00  0.99999998245E-14  0.12509000000E+03  0.12509000000E+03 0.  0.
        -11    1    3    3    0    0 -0.16489248780E+02  0.15321978287E+01 -0.38120605749E+02  0.41562285048E+02  0.51100000000E-03 0.  1.
         23    2    1    0    0    0 -0.61003902348E+01 -0.25986088244E+02  0.88378531166E+01  0.96972404246E+02  0.92806508362E+02 0.  0.
         11    1    3    3    0    0  0.10388858545E+02 -0.27518286073E+02  0.46958458865E+02  0.55410119198E+02  0.51100000000E-03 0. -1.
         22    1    1    0    0    0  0.61003902348E+01  0.25986088244E+02 -0.88378531166E+01  0.28117595754E+02  0.00000000000E+00 0. -1.
</event>
<event>
 5    1  0.1047411E-009  0.9118800E+02  0.7815553E-02  0.1125453E+00
         25   -1    0    0    0    0  0.00000000000E+00  0.00000000000E+00  0.99999998245E-14  0.12509000000E+03  0.12509000000E+03 0.  0.
        -11    1    3    3    0    0 -0.32020384436E+02  0.29873264716E+02  0.13188075045E+01  0.43811599123E+02  0.51100000000E-03 0.  1.
         23    2    1    0    0    0  0.79589173964E+01  0.62521677658E+01  0.26561833108E+02  0.96665275798E+02  0.92391615416E+02 0.  0.
         11    1    3    3    0    0  0.39979301833E+02 -0.23621096950E+02  0.25243025603E+02  0.52853676675E+02  0.51100000000E-03 0. -1.
         22    1    1    0    0    0 -0.79589173964E+01 -0.62521677658E+01 -0.26561833108E+02  0.28424724202E+02  0.00000000000E+00 0. -1.
</event>
<event>
 5    1  0.1047411E-009  0.9118800E+02  0.7815553E-02  0.1125453E+00
         25   -1    0    0    0    0  0.00000000000E+00  0.00000000000E+00  0.99999998245E-14  0.12509000000E+03  0.12509000000E+03 0.  0.
        -11    1    3    3    0    0  0.48420583939E+01  0.35807246156E+02 -0.17497488500E+02  0.40146811964E+02  0.51100000000E-03 0.  1.
         23    2    1    0    0    0 -0.28191420367E+02 -0.85765664860E+00  0.81055301759E+01  0.95743937629E+02  0.91135669286E+02 0.  0.
         11    1    3    3    0    0 -0.33033478761E+02 -0.36664902804E+02  0.25603018676E+02  0.55597125666E+02  0.51100000000E-03 0. -1.
         22    1    1    0    0    0  0.28191420367E+02  0.85765664860E+00 -0.81055301759E+01  0.29346062371E+02  0.00000000000E+00 0. -1.
</event>
<event>
 5    1  0.1047411E-009  0.9118800E+02  0.7815553E-02  0.1125453E+00
         25   -1    0    0    0    0  0.00000000000E+00  0.00000000000E+00  0.99999998245E-14  0.12509000000E+03  0.12509000000E+03 0.  0.
        -11    1    3    3    0    0 -0.33480245192E+02  0.25509546690E+02 -0.21608410592E+02  0.47313710476E+02  0.51100000000E-03 0. -1.
         23    2    1    0    0    0 -0.10182132299E+02  0.16657998476E+02  0.20837281627E+02  0.96535542608E+02  0.92215800976E+02 0.  0.
         11    1    3    3    0    0  0.23298112893E+02 -0.88515482144E+01  0.42445692219E+02  0.49221832132E+02  0.51100000000E-03 0.  1.
         22    1    1    0    0    0  0.10182132299E+02 -0.16657998476E+02 -0.20837281627E+02  0.28554457392E+02  0.00000000000E+00 0.  1.
</event>
<event>
 5    1  0.1047411E-009  0.9118800E+02  0.7815553E-02  0.1125453E+00
         25   -1    0    0    0    0  0.00000000000E+00  0.00000000000E+00  0.99999998245E-14  0.12509000000E+03  0.12509000000E+03 0.  0.
        -11    1    3    3    0    0 -0.39391457955E+01 -0.50563998107E+02 -0.22841379822E+02  0.55623407003E+02  0.51100000000E-03 0. -1.
         23    2    1    0    0    0  0.18908266190E+01 -0.56433645407E+01 -0.23421126082E+02  0.10092448872E+03  0.97988675300E+02 0.  0.
         11    1    3    3    0    0  0.58299724145E+01  0.44920633567E+02 -0.57974626003E+00  0.45301081713E+02  0.51100000000E-03 0.  1.
         22    1    1    0    0    0 -0.18908266190E+01  0.56433645407E+01  0.23421126082E+02  0.24165511284E+02  0.00000000000E+00 0. -1.
</event>
<event>
 5    1  0.1047411E-009  0.9118800E+02  0.7815553E-02  0.1125453E+00
         25   -1    0    0    0    0  0.00000000000E+00  0.00000000000E+00  0.99999998245E-14  0.12509000000E+03  0.12509000000E+03 0.  0.
        -11    1    3    3    0    0 -0.76923953929E+01  0.49840505210E+02 -0.25568560401E+02  0.56542021433E+02  0.51100000000E-03 0. -1.
         23    2    1    0    0    0 -0.16184269022E+02  0.12271410612E+02 -0.21881644865E+02  0.95234942402E+02  0.90434339662E+02 0.  0.
         11    1    3    3    0    0 -0.84918736296E+01 -0.37569094598E+02  0.36869155361E+01  0.38692920969E+02  0.51100000000E-03 0.  1.
         22    1    1    0    0    0  0.16184269022E+02 -0.12271410612E+02  0.21881644865E+02  0.29855057598E+02  0.00000000000E+00 0. -1.
</event>
<event>
 5    1  0.1047411E-009  0.9118800E+02  0.7815553E-02  0.1125453E+00
         25   -1    0    0    0    0  0.00000000000E+00  0.00000000000E+00  0.99999998245E-14  0.12509000000E+03  0.12509000000E+03 0.  0.
        -11    1    3    3    0    0  0.50929927520E+02 -0.15033679444E+02 -0.66859836221E+01  0.53521691043E+02  0.51100000000E-03 0. -1.
         23    2    1    0    0    0  0.12536797656E+02 -0.14528809191E+02 -0.22909738828E+02  0.95204991632E+02  0.90392901859E+02 0.  0.
         11    1    3    3    0    0 -0.38393129864E+02  0.50487025286E+00 -0.16223755206E+02  0.41683300589E+02  0.51100000000E-03 0.  1.
         22    1    1    0    0    0 -0.12536797656E+02  0.14528809191E+02  0.22909738828E+02  0.29885008368E+02  0.00000000000E+00 0. -1.
</event>
<event>
 5    1  0.1047411E-009  0.9118800E+02  0.7815553E-02  0.1125453E+00
         25   -1    0    0    0    0  0.00000000000E+00  0.00000000000E+00  0.99999998245E-14  0.12509000000E+03  0.12509000000E+03 0.  0.
        -11    1    3    3    0    0  0.12141774452E+02 -0.33742233623E+02  0.96710238422E+01  0.37141482457E+02  0.51100000000E-03 0.  1.
         23    2    1    0    0    0 -0.98439961031E+01  0.22526950563E+02  0.12280084039E+02  0.97609675676E+02  0.93661521238E+02 0.  0.
         11    1    3    3    0    0 -0.21985770555E+02  0.56269184186E+02  0.26090601966E+01  0.60468193219E+02  0.51100000000E-03 0. -1.
         22    1    1    0    0    0  0.98439961031E+01 -0.22526950563E+02 -0.12280084039E+02  0.27480324324E+02  0.00000000000E+00 0. -1.
</event>
<event>
 5    1  0.1047411E-009  0.9118800E+02  0.7815553E-02  0.1125453E+00
         25   -1    0    0    0    0  0.00000000000E+00  0.00000000000E+00  0.99999998245E-14  0.12509000000E+03  0.12509000000E+03 0.  0.
        -11    1    3    3    0    0  0.41951736516E+02  0.32614694575E+02 -0.19251994954E+02  0.56518190071E+02  0.51100000000E-03 0. -1.
         23    2    1    0    0    0  0.59610494484E+01  0.28479302349E+02 -0.44401250481E+01  0.95656694320E+02  0.91015843043E+02 0.  0.
         11    1    3    3    0    0 -0.35990687068E+02 -0.41353922252E+01  0.14811869906E+02  0.39138504249E+02  0.51100000000E-03 0.  1.
         22    1    1    0    0    0 -0.59610494484E+01 -0.28479302349E+02  0.44401250481E+01  0.29433305680E+02  0.00000000000E+00 0. -1.
</event>
<event>
 5    1  0.1047411E-009  0.9118800E+02  0.7815553E-02  0.1125453E+00
         25   -1    0    0    0    0  0.00000000000E+00  0.00000000000E+00  0.99999998245E-14  0.12509000000E+03  0.12509000000E+03 0.  0.
        -11    1    3    3    0    0  0.30543301163E+02  0.34136431590E+02  0.38376462553E+02  0.59757360099E+02  0.51100000000E-03 0.  1.
         23    2    1    0    0    0  0.33051324847E+01  0.14183815108E+02  0.25165451548E+02  0.96014160143E+02  0.91505816671E+02 0.  0.
         11    1    3    3    0    0 -0.27238168678E+02 -0.19952616482E+02 -0.13211011005E+02  0.36256800044E+02  0.51100000000E-03 0. -1.
         22    1    1    0    0    0 -0.33051324847E+01 -0.14183815108E+02 -0.25165451548E+02  0.29075839857E+02  0.00000000000E+00 0.  1.
</event>
<event>
 5    1  0.1047411E-009  0.9118800E+02  0.7815553E-02  0.1125453E+00
         25   -1    0    0    0    0  0.00000000000E+00  0.00000000000E+00  0.99999998245E-14  0.12509000000E+03  0.12509000000E+03 0.  0.
        -11    1    3    3    0    0 -0.37801947059E+02  0.14777581504E+02 -0.73125589228E+00  0.40594320440E+02  0.51100000000E-03 0.  1.
         23    2    1    0    0    0 -0.14130567699E+02 -0.29994671196E+02 -0.55670190097E+01  0.91469397027E+02  0.85066477817E+02 0.  0.
         11    1    3    3    0    0  0.23671379360E+02 -0.44772252699E+02 -0.48357631174E+01  0.50875076587E+02  0.51100000000E-03 0. -1.
         22    1    1    0    0    0  0.14130567699E+02  0.29994671196E+02  0.55670190097E+01  0.33620602973E+02  0.00000000000E+00 0. -1.
</event>
<event>
 5    1  0.1047411E-009  0.9118800E+02  0.7815553E-02  0.1125453E+00
         25   -1    0    0    0    0  0.00000000000E+00  0.00000000000E+00  0.99999998245E-14  0.12509000000E+03  0.12509000000E+03 0.  0.
        -11    1    3    3    0    0  0.32293053923E+02  0.45374819440E+02 -0.11962142625E+01  0.55705892863E+02  0.51100000000E-03 0.  1.
         23    2    1    0    0    0  0.18548883099E+02  0.14080814576E+02  0.18672526573E+02  0.95240483220E+02  0.90442003472E+02 0.  0.
         11    1    3    3    0    0 -0.13744170824E+02 -0.31294004864E+02  0.19868740836E+02  0.39534590357E+02  0.51100000000E-03 0. -1.
         22    1    1    0    0    0 -0.18548883099E+02 -0.14080814576E+02 -0.18672526573E+02  0.29849516780E+02  0.00000000000E+00 0.  1.
</event>
<event>
 5    1  0.1047411E-009  0.9118800E+02  0.7815553E-02  0.1125453E+00
         25   -1    0    0    0    0  0.00000000000E+00  0.00000000000E+00  0.99999998245E-14  0.12509000000E+03  0.12509000000E+03 0.  0.
        -11    1    3    3    0    0  0.99992143314E+01  0.66392195728E+00 -0.32799229862E+02  0.34295984596E+02  0.51100000000E-03 0.  1.
         23    2    1    0    0    0 -0.19325185576E+02 -0.71550909888E+01  0.20749011811E+02  0.95846545762E+02  0.91276397381E+02 0.  0.
         11    1    3    3    0    0 -0.29324399908E+02 -0.78190129461E+01  0.53548241673E+02  0.61550561167E+02  0.51100000000E-03 0. -1.
         22    1    1    0    0    0  0.19325185576E+02  0.71550909888E+01 -0.20749011811E+02  0.29243454238E+02  0.00000000000E+00 0. -1.
</event>
<event>
 5    1  0.1047411E-009  0.9118800E+02  0.7815553E-02  0.1125453E+00
         25   -1    0    0    0    0  0.00000000000E+00  0.00000000000E+00  0.99999998245E-14  0.12509000000E+03  0.12509000000E+03 0.  0.
        -11    1    3    3    0    0  0.89651139696E+01  0.21878649947E+00  0.55546318022E+02  0.56265571908E+02  0.51100000000E-03 0. -1.
         23    2    1    0    0    0 -0.12067966134E+01 -0.18879511113E+02  0.28088051790E+02  0.91225107393E+02  0.84706488934E+02 0.  0.
         11    1    3    3    0    0 -0.10171910583E+02 -0.19098297612E+02 -0.27458266232E+02  0.34959535485E+02  0.51100000000E-03 0.  1.
         22    1    1    0    0    0  0.12067966134E+01  0.18879511113E+02 -0.28088051790E+02  0.33864892607E+02  0.00000000000E+00 0. -1.
</event>
<event>
 5    1  0.1047411E-009  0.9118800E+02  0.7815553E-02  0.1125453E+00
         25   -1    0    0    0    0  0.00000000000E+00  0.00000000000E+00  0.99999998245E-14  0.12509000000E+03  0.12509000000E+03 0.  0.
        -11    1    3    3    0    0  0.10746104990E+01 -0.58370008327E+02 -0.24152584663E+01  0.58429839410E+02  0.51100000000E-03 0. -1.
         23    2    1    0    0    0  0.71853616855E+01 -0.26475010814E+02  0.13409356872E+02  0.94555323452E+02  0.89489344177E+02 0.  0.
         11    1    3    3    0    0  0.61107511865E+01  0.31894997513E+02  0.15824615338E+02  0.36125484042E+02  0.51100000000E-03 0.  1.
         22    1    1    0    0    0 -0.71853616855E+01  0.26475010814E+02 -0.13409356872E+02  0.30534676548E+02  0.00000000000E+00 0. -1.
</event>
<event>
 5    1  0.1047411E-009  0.9118800E+02  0.7815553E-02  0.1125453E+00
         25   -1    0    0    0    0  0.00000000000E+00  0.00000000000E+00  0.99999998245E-14  0.12509000000E+03  0.12509000000E+03 0.  0.
        -11    1    3    3    0    0 -0.17636491930E+02 -0.37334176402E+02 -0.10135271275E+02  0.42516000509E+02  0.51100000000E-03 0.  1.
         23    2    1    0    0    0  0.15915476348E+01 -0.65870428266E+01  0.28670801775E+02  0.95629228939E+02  0.90978087450E+02 0.  0.
         11    1    3    3    0    0  0.19228039565E+02  0.30747133575E+02  0.38806073049E+02  0.53113228431E+02  0.51100000000E-03 0. -1.
         22    1    1    0    0    0 -0.15915476348E+01  0.65870428266E+01 -0.28670801775E+02  0.29460771061E+02  0.00000000000E+00 0. -1.
</event>
<event>
 5    1  0.1047411E-009  0.9118800E+02  0.7815553E-02  0.1125453E+00
         25   -1    0    0    0    0  0.00000000000E+00  0.00000000000E+00  0.99999998245E-14  0.12509000000E+03  0.12509000000E+03 0.  0.
        -11    1    3    3    0    0 -0.17205424482E+02 -0.52897949460E+02  0.10590478549E+02  0.56624887858E+02  0.51100000000E-03 0. -1.
         23    2    1    0    0    0  0.11673392049E+02 -0.24491466053E+02  0.44858810590E+01  0.97590488728E+02  0.93635892530E+02 0.  0.
         11    1    3    3    0    0  0.28878816532E+02  0.28406483408E+02 -0.61045974899E+01  0.40965600870E+02  0.51100000000E-03 0.  1.
         22    1    1    0    0    0 -0.11673392049E+02  0.24491466053E+02 -0.44858810590E+01  0.27499511272E+02  0.00000000000E+00 0. -1.
</event>
<event>
 5    1  0.1047411E-009  0.9118800E+02  0.7815553E-02  0.1125453E+00
         25   -1    0    0    0    0  0.00000000000E+00  0.00000000000E+00  0.99999998245E-14  0.12509000000E+03  0.12509000000E+03 0.  0.
        -11    1    3    3    0    0  0.66180283971E+01  0.60937452027E+02  0.93664779926E+01  0.62007275941E+02  0.51100000000E-03 0. -1.
         23    2    1    0    0    0 -0.19520685802E+01  0.30963602764E+02  0.22549052973E+01  0.93983089742E+02  0.88685857338E+02 0.  0.
         11    1    3    3    0    0 -0.85700969773E+01 -0.29973849262E+02 -0.71115726952E+01  0.31975813801E+02  0.51100000000E-03 0.  1.
         22    1    1    0    0    0  0.19520685802E+01 -0.30963602764E+02 -0.22549052973E+01  0.31106910258E+02  0.00000000000E+00 0. -1.
</event>
<event>
 5    1  0.1047411E-009  0.9118800E+02  0.7815553E-02  0.1125453E+00
         25   -1    0    0    0    0  0.00000000000E+00  0.00000000000E+00  0.99999998245E-14  0.12509000000E+03  0.12509000000E+03 0.  0.
        -11    1    3    3    0    0  0.54459549426E+02  0.16073704759E+02  0.17789096302E+02  0.59503432303E+02  0.51100000000E-03 0. -1.
         23    2    1    0    0    0  0.26872637574E+02  0.16605365335E+02 -0.19679565031E+01  0.93439570921E+02  0.87915890219E+02 0.  0.
         11    1    3    3    0    0 -0.27586911852E+02  0.53166057569E+00 -0.19757052805E+02  0.33936138618E+02  0.51100000000E-03 0.  1.
         22    1    1    0    0    0 -0.26872637574E+02 -0.16605365335E+02  0.19679565031E+01  0.31650429079E+02  0.00000000000E+00 0. -1.
</event>
<event>
 5    1  0.1047411E-009  0.9118800E+02  0.7815553E-02  0.1125453E+00
         25   -1    0    0    0    0  0.00000000000E+00  0.00000000000E+00  0.99999998245E-14  0.12509000000E+03  0.12509000000E+03 0.  0.
        -11    1    3    3    0    0  0.50701524194E+01  0.34909098543E+02  0.44748569883E+02  0.56980576634E+02  0.51100000000E-03 0.  1.
         23    2    1    0    0    0  0.19258051015E+02  0.82572574786E+01  0.21316423927E+02  0.95199453685E+02  0.90385237860E+02 0.  0.
         11    1    3    3    0    0  0.14187898596E+02 -0.26651841065E+02 -0.23432145957E+02  0.38218877052E+02  0.51100000000E-03 0. -1.
         22    1    1    0    0    0 -0.19258051015E+02 -0.82572574786E+01 -0.21316423927E+02  0.29890546315E+02  0.00000000000E+00 0.  1.
</event>
<event>
 5    1  0.1047411E-009  0.9118800E+02  0.7815553E-02  0.1125453E+00
         25   -1    0    0    0    0  0.00000000000E+00  0.00000000000E+00  0.99999998245E-14  0.12509000000E+03  0.12509000000E+03 0.  0.
        -11    1    3    3    0    0  0.16149073004E+02  0.95805963753E+01 -0.12500817272E+02  0.22557721926E+02  0.51100000000E-03 0. -1.
         23    2    1    0    0    0 -0.24439770522E+02 -0.23929917973E+02  0.21003871667E+02  0.84951415292E+02  0.74870801904E+02 0.  0.
         11    1    3    3    0    0 -0.40588843526E+02 -0.33510514348E+02  0.33504688939E+02  0.62393693366E+02  0.51100000000E-03 0.  1.
         22    1    1    0    0    0  0.24439770522E+02  0.23929917973E+02 -0.21003871667E+02  0.40138584708E+02  0.00000000000E+00 0.  1.
</event>
<event>
 5    1  0.1047411E-009  0.9118800E+02  0.7815553E-02  0.1125453E+00
         25   -1    0    0    0    0  0.00000000000E+00  0.00000000000E+00  0.99999998245E-14  0.12509000000E+03  0.12509000000E+03 0.  0.
        -11    1    3    3    0    0 -0.54059724513E+00  0.48860593627E+01  0.37121707290E+02  0.37445787131E+02  0.51100000000E-03 0. -1.
         23    2    1    0    0    0  0.14426452590E+02 -0.21449005489E+02 -0.13111849288E+02  0.96105470289E+02  0.91630554167E+02 0.  0.
         11    1    3    3    0    0  0.14967049835E+02 -0.26335064852E+02 -0.50233556578E+02  0.58659683158E+02  0.51100000000E-03 0.  1.
         22    1    1    0    0    0 -0.14426452590E+02  0.21449005489E+02  0.13111849288E+02  0.28984529711E+02  0.00000000000E+00 0.  1.
</event>
<event>
 5    1  0.1047411E-009  0.9118800E+02  0.7815553E-02  0.1125453E+00
         25   -1    0    0    0    0  0.00000000000E+00  0.00000000000E+00  0.99999998245E-14  0.12509000000E+03  0.12509000000E+03 0.  0.
        -11    1    3    3    0    0 -0.53039269153E+01 -0.33346930512E+01 -0.34814696811E+02  0.35373930129E+02  0.51100000000E-03 0.  1.
         23    2    1    0    0    0  0.11503365899E+02 -0.19811609472E+02  0.19778222196E+02  0.94824419382E+02  0.89864704646E+02 0.  0.
         11    1    3    3    0    0  0.16807292815E+02 -0.16476916421E+02  0.54592919007E+02  0.59450489253E+02  0.51100000000E-03 0. -1.
         22    1    1    0    0    0 -0.11503365899E+02  0.19811609472E+02 -0.19778222196E+02  0.30265580618E+02  0.00000000000E+00 0. -1.
</event>
<event>
 5    1  0.1047411E-009  0.9118800E+02  0.7815553E-02  0.1125453E+00
         25   -1    0    0    0    0  0.00000000000E+00  0.00000000000E+00  0.99999998245E-14  0.12509000000E+03  0.12509000000E+03 0.  0.
        -11    1    3    3    0    0  0.86839020716E+01 -0.30641461046E+02  0.22671746512E+02  0.39093700009E+02  0.51100000000E-03 0. -1.
         23    2    1    0    0    0  0.64088518537E+01 -0.65076187283E+01 -0.28201086826E+02  0.95446724511E+02  0.90726806612E+02 0.  0.
         11    1    3    3    0    0 -0.22750502179E+01  0.24133842317E+02 -0.50872833337E+02  0.56353024502E+02  0.51100000000E-03 0.  1.
         22    1    1    0    0    0 -0.64088518537E+01  0.65076187283E+01  0.28201086826E+02  0.29643275489E+02  0.00000000000E+00 0.  1.
</event>
<event>
 5    1  0.1047411E-009  0.9118800E+02  0.7815553E-02  0.1125453E+00
         25   -1    0    0    0    0  0.00000000000E+00  0.00000000000E+00  0.99999998245E-14  0.12509000000E+03  0.12509000000E+03 0.  0.
        -11    1    3    3    0    0  0.29469730999E+02  0.25615279288E+02  0.29236849088E+02  0.48779103344E+02  0.51100000000E-03 0. -1.
         23    2    1    0    0    0 -0.14915665909E+02  0.20919241677E+02  0.13194471027E+02  0.96207724682E+02  0.91770041195E+02 0.  0.
         11    1    3    3    0    0 -0.44385396908E+02 -0.46960376106E+01 -0.16042378062E+02  0.47428621338E+02  0.51100000000E-03 0.  1.
         22    1    1    0    0    0  0.14915665909E+02 -0.20919241677E+02 -0.13194471027E+02  0.28882275318E+02  0.00000000000E+00 0. -1.
</event>
<event>
 5    1  0.1047411E-009  0.9118800E+02  0.7815553E-02  0.1125453E+00
         25   -1    0    0    0    0  0.00000000000E+00  0.00000000000E+00  0.99999998245E-14  0.12509000000E+03  0.12509000000E+03 0.  0.
        -11    1    3    3    0    0 -0.21097140507E+02  0.11029231265E+02  0.53713754283E+02  0.58752878051E+02  0.51100000000E-03 0.  1.
         23    2    1    0    0    0 -0.79510549876E+01  0.19478249674E+02  0.19337149647E+02  0.96514716235E+02  0.92187545838E+02 0.  0.
         11    1    3    3    0    0  0.13146085519E+02  0.84490184091E+01 -0.34376604635E+02  0.37761838184E+02  0.51100000000E-03 0. -1.
         22    1    1    0    0    0  0.79510549876E+01 -0.19478249674E+02 -0.19337149647E+02  0.28575283765E+02  0.00000000000E+00 0.  1.
</event>
<event>
 5    1  0.1047411E-009  0.9118800E+02  0.7815553E-02  0.1125453E+00
         25   -1    0    0    0    0  0.00000000000E+00  0.00000000000E+00  0.99999998245E-14  0.12509000000E+03  0.12509000000E+03 0.  0.
        -11    1    3    3    0    0  0.36676460608E+02 -0.50119069442E+01  0.73982778370E+01  0.37749390580E+02  0.51100000000E-03 0. -1.
         23    2    1    0    0    0 -0.70783692916E+01  0.22903763854E+02 -0.17593135520E+02  0.95354429921E+02  0.90599465658E+02 0.  0.
         11    1    3    3    0    0 -0.43754829899E+02  0.27915670798E+02 -0.24991413357E+02  0.57605039341E+02  0.51100000000E-03 0.  1.
         22    1    1    0    0    0  0.70783692916E+01 -0.22903763854E+02  0.17593135520E+02  0.29735570079E+02  0.00000000000E+00 0.  1.
</event>
<event>
 5    1  0.1047411E-009  0.9118800E+02  0.7815553E-02  0.1125453E+00
         25   -1    0    0    0    0  0.00000000000E+00  0.00000000000E+00  0.99999998245E-14  0.12509000000E+03  0.12509000000E+03 0.  0.
        -11    1    3    3    0    0 -0.91331305138E+00 -0.39473706110E+02 -0.47910905685E+01  0.39773887965E+02  0.51100000000E-03 0.  1.
         23    2    1    0    0    0 -0.86637844120E+01  0.59972554971E+01  0.27207810772E+02  0.95913070744E+02  0.91367521246E+02 0.  0.
         11    1    3    3    0    0 -0.77504713606E+01  0.45470961607E+02  0.31998901340E+02  0.56139182778E+02  0.51100000000E-03 0. -1.
         22    1    1    0    0    0  0.86637844120E+01 -0.59972554971E+01 -0.27207810772E+02  0.29176929256E+02  0.00000000000E+00 0. -1.
</event>
<event>
 4    1  0.1047411E-009  0.9118800E+02  0.7815553E-02  0.1125453E+00
         25   -1    0    0    0    0  0.00000000000E+00  0.00000000000E+00  0.99999998245E-14  0.12509000000E+03  0.12509000000E+03 0.  0.
        -11    1    1    0    0    0  0.17157759105E+01  0.19426261666E+02  0.11395071161E+02  0.22586969171E+02  0.51100000000E-03 0.  1.
         11    1    1    0    0    0 -0.30163983823E+02 -0.26947561598E+02  0.30954929114E+02  0.50933727852E+02  0.51100000000E-03 0. -1.
         22    1    1    0    0    0  0.28448207913E+02  0.75212999318E+01 -0.42350000276E+02  0.51569302976E+02  0.00000000000E+00 0. -1.
</event>
<event>
 5    1  0.1047411E-009  0.9118800E+02  0.7815553E-02  0.1125453E+00
         25   -1    0    0    0    0  0.00000000000E+00  0.00000000000E+00  0.99999998245E-14  0.12509000000E+03  0.12509000000E+03 0.  0.
        -11    1    3    3    0    0 -0.29867070551E+02  0.27238358094E+02 -0.36301702416E+02  0.54330319836E+02  0.51100000000E-03 0. -1.
         23    2    1    0    0    0 -0.23657448272E+02  0.18036853537E+02  0.30192543332E+01  0.95188179972E+02  0.90369634089E+02 0.  0.
         11    1    3    3    0    0  0.62096222789E+01 -0.92015045569E+01  0.39320956749E+02  0.40857860136E+02  0.51100000000E-03 0.  1.
         22    1    1    0    0    0  0.23657448272E+02 -0.18036853537E+02 -0.30192543332E+01  0.29901820028E+02  0.00000000000E+00 0. -1.
</event>
<event>
 5    1  0.1047411E-009  0.9118800E+02  0.7815553E-02  0.1125453E+00
         25   -1    0    0    0    0  0.00000000000E+00  0.00000000000E+00  0.99999998245E-14  0.12509000000E+03  0.12509000000E+03 0.  0.
        -11    1    3    3    0    0  0.29119118148E+02  0.31838469008E+02 -0.16048694223E+02  0.46034462493E+02  0.51100000000E-03 0. -1.
         23    2    1    0    0    0  0.31581609768E+01 -0.81807213201E+01 -0.28447359853E+02  0.95321720495E+02  0.90554292739E+02 0.  0.
         11    1    3    3    0    0 -0.25960957171E+02 -0.40019190328E+02 -0.12398665630E+02  0.49287258002E+02  0.51100000000E-03 0.  1.
         22    1    1    0    0    0 -0.31581609768E+01  0.81807213201E+01  0.28447359853E+02  0.29768279505E+02  0.00000000000E+00 0.  1.
</event>
<event>
 5    1  0.1047411E-009  0.9118800E+02  0.7815553E-02  0.1125453E+00
         25   -1    0    0    0    0  0.00000000000E+00  0.00000000000E+00  0.99999998245E-14  0.12509000000E+03  0.12509000000E+03 0.  0.
        -11    1    3    3    0    0 -0.13600531531E+02 -0.49328764541E+01 -0.50180295140E+02  0.52224225688E+02  0.51100000000E-03 0. -1.
         23    2    1    0    0    0  0.15334594584E+02  0.11471744938E+02 -0.22864023385E+02  0.95265273876E+02  0.90476284840E+02 0.  0.
         11    1    3    3    0    0  0.28935126115E+02  0.16404621392E+02  0.27316271755E+02  0.43041048189E+02  0.51100000000E-03 0.  1.
         22    1    1    0    0    0 -0.15334594584E+02 -0.11471744938E+02  0.22864023385E+02  0.29824726124E+02  0.00000000000E+00 0. -1.
</event>
<event>
 5    1  0.1047411E-009  0.9118800E+02  0.7815553E-02  0.1125453E+00
         25   -1    0    0    0    0  0.00000000000E+00  0.00000000000E+00  0.99999998245E-14  0.12509000000E+03  0.12509000000E+03 0.  0.
        -11    1    3    3    0    0  0.23100579234E+02  0.33810450822E+02  0.46966611815E+02  0.62310881645E+02  0.51100000000E-03 0. -1.
         23    2    1    0    0    0  0.11617453424E+02  0.12893002282E+02  0.24350667898E+02  0.95187662985E+02  0.90368918471E+02 0.  0.
         11    1    3    3    0    0 -0.11483125810E+02 -0.20917448540E+02 -0.22615943917E+02  0.32876781340E+02  0.51100000000E-03 0.  1.
         22    1    1    0    0    0 -0.11617453424E+02 -0.12893002282E+02 -0.24350667898E+02  0.29902337015E+02  0.00000000000E+00 0. -1.
</event>
<event>
 5    1  0.1047411E-009  0.9118800E+02  0.7815553E-02  0.1125453E+00
         25   -1    0    0    0    0  0.00000000000E+00  0.00000000000E+00  0.99999998245E-14  0.12509000000E+03  0.12509000000E+03 0.  0.
        -11    1    3    3    0    0 -0.18559094225E+02  0.70887332638E+01  0.28580444205E+02  0.34807066940E+02  0.51100000000E-03 0. -1.
         23    2    1    0    0    0  0.19516142427E+02 -0.15718788836E+02 -0.14061064242E+02  0.96355462153E+02  0.91971198869E+02 0.  0.
         11    1    3    3    0    0  0.38075236652E+02 -0.22807522099E+02 -0.42641508447E+02  0.61548395213E+02  0.51100000000E-03 0.  1.
         22    1    1    0    0    0 -0.19516142427E+02  0.15718788836E+02  0.14061064242E+02  0.28734537847E+02  0.00000000000E+00 0.  1.
</event>
<event>
 5    1  0.1047411E-009  0.9118800E+02  0.7815553E-02  0.1125453E+00
         25   -1    0    0    0    0  0.00000000000E+00  0.00000000000E+00  0.99999998245E-14  0.12509000000E+03  0.12509000000E+03 0.  0.
        -11    1    3    3    0    0 -0.39156925277E+02  0.17467827722E+02 -0.28672632228E+01  0.42972211964E+02  0.51100000000E-03 0. -1.
         23    2    1    0    0    0 -0.20245081852E+00  0.18817072170E+02  0.27071152072E+02  0.92120764858E+02  0.86018979604E+02 0.  0.
         11    1    3    3    0    0  0.38954474458E+02  0.13492444478E+01  0.29938415294E+02  0.49148552893E+02  0.51100000000E-03 0.  1.
         22    1    1    0    0    0  0.20245081852E+00 -0.18817072170E+02 -0.27071152072E+02  0.32969235142E+02  0.00000000000E+00 0.  1.
</event>
<event>
 5    1  0.1047411E-009  0.9118800E+02  0.7815553E-02  0.1125453E+00
         25   -1    0    0    0    0  0.00000000000E+00  0.00000000000E+00  0.99999998245E-14  0.12509000000E+03  0.12509000000E+03 0.  0.
        -11    1    3    3    0    0  0.24877410441E+02 -0.73321328365E+01 -0.26606108849E+02  0.37155494217E+02  0.51100000000E-03 0. -1.
         23    2    1    0    0    0  0.74159675971E+01 -0.17305896547E+02  0.25721435862E+02  0.93213944825E+02  0.87594272737E+02 0.  0.
         11    1    3    3    0    0 -0.17461442844E+02 -0.99737637108E+01  0.52327544711E+02  0.56058450608E+02  0.51100000000E-03 0.  1.
         22    1    1    0    0    0 -0.74159675971E+01  0.17305896547E+02 -0.25721435862E+02  0.31876055175E+02  0.00000000000E+00 0.  1.
</event>
<event>
 5    1  0.1047411E-009  0.9118800E+02  0.7815553E-02  0.1125453E+00
         25   -1    0    0    0    0  0.00000000000E+00  0.00000000000E+00  0.99999998245E-14  0.12509000000E+03  0.12509000000E+03 0.  0.
        -11    1    3    3    0    0  0.19782210205E+02  0.40027923521E+02 -0.20694109147E+00  0.44649897277E+02  0.51100000000E-03 0.  1.
         23    2    1    0    0    0  0.27509745895E+02 -0.88063089676E+01 -0.89318031599E+01  0.94855676715E+02  0.89908203744E+02 0.  0.
         11    1    3    3    0    0  0.77275356896E+01 -0.48834232488E+02 -0.87248620685E+01  0.50205779437E+02  0.51100000000E-03 0. -1.
         22    1    1    0    0    0 -0.27509745895E+02  0.88063089676E+01  0.89318031599E+01  0.30234323285E+02  0.00000000000E+00 0. -1.
</event>
<event>
 5    1  0.1047411E-009  0.9118800E+02  0.7815553E-02  0.1125453E+00
         25   -1    0    0    0    0  0.00000000000E+00  0.00000000000E+00  0.99999998245E-14  0.12509000000E+03  0.12509000000E+03 0.  0.
        -11    1    3    3    0    0  0.17316259108E+02  0.51877146426E+02  0.25256867264E+02  0.60241186037E+02  0.51100000000E-03 0. -1.
         23    2    1    0    0    0 -0.30884337926E+01  0.28585841370E+02  0.11540697700E+02  0.94108127017E+02  0.88862045426E+02 0.  0.
         11    1    3    3    0    0 -0.20404692901E+02 -0.23291305056E+02 -0.13716169565E+02  0.33866940981E+02  0.51100000000E-03 0.  1.
         22    1    1    0    0    0  0.30884337926E+01 -0.28585841370E+02 -0.11540697700E+02  0.30981872983E+02  0.00000000000E+00 0. -1.
</event>
<event>
 5    1  0.1047411E-009  0.9118800E+02  0.7815553E-02  0.1125453E+00
         25   -1    0    0    0    0  0.00000000000E+00  0.00000000000E+00  0.99999998245E-14  0.12509000000E+03  0.12509000000E+03 0.  0.
        -11    1    3    3    0    0 -0.81295503370E+01  0.24870468355E+02 -0.29453987586E+02  0.39397552841E+02  0.51100000000E-03 0.  1.
         23    2    1    0    0    0  0.21228172263E+02 -0.18330654213E+02 -0.74907562877E+01  0.96059677727E+02  0.91568018837E+02 0.  0.
         11    1    3    3    0    0  0.29357722600E+02 -0.43201122567E+02  0.21963231298E+02  0.56662124887E+02  0.51100000000E-03 0. -1.
         22    1    1    0    0    0 -0.21228172263E+02  0.18330654213E+02  0.74907562877E+01  0.29030322273E+02  0.00000000000E+00 0. -1.
</event>
<event>
 5    1  0.1047411E-009  0.9118800E+02  0.7815553E-02  0.1125453E+00
         25   -1    0    0    0    0  0.00000000000E+00  0.00000000000E+00  0.99999998245E-14  0.12509000000E+03  0.12509000000E+03 0.  0.
        -11    1    3    3    0    0 -0.23500719076E+02 -0.23721511614E+02 -0.14635850297E+02  0.36458223003E+02  0.51100000000E-03 0.  1.
         23    2    1    0    0    0  0.11052588650E+02  0.24329766688E+02  0.29613592466E+01  0.98203815601E+02  0.94451693934E+02 0.  0.
         11    1    3    3    0    0  0.34553307727E+02  0.48051278302E+02  0.17597209544E+02  0.61745592598E+02  0.51100000000E-03 0. -1.
         22    1    1    0    0    0 -0.11052588650E+02 -0.24329766688E+02 -0.29613592466E+01  0.26886184399E+02  0.00000000000E+00 0. -1.
</event>
<event>
 5    1  0.1047411E-009  0.9118800E+02  0.7815553E-02  0.1125453E+00
         25   -1    0    0    0    0  0.00000000000E+00  0.00000000000E+00  0.99999998245E-14  0.12509000000E+03  0.12509000000E+03 0.  0.
        -11    1    3    3    0    0 -0.54027883614E+01 -0.22775140971E+02 -0.48576666088E+02  0.53922070220E+02  0.51100000000E-03 0. -1.
         23    2    1    0    0    0 -0.24181699444E+02 -0.10515290461E+02 -0.13732930340E+02  0.95359219701E+02  0.90606078630E+02 0.  0.
         11    1    3    3    0    0 -0.18778911083E+02  0.12259850510E+02  0.34843735748E+02  0.41437149481E+02  0.51100000000E-03 0.  1.
         22    1    1    0    0    0  0.24181699444E+02  0.10515290461E+02  0.13732930340E+02  0.29730780299E+02  0.00000000000E+00 0. -1.
</event>
<event>
 5    1  0.1047411E-009  0.9118800E+02  0.7815553E-02  0.1125453E+00
         25   -1    0    0    0    0  0.00000000000E+00  0.00000000000E+00  0.99999998245E-14  0.12509000000E+03  0.12509000000E+03 0.  0.
        -11    1    3    3    0    0 -0.35384209979E+01  0.41736833416E+00 -0.41042516144E+02  0.41196877930E+02  0.51100000000E-03 0. -1.
         23    2    1    0    0    0 -0.69547865723E+01 -0.22853470199E+02  0.11361776794E+02  0.98637398458E+02  0.95024187690E+02 0.  0.
         11    1    3    3    0    0 -0.34163655744E+01 -0.23270838534E+02  0.52404292939E+02  0.57440520528E+02  0.51100000000E-03 0.  1.
         22    1    1    0    0    0  0.69547865723E+01  0.22853470199E+02 -0.11361776794E+02  0.26452601542E+02  0.00000000000E+00 0.  1.
</event>
<event>
 5    1  0.1047411E-009  0.9118800E+02  0.7815553E-02  0.1125453E+00
         25   -1    0    0    0    0  0.00000000000E+00  0.00000000000E+00  0.99999998245E-14  0.12509000000E+03  0.12509000000E+03 0.  0.
        -11    1    3    3    0    0 -0.47576566617E+02 -0.19009383750E+02 -0.21539373775E+02  0.55577252401E+02  0.51100000000E-03 0.  1.
         23    2    1    0    0    0 -0.25423662938E+02 -0.10208721894E+02  0.10705159496E+02  0.95676039374E+02  0.91042426541E+02 0.  0.
         11    1    3    3    0    0  0.22152903679E+02  0.88006618556E+01  0.32244533271E+02  0.40098786972E+02  0.51100000000E-03 0. -1.
         22    1    1    0    0    0  0.25423662938E+02  0.10208721894E+02 -0.10705159496E+02  0.29413960626E+02  0.00000000000E+00 0.  1.
</event>
<event>
 5    1  0.1047411E-009  0.9118800E+02  0.7815553E-02  0.1125453E+00
         25   -1    0    0    0    0  0.00000000000E+00  0.00000000000E+00  0.99999998245E-14  0.12509000000E+03  0.12509000000E+03 0.  0.
        -11    1    3    3    0    0 -0.61832584412E+02 -0.72780174214E+01 -0.44363005542E+01  0.62417295644E+02  0.51100000000E-03 0. -1.
         23    2    1    0    0    0 -0.28396963842E+02 -0.27540573586E+01 -0.47959858361E+01  0.96159499356E+02  0.91704282610E+02 0.  0.
         11    1    3    3    0    0  0.33435620570E+02  0.45239600628E+01 -0.35968528188E+00  0.33742203712E+02  0.51100000000E-03 0.  1.
         22    1    1    0    0    0  0.28396963842E+02  0.27540573586E+01  0.47959858361E+01  0.28930500644E+02  0.00000000000E+00 0. -1.
</event>
<event>
 5    1  0.1047411E-009  0.9118800E+02  0.7815553E-02  0.1125453E+00
         25   -1    0    0    0    0  0.00000000000E+00  0.00000000000E+00  0.99999998245E-14  0.12509000000E+03  0.12509000000E+03 0.  0.
        -11    1    3    3    0    0 -0.59052214812E+01 -0.63380409033E+01  0.55525499443E+02  0.56197184021E+02  0.51100000000E-03 0. -1.
         23    2    1    0    0    0 -0.14678172634E+02 -0.18478938268E+02  0.22396649160E+02  0.92554944983E+02  0.86648070006E+02 0.  0.
         11    1    3    3    0    0 -0.87729511530E+01 -0.12140897364E+02 -0.33128850284E+02  0.36357760961E+02  0.51100000000E-03 0.  1.
         22    1    1    0    0    0  0.14678172634E+02  0.18478938268E+02 -0.22396649160E+02  0.32535055017E+02  0.00000000000E+00 0. -1.
</event>
<event>
 5    1  0.1047411E-009  0.9118800E+02  0.7815553E-02  0.1125453E+00
         25   -1    0    0    0    0  0.00000000000E+00  0.00000000000E+00  0.99999998245E-14  0.12509000000E+03  0.12509000000E+03 0.  0.
        -11    1    3    3    0    0 -0.13763518546E+02 -0.32851124166E+02 -0.12193272740E+02  0.37647134049E+02  0.51100000000E-03 0.  1.
         23    2    1    0    0    0 -0.37206484936E+00  0.19532931389E+02 -0.25147049312E+02  0.93245880763E+02  0.87639867351E+02 0.  0.
         11    1    3    3    0    0  0.13391453696E+02  0.52384055555E+02 -0.12953776571E+02  0.55598746714E+02  0.51100000000E-03 0. -1.
         22    1    1    0    0    0  0.37206484936E+00 -0.19532931389E+02  0.25147049312E+02  0.31844119237E+02  0.00000000000E+00 0. -1.
</event>
<event>
 5    1  0.1047411E-009  0.9118800E+02  0.7815553E-02  0.1125453E+00
         25   -1    0    0    0    0  0.00000000000E+00  0.00000000000E+00  0.99999998245E-14  0.12509000000E+03  0.12509000000E+03 0.  0.
        -11    1    3    3    0    0  0.68089287221E+01 -0.44433469135E+02  0.79355438194E+01  0.45647207425E+02  0.51100000000E-03 0.  1.
         23    2    1    0    0    0 -0.27334194966E+02 -0.67989291270E+01  0.13018556848E+01  0.96892863976E+02  0.92699237373E+02 0.  0.
         11    1    3    3    0    0 -0.34143123688E+02  0.37634540008E+02 -0.66336881346E+01  0.51245656551E+02  0.51100000000E-03 0. -1.
         22    1    1    0    0    0  0.27334194966E+02  0.67989291270E+01 -0.13018556848E+01  0.28197136024E+02  0.00000000000E+00 0.  1.
</event>
<event>
 5    1  0.1047411E-009  0.9118800E+02  0.7815553E-02  0.1125453E+00
         25   -1    0    0    0    0  0.00000000000E+00  0.00000000000E+00  0.99999998245E-14  0.12509000000E+03  0.12509000000E+03 0.  0.
        -11    1    3    3    0    0  0.31717771578E+01  0.29257511587E+02 -0.13639884070E+02  0.32436223459E+02  0.51100000000E-03 0.  1.
         23    2    1    0    0    0 -0.16913991885E+02 -0.12964912063E+02  0.24386438652E+02  0.92703730434E+02  0.86862599431E+02 0.  0.
         11    1    3    3    0    0 -0.20085769043E+02 -0.42222423650E+02  0.38026322721E+02  0.60267506975E+02  0.51100000000E-03 0. -1.
         22    1    1    0    0    0  0.16913991885E+02  0.12964912063E+02 -0.24386438652E+02  0.32386269566E+02  0.00000000000E+00 0. -1.
</event>
<event>
 5    1  0.1047411E-009  0.9118800E+02  0.7815553E-02  0.1125453E+00
         25   -1    0    0    0    0  0.00000000000E+00  0.00000000000E+00  0.99999998245E-14  0.12509000000E+03  0.12509000000E+03 0.  0.
        -11    1    3    3    0    0  0.20772843315E+02  0.31333858107E+02 -0.38089505506E+01  0.37786635042E+02  0.51100000000E-03 0.  1.
         23    2    1    0    0    0 -0.16548266884E+02 -0.40589416568E+01  0.23532437376E+02  0.96036673975E+02  0.91536588286E+02 0.  0.
         11    1    3    3    0    0 -0.37321110199E+02 -0.35392799764E+02  0.27341387927E+02  0.58250038933E+02  0.51100000000E-03 0. -1.
         22    1    1    0    0    0  0.16548266884E+02  0.40589416568E+01 -0.23532437376E+02  0.29053326025E+02  0.00000000000E+00 0. -1.
</event>
<event>
 5    1  0.1047411E-009  0.9118800E+02  0.7815553E-02  0.1125453E+00
         25   -1    0    0    0    0  0.00000000000E+00  0.00000000000E+00  0.99999998245E-14  0.12509000000E+03  0.12509000000E+03 0.  0.
        -11    1    3    3    0    0 -0.17401506988E+02  0.28850227496E+01  0.27668609746E+02  0.32812920736E+02  0.51100000000E-03 0. -1.
         23    2    1    0    0    0  0.82617358248E+01 -0.10456368039E+02 -0.27178945318E+02  0.94819767427E+02  0.89858228978E+02 0.  0.
         11    1    3    3    0    0  0.25663242813E+02 -0.13341390788E+02 -0.54847555064E+02  0.62006846691E+02  0.51100000000E-03 0.  1.
         22    1    1    0    0    0 -0.82617358248E+01  0.10456368039E+02  0.27178945318E+02  0.30270232573E+02  0.00000000000E+00 0.  1.
</event>
<event>
 5    1  0.1047411E-009  0.9118800E+02  0.7815553E-02  0.1125453E+00
         25   -1    0    0    0    0  0.00000000000E+00  0.00000000000E+00  0.99999998245E-14  0.12509000000E+03  0.12509000000E+03 0.  0.
        -11    1    3    3    0    0 -0.22243585086E+02 -0.47773062258E+02  0.29513103653E+02  0.60399220545E+02  0.51100000000E-03 0.  1.
         23    2    1    0    0    0 -0.46991220893E+01 -0.17837437667E+02  0.22837353763E+02  0.95733558495E+02  0.91121422093E+02 0.  0.
         11    1    3    3    0    0  0.17544462997E+02  0.29935624591E+02 -0.66757498898E+01  0.35334337950E+02  0.51100000000E-03 0. -1.
         22    1    1    0    0    0  0.46991220893E+01  0.17837437667E+02 -0.22837353763E+02  0.29356441505E+02  0.00000000000E+00 0.  1.
</event>
<event>
 5    1  0.1047411E-009  0.9118800E+02  0.7815553E-02  0.1125453E+00
         25   -1    0    0    0    0  0.00000000000E+00  0.00000000000E+00  0.99999998245E-14  0.12509000000E+03  0.12509000000E+03 0.  0.
        -11    1    3    3    0    0  0.33018620647E+02  0.44982601682E+02 -0.24432534105E+02  0.60914796943E+02  0.51100000000E-03 0.  1.
         23    2    1    0    0    0  0.12245840700E+02  0.16168507286E+02 -0.19814827932E+02  0.96734953743E+02  0.92485905020E+02 0.  0.
         11    1    3    3    0    0 -0.20772779947E+02 -0.28814094397E+02  0.46177061735E+01  0.35820156800E+02  0.51100000000E-03 0. -1.
         22    1    1    0    0    0 -0.12245840700E+02 -0.16168507286E+02  0.19814827932E+02  0.28355046257E+02  0.00000000000E+00 0.  1.
</event>
<event>
 5    1  0.1047411E-009  0.9118800E+02  0.7815553E-02  0.1125453E+00
         25   -1    0    0    0    0  0.00000000000E+00  0.00000000000E+00  0.99999998245E-14  0.12509000000E+03  0.12509000000E+03 0.  0.
        -11    1    3    3    0    0  0.20107713202E+02  0.27856807906E+02  0.10989678331E+02  0.36070693188E+02  0.51100000000E-03 0.  1.
         23    2    1    0    0    0 -0.15449831907E+02  0.54504453399E+01 -0.27512551024E+02  0.93068989331E+02  0.87387022211E+02 0.  0.
         11    1    3    3    0    0 -0.35557545110E+02 -0.22406362567E+02 -0.38502229355E+02  0.56998296144E+02  0.51100000000E-03 0. -1.
         22    1    1    0    0    0  0.15449831907E+02 -0.54504453399E+01  0.27512551024E+02  0.32021010669E+02  0.00000000000E+00 0. -1.
</event>
<event>
 5    1  0.1047411E-009  0.9118800E+02  0.7815553E-02  0.1125453E+00
         25   -1    0    0    0    0  0.00000000000E+00  0.00000000000E+00  0.99999998245E-14  0.12509000000E+03  0.12509000000E+03 0.  0.
        -11    1    3    3    0    0  0.53400858517E+01 -0.28626556416E+02  0.40198864187E+02  0.49638139886E+02  0.51100000000E-03 0.  1.
         23    2    1    0    0    0 -0.19422683137E+01 -0.28408009140E+02 -0.56485413617E+01  0.96060817975E+02  0.91569576503E+02 0.  0.
         11    1    3    3    0    0 -0.72823541654E+01  0.21854727527E+00 -0.45847405549E+02  0.46422678089E+02  0.51100000000E-03 0. -1.
         22    1    1    0    0    0  0.19422683137E+01  0.28408009140E+02  0.56485413617E+01  0.29029182025E+02  0.00000000000E+00 0.  1.
</event>
<event>
 5    1  0.1047411E-009  0.9118800E+02  0.7815553E-02  0.1125453E+00
         25   -1    0    0    0    0  0.00000000000E+00  0.00000000000E+00  0.99999998245E-14  0.12509000000E+03  0.12509000000E+03 0.  0.
        -11    1    3    3    0    0  0.23961924344E+02 -0.52907597044E+02  0.75210995124E+01  0.58565814102E+02  0.51100000000E-03 0.  1.
         23    2    1    0    0    0  0.24237699171E+02 -0.16070754979E+02  0.89613129341E+00  0.95994669137E+02  0.91479168256E+02 0.  0.
         11    1    3    3    0    0  0.27577482733E+00  0.36836842065E+02 -0.66249682190E+01  0.37428855035E+02  0.51100000000E-03 0. -1.
         22    1    1    0    0    0 -0.24237699171E+02  0.16070754979E+02 -0.89613129341E+00  0.29095330863E+02  0.00000000000E+00 0.  1.
</event>
<event>
 5    1  0.1047411E-009  0.9118800E+02  0.7815553E-02  0.1125453E+00
         25   -1    0    0    0    0  0.00000000000E+00  0.00000000000E+00  0.99999998245E-14  0.12509000000E+03  0.12509000000E+03 0.  0.
        -11    1    3    3    0    0  0.29316623751E+02 -0.24557550333E+02  0.61333799628E+00  0.38248057340E+02  0.51100000000E-03 0. -1.
         23    2    1    0    0    0  0.40238451996E+01  0.27241924044E+02  0.81219805860E+01  0.96379717443E+02  0.92004182568E+02 0.  0.
         11    1    3    3    0    0 -0.25292778551E+02  0.51799474378E+02  0.75086425897E+01  0.58131660104E+02  0.51100000000E-03 0.  1.
         22    1    1    0    0    0 -0.40238451996E+01 -0.27241924044E+02 -0.81219805860E+01  0.28710282557E+02  0.00000000000E+00 0.  1.
</event>
<event>
 5    1  0.1047411E-009  0.9118800E+02  0.7815553E-02  0.1125453E+00
         25   -1    0    0    0    0  0.00000000000E+00  0.00000000000E+00  0.99999998245E-14  0.12509000000E+03  0.12509000000E+03 0.  0.
        -11    1    3    3    0    0  0.47063346522E+02 -0.31979900091E+00 -0.38606612037E+00  0.47066016451E+02  0.51100000000E-03 0. -1.
         23    2    1    0    0    0  0.83438876154E+01  0.27272515110E+02  0.82748351940E+01  0.95393477671E+02  0.90653362561E+02 0.  0.
         11    1    3    3    0    0 -0.38719458907E+02  0.27592314111E+02  0.86609013144E+01  0.48327461219E+02  0.51100000000E-03 0.  1.
         22    1    1    0    0    0 -0.83438876154E+01 -0.27272515110E+02 -0.82748351940E+01  0.29696522329E+02  0.00000000000E+00 0.  1.
</event>
<event>
 5    1  0.1047411E-009  0.9118800E+02  0.7815553E-02  0.1125453E+00
         25   -1    0    0    0    0  0.00000000000E+00  0.00000000000E+00  0.99999998245E-14  0.12509000000E+03  0.12509000000E+03 0.  0.
        -11    1    3    3    0    0 -0.11422493142E+01  0.10983440840E+02  0.58852434829E+02  0.59879460516E+02  0.51100000000E-03 0.  1.
         23    2    1    0    0    0  0.12287900783E+02  0.41447260953E+01  0.25355728978E+02  0.96610459062E+02  0.92317368615E+02 0.  0.
         11    1    3    3    0    0  0.13430150098E+02 -0.68387147447E+01 -0.33496705851E+02  0.36730998546E+02  0.51100000000E-03 0. -1.
         22    1    1    0    0    0 -0.12287900783E+02 -0.41447260953E+01 -0.25355728978E+02  0.28479540938E+02  0.00000000000E+00 0.  1.
</event>
<event>
 5    1  0.1047411E-009  0.9118800E+02  0.7815553E-02  0.1125453E+00
         25   -1    0    0    0    0  0.00000000000E+00  0.00000000000E+00  0.99999998245E-14  0.12509000000E+03  0.12509000000E+03 0.  0.
        -11    1    3    3    0    0  0.25997200648E+02  0.43544679240E+02 -0.18007649700E+02  0.53816995268E+02  0.51100000000E-03 0. -1.
         23    2    1    0    0    0 -0.10868652689E+02  0.25898277986E+02 -0.70318101433E+01  0.96136679502E+02  0.91673149711E+02 0.  0.
         11    1    3    3    0    0 -0.36865853338E+02 -0.17646401254E+02  0.10975839556E+02  0.42319684235E+02  0.51100000000E-03 0.  1.
         22    1    1    0    0    0  0.10868652689E+02 -0.25898277986E+02  0.70318101433E+01  0.28953320498E+02  0.00000000000E+00 0. -1.
</event>
<event>
 4    1  0.1047411E-009  0.9118800E+02  0.7815553E-02  0.1125453E+00
         25   -1    0    0    0    0  0.00000000000E+00  0.00000000000E+00  0.99999998245E-14  0.12509000000E+03  0.12509000000E+03 0.  0.
        -11    1    1    0    0    0 -0.30527583035E+01 -0.10476787561E+02 -0.79785342894E+01  0.13518114533E+02  0.51100000000E-03 0. -1.
         11    1    1    0    0    0 -0.43290259856E+02  0.15659299982E+02  0.34861612018E+02  0.57745928576E+02  0.51100000000E-03 0.  1.
         22    1    1    0    0    0  0.46343018159E+02 -0.51825124210E+01 -0.26883077729E+02  0.53825956891E+02  0.00000000000E+00 0.  1.
</event>
<event>
 5    1  0.1047411E-009  0.9118800E+02  0.7815553E-02  0.1125453E+00
         25   -1    0    0    0    0  0.00000000000E+00  0.00000000000E+00  0.99999998245E-14  0.12509000000E+03  0.12509000000E+03 0.  0.
        -11    1    3    3    0    0  0.10261251611E+02  0.28609734930E+02 -0.15741978891E+02  0.34228936838E+02  0.51100000000E-03 0. -1.
         23    2    1    0    0    0 -0.19789862511E+02 -0.12083419689E+02  0.18594341320E+02  0.95368001098E+02  0.90618201344E+02 0.  0.
         11    1    3    3    0    0 -0.30051114122E+02 -0.40693154619E+02  0.34336320210E+02  0.61139064261E+02  0.51100000000E-03 0.  1.
         22    1    1    0    0    0  0.19789862511E+02  0.12083419689E+02 -0.18594341320E+02  0.29721998902E+02  0.00000000000E+00 0.  1.
</event>
<event>
 5    1  0.1047411E-009  0.9118800E+02  0.7815553E-02  0.1125453E+00
         25   -1    0    0    0    0  0.00000000000E+00  0.00000000000E+00  0.99999998245E-14  0.12509000000E+03  0.12509000000E+03 0.  0.
        -11    1    3    3    0    0 -0.17714090706E+02  0.33334531071E+02  0.24525602937E+02  0.45016498875E+02  0.51100000000E-03 0. -1.
         23    2    1    0    0    0 -0.21972589212E+02 -0.15699061848E+02  0.84002797353E+01  0.96808912341E+02  0.92585882236E+02 0.  0.
         11    1    3    3    0    0 -0.42584985057E+01 -0.49033592918E+02 -0.16125323202E+02  0.51792413466E+02  0.51100000000E-03 0.  1.
         22    1    1    0    0    0  0.21972589212E+02  0.15699061848E+02 -0.84002797353E+01  0.28281087659E+02  0.00000000000E+00 0.  1.
</event>
<event>
 5    1  0.1047411E-009  0.9118800E+02  0.7815553E-02  0.1125453E+00
         25   -1    0    0    0    0  0.00000000000E+00  0.00000000000E+00  0.99999998245E-14  0.12509000000E+03  0.12509000000E+03 0.  0.
        -11    1    3    3    0    0  0.34393284008E+02  0.12341314095E+02 -0.57903375610E+01  0.36996405606E+02  0.51100000000E-03 0.  1.
         23    2    1    0    0    0 -0.23296122449E+02  0.64933543766E+01 -0.16299185070E+02  0.95926042687E+02  0.91385279227E+02 0.  0.
         11    1    3    3    0    0 -0.57689406457E+02 -0.58479597185E+01 -0.10508847509E+02  0.58929637081E+02  0.51100000000E-03 0. -1.
         22    1    1    0    0    0  0.23296122449E+02 -0.64933543766E+01  0.16299185070E+02  0.29163957313E+02  0.00000000000E+00 0. -1.
</event>
<event>
 5    1  0.1047411E-009  0.9118800E+02  0.7815553E-02  0.1125453E+00
         25   -1    0    0    0    0  0.00000000000E+00  0.00000000000E+00  0.99999998245E-14  0.12509000000E+03  0.12509000000E+03 0.  0.
        -11    1    3    3    0    0 -0.28231321478E+02  0.19134010024E+02 -0.14198186802E+02  0.36941932282E+02  0.51100000000E-03 0.  1.
         23    2    1    0    0    0  0.24608620776E+02  0.15516925423E+02  0.88184357445E+01  0.94690592111E+02  0.89678226088E+02 0.  0.
         11    1    3    3    0    0  0.52839942253E+02 -0.36170846016E+01  0.23016622546E+02  0.57748659829E+02  0.51100000000E-03 0. -1.
         22    1    1    0    0    0 -0.24608620776E+02 -0.15516925423E+02 -0.88184357445E+01  0.30399407889E+02  0.00000000000E+00 0. -1.
</event>
<event>
 5    1  0.1047411E-009  0.9118800E+02  0.7815553E-02  0.1125453E+00
         25   -1    0    0    0    0  0.00000000000E+00  0.00000000000E+00  0.99999998245E-14  0.12509000000E+03  0.12509000000E+03 0.  0.
        -11    1    3    3    0    0  0.38266103851E+02  0.37387101191E+02  0.13911323104E+01  0.53516588912E+02  0.51100000000E-03 0.  1.
         23    2    1    0    0    0  0.99502697918E+01  0.17755020691E+02 -0.21966866300E+02  0.95143517006E+02  0.90307790276E+02 0.  0.
         11    1    3    3    0    0 -0.28315834059E+02 -0.19632080500E+02 -0.23357998610E+02  0.41626928094E+02  0.51100000000E-03 0. -1.
         22    1    1    0    0    0 -0.99502697918E+01 -0.17755020691E+02  0.21966866300E+02  0.29946482994E+02  0.00000000000E+00 0. -1.
</event>
<event>
 5    1  0.1047411E-009  0.9118800E+02  0.7815553E-02  0.1125453E+00
         25   -1    0    0    0    0  0.00000000000E+00  0.00000000000E+00  0.99999998245E-14  0.12509000000E+03  0.12509000000E+03 0.  0.
        -11    1    3    3    0    0  0.36051439169E+02  0.72031320366E+00  0.49123978014E+02  0.60937593761E+02  0.51100000000E-03 0.  1.
         23    2    1    0    0    0  0.72609217292E+01  0.59011790287E+00  0.26652394491E+02  0.97459955562E+02  0.93461348068E+02 0.  0.
         11    1    3    3    0    0 -0.28790517440E+02 -0.13019530080E+00 -0.22471583522E+02  0.36522361801E+02  0.51100000000E-03 0. -1.
         22    1    1    0    0    0 -0.72609217292E+01 -0.59011790287E+00 -0.26652394491E+02  0.27630044438E+02  0.00000000000E+00 0.  1.
</event>
<event>
 5    1  0.1047411E-009  0.9118800E+02  0.7815553E-02  0.1125453E+00
         25   -1    0    0    0    0  0.00000000000E+00  0.00000000000E+00  0.99999998245E-14  0.12509000000E+03  0.12509000000E+03 0.  0.
        -11    1    3    3    0    0 -0.23909487745E+02  0.44239599823E+02 -0.13098047298E+02  0.51965032858E+02  0.51100000000E-03 0.  1.
         23    2    1    0    0    0  0.11796452571E+02  0.26494636336E+02  0.48404426932E+01  0.95686736009E+02  0.91057122263E+02 0.  0.
         11    1    3    3    0    0  0.35705940316E+02 -0.17744963487E+02  0.17938489991E+02  0.43721703151E+02  0.51100000000E-03 0. -1.
         22    1    1    0    0    0 -0.11796452571E+02 -0.26494636336E+02 -0.48404426932E+01  0.29403263991E+02  0.00000000000E+00 0.  1.
</event>
<event>
 5    1  0.1047411E-009  0.9118800E+02  0.7815553E-02  0.1125453E+00
         25   -1    0    0    0    0  0.00000000000E+00  0.00000000000E+00  0.99999998245E-14  0.12509000000E+03  0.12509000000E+03 0.  0.
        -11    1    3    3    0    0  0.29496424452E+02 -0.18634031730E+02  0.20668774909E+02  0.40551996874E+02  0.51100000000E-03 0.  1.
         23    2    1    0    0    0 -0.20442420734E+00 -0.12322530667E+02 -0.26050392953E+02  0.96271437851E+02  0.91856846351E+02 0.  0.
         11    1    3    3    0    0 -0.29700848659E+02  0.63115010626E+01 -0.46719167863E+02  0.55719440977E+02  0.51100000000E-03 0. -1.
         22    1    1    0    0    0  0.20442420734E+00  0.12322530667E+02  0.26050392953E+02  0.28818562149E+02  0.00000000000E+00 0. -1.
</event>
<event>
 5    1  0.1047411E-009  0.9118800E+02  0.7815553E-02  0.1125453E+00
         25   -1    0    0    0    0  0.00000000000E+00  0.00000000000E+00  0.99999998245E-14  0.12509000000E+03  0.12509000000E+03 0.  0.
        -11    1    3    3    0    0 -0.49758938425E+02 -0.19668413120E+02  0.30861052122E+02  0.61767329278E+02  0.51100000000E-03 0.  1.
         23    2    1    0    0    0 -0.22563173497E+02 -0.43780646558E+01  0.19425822273E+02  0.94996365800E+02  0.90103732973E+02 0.  0.
         11    1    3    3    0    0  0.27195764928E+02  0.15290348464E+02 -0.11435229849E+02  0.33229036521E+02  0.51100000000E-03 0. -1.
         22    1    1    0    0    0  0.22563173497E+02  0.43780646558E+01 -0.19425822273E+02  0.30093634200E+02  0.00000000000E+00 0.  1.
</event>
<event>
 5    1  0.1047411E-009  0.9118800E+02  0.7815553E-02  0.1125453E+00
         25   -1    0    0    0    0  0.00000000000E+00  0.00000000000E+00  0.99999998245E-14  0.12509000000E+03  0.12509000000E+03 0.  0.
        -11    1    3    3    0    0 -0.31529171550E+02  0.34847643245E+02  0.24950637915E+02  0.53206966000E+02  0.51100000000E-03 0.  1.
         23    2    1    0    0    0 -0.20847201195E+02 -0.61369782980E+01  0.19466704842E+02  0.95914309817E+02  0.91369217628E+02 0.  0.
         11    1    3    3    0    0  0.10681970355E+02 -0.40984621543E+02 -0.54839330731E+01  0.42707343817E+02  0.51100000000E-03 0. -1.
         22    1    1    0    0    0  0.20847201195E+02  0.61369782980E+01 -0.19466704842E+02  0.29175690183E+02  0.00000000000E+00 0.  1.
</event>
<event>
 5    1  0.1047411E-009  0.9118800E+02  0.7815553E-02  0.1125453E+00
         25   -1    0    0    0    0  0.00000000000E+00  0.00000000000E+00  0.99999998245E-14  0.12509000000E+03  0.12509000000E+03 0.  0.
        -11    1    3    3    0    0 -0.35859656875E+02 -0.48882189255E+02 -0.85077671424E+00  0.60630909929E+02  0.51100000000E-03 0.  1.
         23    2    1    0    0    0 -0.11750232599E+02 -0.26353276304E+02  0.86473366067E+01  0.94967922242E+02  0.90064236445E+02 0.  0.
         11    1    3    3    0    0  0.24109424276E+02  0.22528912951E+02  0.94981133209E+01  0.34337012313E+02  0.51100000000E-03 0. -1.
         22    1    1    0    0    0  0.11750232599E+02  0.26353276304E+02 -0.86473366067E+01  0.30122077758E+02  0.00000000000E+00 0.  1.
</event>
<event>
 5    1  0.1047411E-009  0.9118800E+02  0.7815553E-02  0.1125453E+00
         25   -1    0    0    0    0  0.00000000000E+00  0.00000000000E+00  0.99999998245E-14  0.12509000000E+03  0.12509000000E+03 0.  0.
        -11    1    3    3    0    0 -0.93195020909E+01 -0.52335086459E+02  0.16009744671E+02  0.55516901197E+02  0.51100000000E-03 0.  1.
         23    2    1    0    0    0  0.16347271074E+02 -0.24058037012E+02  0.30528506744E+01  0.95843764111E+02  0.91272585179E+02 0.  0.
         11    1    3    3    0    0  0.25666773165E+02  0.28277049446E+02 -0.12956893997E+02  0.40326862913E+02  0.51100000000E-03 0. -1.
         22    1    1    0    0    0 -0.16347271074E+02  0.24058037012E+02 -0.30528506744E+01  0.29246235889E+02  0.00000000000E+00 0.  1.
</event>
<event>
 5    1  0.1047411E-009  0.9118800E+02  0.7815553E-02  0.1125453E+00
         25   -1    0    0    0    0  0.00000000000E+00  0.00000000000E+00  0.99999998245E-14  0.12509000000E+03  0.12509000000E+03 0.  0.
        -11    1    3    3    0    0 -0.24903634599E+02 -0.39938827180E+02  0.87564828285E+01  0.47874595816E+02  0.51100000000E-03 0. -1.
         23    2    1    0    0    0  0.11445139966E+02 -0.21902196175E+02 -0.16226570416E+02  0.95526525685E+02  0.90836766211E+02 0.  0.
         11    1    3    3    0    0  0.36348774566E+02  0.18036631006E+02 -0.24983053245E+02  0.47651929868E+02  0.51100000000E-03 0.  1.
         22    1    1    0    0    0 -0.11445139966E+02  0.21902196175E+02  0.16226570416E+02  0.29563474315E+02  0.00000000000E+00 0. -1.
</event>
<event>
 5    1  0.1047411E-009  0.9118800E+02  0.7815553E-02  0.1125453E+00
         25   -1    0    0    0    0  0.00000000000E+00  0.00000000000E+00  0.99999998245E-14  0.12509000000E+03  0.12509000000E+03 0.  0.
        -11    1    3    3    0    0  0.91143479661E+01 -0.57818434525E+02  0.17293914525E+02  0.61033779087E+02  0.51100000000E-03 0. -1.
         23    2    1    0    0    0 -0.48074487468E+01 -0.31437315631E+02  0.10154134134E+02  0.91705530294E+02  0.85413005268E+02 0.  0.
         11    1    3    3    0    0 -0.13921796713E+02  0.26381118894E+02 -0.71397803908E+01  0.30671751207E+02  0.51100000000E-03 0.  1.
         22    1    1    0    0    0  0.48074487468E+01  0.31437315631E+02 -0.10154134134E+02  0.33384469706E+02  0.00000000000E+00 0. -1.
</event>
<event>
 5    1  0.1047411E-009  0.9118800E+02  0.7815553E-02  0.1125453E+00
         25   -1    0    0    0    0  0.00000000000E+00  0.00000000000E+00  0.99999998245E-14  0.12509000000E+03  0.12509000000E+03 0.  0.
        -11    1    3    3    0    0  0.77339151880E+01  0.45716818828E+02 -0.39800887388E+02  0.61106068479E+02  0.51100000000E-03 0.  1.
         23    2    1    0    0    0  0.92080061375E+01  0.13678659691E+02 -0.21373966618E+02  0.98094823450E+02  0.94307236365E+02 0.  0.
         11    1    3    3    0    0  0.14740909495E+01 -0.32038159136E+02  0.18426920770E+02  0.36988754971E+02  0.51100000000E-03 0. -1.
         22    1    1    0    0    0 -0.92080061375E+01 -0.13678659691E+02  0.21373966618E+02  0.26995176550E+02  0.00000000000E+00 0.  1.
</event>
<event>
 5    1  0.1047411E-009  0.9118800E+02  0.7815553E-02  0.1125453E+00
         25   -1    0    0    0    0  0.00000000000E+00  0.00000000000E+00  0.99999998245E-14  0.12509000000E+03  0.12509000000E+03 0.  0.
        -11    1    3    3    0    0  0.37535279024E+01  0.20261562568E+02  0.54138135251E+02  0.57927174782E+02  0.51100000000E-03 0.  1.
         23    2    1    0    0    0  0.85829346612E+00 -0.68916050547E+01  0.29752301328E+02  0.94537908055E+02  0.89464997274E+02 0.  0.
         11    1    3    3    0    0 -0.28952344362E+01 -0.27153167623E+02 -0.24385833923E+02  0.36610733273E+02  0.51100000000E-03 0. -1.
         22    1    1    0    0    0 -0.85829346612E+00  0.68916050547E+01 -0.29752301328E+02  0.30552091945E+02  0.00000000000E+00 0.  1.
</event>
<event>
 5    1  0.1047411E-009  0.9118800E+02  0.7815553E-02  0.1125453E+00
         25   -1    0    0    0    0  0.00000000000E+00  0.00000000000E+00  0.99999998245E-14  0.12509000000E+03  0.12509000000E+03 0.  0.
        -11    1    3    3    0    0  0.46105476705E+02 -0.98420140958E+01  0.24465529834E+02  0.53114427174E+02  0.51100000000E-03 0. -1.
         23    2    1    0    0    0  0.40459879798E+01 -0.87540137120E+01  0.28135380853E+02  0.95347733265E+02  0.90590219164E+02 0.  0.
         11    1    3    3    0    0 -0.42059488725E+02  0.10880003839E+01  0.36698510186E+01  0.42233306091E+02  0.51100000000E-03 0.  1.
         22    1    1    0    0    0 -0.40459879798E+01  0.87540137120E+01 -0.28135380853E+02  0.29742266735E+02  0.00000000000E+00 0. -1.
</event>
<event>
 5    1  0.1047411E-009  0.9118800E+02  0.7815553E-02  0.1125453E+00
         25   -1    0    0    0    0  0.00000000000E+00  0.00000000000E+00  0.99999998245E-14  0.12509000000E+03  0.12509000000E+03 0.  0.
        -11    1    3    3    0    0  0.41103265640E+02 -0.26096290327E+02  0.23443514541E+02  0.54037886611E+02  0.51100000000E-03 0. -1.
         23    2    1    0    0    0  0.18920175678E+02  0.41121106746E+00  0.30385488287E+02  0.89293072189E+02  0.81803622783E+02 0.  0.
         11    1    3    3    0    0 -0.22183089962E+02  0.26507501394E+02  0.69419737460E+01  0.35255185578E+02  0.51100000000E-03 0.  1.
         22    1    1    0    0    0 -0.18920175678E+02 -0.41121106746E+00 -0.30385488287E+02  0.35796927811E+02  0.00000000000E+00 0. -1.
</event>
<event>
 5    1  0.1047411E-009  0.9118800E+02  0.7815553E-02  0.1125453E+00
         25   -1    0    0    0    0  0.00000000000E+00  0.00000000000E+00  0.99999998245E-14  0.12509000000E+03  0.12509000000E+03 0.  0.
        -11    1    3    3    0    0  0.18583630997E+02  0.10826406530E+02 -0.41118870315E+02  0.46403921339E+02  0.51100000000E-03 0. -1.
         23    2    1    0    0    0 -0.15407320246E+01  0.32268645475E+02 -0.59602474134E+01  0.92239370095E+02  0.86191284422E+02 0.  0.
         11    1    3    3    0    0 -0.20124363022E+02  0.21442238945E+02  0.35158622902E+02  0.45835448755E+02  0.51100000000E-03 0.  1.
         22    1    1    0    0    0  0.15407320246E+01 -0.32268645475E+02  0.59602474134E+01  0.32850629905E+02  0.00000000000E+00 0. -1.
</event>
<event>
 5    1  0.1047411E-009  0.9118800E+02  0.7815553E-02  0.1125453E+00
         25   -1    0    0    0    0  0.00000000000E+00  0.00000000000E+00  0.99999998245E-14  0.12509000000E+03  0.12509000000E+03 0.  0.
        -11    1    3    3    0    0  0.44286908847E+02  0.28356348956E+02 -0.17559874607E+02  0.55441518899E+02  0.51100000000E-03 0. -1.
         23    2    1    0    0    0  0.26958350434E+02  0.43144232206E+01  0.10100333322E+02  0.95980145328E+02  0.91459306022E+02 0.  0.
         11    1    3    3    0    0 -0.17328558414E+02 -0.24041925736E+02  0.27660207929E+02  0.40538626428E+02  0.51100000000E-03 0.  1.
         22    1    1    0    0    0 -0.26958350434E+02 -0.43144232206E+01 -0.10100333322E+02  0.29109854672E+02  0.00000000000E+00 0. -1.
</event>
<event>
 5    1  0.1047411E-009  0.9118800E+02  0.7815553E-02  0.1125453E+00
         25   -1    0    0    0    0  0.00000000000E+00  0.00000000000E+00  0.99999998245E-14  0.12509000000E+03  0.12509000000E+03 0.  0.
        -11    1    3    3    0    0  0.39603446373E+02  0.21471209495E+02 -0.98826395853E+01  0.46120628435E+02  0.51100000000E-03 0.  1.
         23    2    1    0    0    0  0.10785101093E+02 -0.20103247596E+02 -0.16214512551E+02  0.97101263216E+02  0.92980029745E+02 0.  0.
         11    1    3    3    0    0 -0.28818345281E+02 -0.41574457091E+02 -0.63318729659E+01  0.50980634781E+02  0.51100000000E-03 0. -1.
         22    1    1    0    0    0 -0.10785101093E+02  0.20103247596E+02  0.16214512551E+02  0.27988736784E+02  0.00000000000E+00 0. -1.
</event>
<event>
 5    1  0.1047411E-009  0.9118800E+02  0.7815553E-02  0.1125453E+00
         25   -1    0    0    0    0  0.00000000000E+00  0.00000000000E+00  0.99999998245E-14  0.12509000000E+03  0.12509000000E+03 0.  0.
        -11    1    3    3    0    0  0.18092582088E+02  0.20426865776E+02  0.51564082922E+02  0.58339120836E+02  0.51100000000E-03 0.  1.
         23    2    1    0    0    0 -0.62739385664E+01  0.41250125251E+01  0.28432514098E+02  0.95682757841E+02  0.91051657078E+02 0.  0.
         11    1    3    3    0    0 -0.24366520654E+02 -0.16301853251E+02 -0.23131568824E+02  0.37343637005E+02  0.51100000000E-03 0. -1.
         22    1    1    0    0    0  0.62739385664E+01 -0.41250125251E+01 -0.28432514098E+02  0.29407242159E+02  0.00000000000E+00 0.  1.
</event>
<event>
 5    1  0.1047411E-009  0.9118800E+02  0.7815553E-02  0.1125453E+00
         25   -1    0    0    0    0  0.00000000000E+00  0.00000000000E+00  0.99999998245E-14  0.12509000000E+03  0.12509000000E+03 0.  0.
        -11    1    3    3    0    0 -0.51978538699E+02  0.18992198432E+02 -0.31332521331E+01  0.55428236087E+02  0.51100000000E-03 0.  1.
         23    2    1    0    0    0 -0.15662576556E+02  0.25487284089E+02  0.82880464813E+01  0.94047937100E+02  0.88777276392E+02 0.  0.
         11    1    3    3    0    0  0.36315962142E+02  0.64950856574E+01  0.11421298614E+02  0.38619701013E+02  0.51100000000E-03 0. -1.
         22    1    1    0    0    0  0.15662576556E+02 -0.25487284089E+02 -0.82880464813E+01  0.31042062900E+02  0.00000000000E+00 0.  1.
</event>
<event>
 5    1  0.1047411E-009  0.9118800E+02  0.7815553E-02  0.1125453E+00
         25   -1    0    0    0    0  0.00000000000E+00  0.00000000000E+00  0.99999998245E-14  0.12509000000E+03  0.12509000000E+03 0.  0.
        -11    1    3    3    0    0  0.17174865796E+02  0.27041212663E+02 -0.33042959286E+02  0.46022172440E+02  0.51100000000E-03 0. -1.
         23    2    1    0    0    0  0.13405143106E+02  0.21703592676E+02  0.15657045928E+02  0.95158630437E+02  0.90328722246E+02 0.  0.
         11    1    3    3    0    0 -0.37697226901E+01 -0.53376199875E+01  0.48700005215E+02  0.49136457997E+02  0.51100000000E-03 0.  1.
         22    1    1    0    0    0 -0.13405143106E+02 -0.21703592676E+02 -0.15657045928E+02  0.29931369563E+02  0.00000000000E+00 0.  1.
</event>
<event>
 5    1  0.1047411E-009  0.9118800E+02  0.7815553E-02  0.1125453E+00
         25   -1    0    0    0    0  0.00000000000E+00  0.00000000000E+00  0.99999998245E-14  0.12509000000E+03  0.12509000000E+03 0.  0.
        -11    1    3    3    0    0  0.21648123340E+02  0.31612174645E+02  0.19910555709E+01  0.38365806814E+02  0.51100000000E-03 0.  1.
         23    2    1    0    0    0 -0.21668479843E+02 -0.48931206171E+00  0.20388593369E+02  0.95333367385E+02  0.90570380105E+02 0.  0.
         11    1    3    3    0    0 -0.43316603183E+02 -0.32101486707E+02  0.18397537798E+02  0.56967560571E+02  0.51100000000E-03 0. -1.
         22    1    1    0    0    0  0.21668479843E+02  0.48931206171E+00 -0.20388593369E+02  0.29756632615E+02  0.00000000000E+00 0. -1.
</event>
<event>
 5    1  0.1047411E-009  0.9118800E+02  0.7815553E-02  0.1125453E+00
         25   -1    0    0    0    0  0.00000000000E+00  0.00000000000E+00  0.99999998245E-14  0.12509000000E+03  0.12509000000E+03 0.  0.
        -11    1    3    3    0    0  0.99168378391E+01 -0.20243420714E+02 -0.26123466148E+02  0.34504713284E+02  0.51100000000E-03 0.  1.
         23    2    1    0    0    0 -0.44663877525E+01 -0.83689479709E+00  0.29550001958E+02  0.95192648475E+02  0.90375819197E+02 0.  0.
         11    1    3    3    0    0 -0.14383225592E+02  0.19406525917E+02  0.55673468106E+02  0.60687935192E+02  0.51100000000E-03 0. -1.
         22    1    1    0    0    0  0.44663877525E+01  0.83689479709E+00 -0.29550001958E+02  0.29897351525E+02  0.00000000000E+00 0. -1.
</event>
<event>
 5    1  0.1047411E-009  0.9118800E+02  0.7815553E-02  0.1125453E+00
         25   -1    0    0    0    0  0.00000000000E+00  0.00000000000E+00  0.99999998245E-14  0.12509000000E+03  0.12509000000E+03 0.  0.
        -11    1    3    3    0    0  0.41871011349E+01 -0.21207170897E+02  0.40490344492E+02  0.45899280068E+02  0.51100000000E-03 0.  1.
         23    2    1    0    0    0 -0.24270456880E+02  0.92238378123E+01  0.11287028820E+02  0.96778672219E+02  0.92545016699E+02 0.  0.
         11    1    3    3    0    0 -0.28457558015E+02  0.30431008709E+02 -0.29203315672E+02  0.50879392151E+02  0.51100000000E-03 0. -1.
         22    1    1    0    0    0  0.24270456880E+02 -0.92238378123E+01 -0.11287028820E+02  0.28311327781E+02  0.00000000000E+00 0. -1.
</event>
<event>
 5    1  0.1047411E-009  0.9118800E+02  0.7815553E-02  0.1125453E+00
         25   -1    0    0    0    0  0.00000000000E+00  0.00000000000E+00  0.99999998245E-14  0.12509000000E+03  0.12509000000E+03 0.  0.
        -11    1    3    3    0    0 -0.15219082361E+02  0.45296385003E+02  0.67554297773E+01  0.48259908764E+02  0.51100000000E-03 0.  1.
         23    2    1    0    0    0 -0.16012966898E+02  0.13273501071E+02 -0.24457016072E+02  0.92984757832E+02  0.87266365882E+02 0.  0.
         11    1    3    3    0    0 -0.79388453719E+00 -0.32022883931E+02 -0.31212445849E+02  0.44724849067E+02  0.51100000000E-03 0. -1.
         22    1    1    0    0    0  0.16012966898E+02 -0.13273501071E+02  0.24457016072E+02  0.32105242168E+02  0.00000000000E+00 0. -1.
</event>
<event>
 5    1  0.1047411E-009  0.9118800E+02  0.7815553E-02  0.1125453E+00
         25   -1    0    0    0    0  0.00000000000E+00  0.00000000000E+00  0.99999998245E-14  0.12509000000E+03  0.12509000000E+03 0.  0.
        -11    1    3    3    0    0  0.16887794470E+02 -0.31104689410E+02 -0.11465640918E+02  0.37204303881E+02  0.51100000000E-03 0. -1.
         23    2    1    0    0    0 -0.15851940979E+02  0.15718185069E+02 -0.20177942857E+02  0.94998560145E+02  0.90106779306E+02 0.  0.
         11    1    3    3    0    0 -0.32739735449E+02  0.46822874479E+02 -0.87123019387E+01  0.57794256264E+02  0.51100000000E-03 0.  1.
         22    1    1    0    0    0  0.15851940979E+02 -0.15718185069E+02  0.20177942857E+02  0.30091439855E+02  0.00000000000E+00 0.  1.
</event>
<event>
 5    1  0.1047411E-009  0.9118800E+02  0.7815553E-02  0.1125453E+00
         25   -1    0    0    0    0  0.00000000000E+00  0.00000000000E+00  0.99999998245E-14  0.12509000000E+03  0.12509000000E+03 0.  0.
        -11    1    3    3    0    0  0.30275322198E+02 -0.11854110396E+02  0.43639817107E+02  0.54420113055E+02  0.51100000000E-03 0.  1.
         23    2    1    0    0    0 -0.43228867067E+00 -0.22935402882E+02  0.18174495865E+02  0.95823434113E+02  0.91244718458E+02 0.  0.
         11    1    3    3    0    0 -0.30707610869E+02 -0.11081292486E+02 -0.25465321243E+02  0.41403321058E+02  0.51100000000E-03 0. -1.
         22    1    1    0    0    0  0.43228867067E+00  0.22935402882E+02 -0.18174495865E+02  0.29266565887E+02  0.00000000000E+00 0.  1.
</event>
<event>
 5    1  0.1047411E-009  0.9118800E+02  0.7815553E-02  0.1125453E+00
         25   -1    0    0    0    0  0.00000000000E+00  0.00000000000E+00  0.99999998245E-14  0.12509000000E+03  0.12509000000E+03 0.  0.
        -11    1    3    3    0    0  0.19793439264E+02  0.44382227703E+01  0.29494047409E+02  0.35796325120E+02  0.51100000000E-03 0.  1.
         23    2    1    0    0    0 -0.25470634310E+01 -0.26309572200E+02 -0.15305453742E+02  0.94545965628E+02  0.89476262666E+02 0.  0.
         11    1    3    3    0    0 -0.22340502695E+02 -0.30747794971E+02 -0.44799501151E+02  0.58749640508E+02  0.51100000000E-03 0. -1.
         22    1    1    0    0    0  0.25470634310E+01  0.26309572200E+02  0.15305453742E+02  0.30544034372E+02  0.00000000000E+00 0. -1.
</event>
<event>
 5    1  0.1047411E-009  0.9118800E+02  0.7815553E-02  0.1125453E+00
         25   -1    0    0    0    0  0.00000000000E+00  0.00000000000E+00  0.99999998245E-14  0.12509000000E+03  0.12509000000E+03 0.  0.
        -11    1    3    3    0    0 -0.23087005195E+02  0.13918888688E+02 -0.23255338238E+02  0.35602753096E+02  0.51100000000E-03 0.  1.
         23    2    1    0    0    0  0.23906072858E+02  0.28505323844E+02 -0.10490668073E+02  0.86436307763E+02  0.77311883797E+02 0.  0.
         11    1    3    3    0    0  0.46993078053E+02  0.14586435155E+02  0.12764670165E+02  0.50833554667E+02  0.51100000000E-03 0. -1.
         22    1    1    0    0    0 -0.23906072858E+02 -0.28505323844E+02  0.10490668073E+02  0.38653692237E+02  0.00000000000E+00 0. -1.
</event>
<event>
 5    1  0.1047411E-009  0.9118800E+02  0.7815553E-02  0.1125453E+00
         25   -1    0    0    0    0  0.00000000000E+00  0.00000000000E+00  0.99999998245E-14  0.12509000000E+03  0.12509000000E+03 0.  0.
        -11    1    3    3    0    0  0.49763065856E+02  0.28835501742E+02 -0.16009312800E+02  0.59700477223E+02  0.51100000000E-03 0. -1.
         23    2    1    0    0    0  0.15723914668E+02  0.22882226727E+02 -0.13135275825E+02  0.94375617970E+02  0.89237794705E+02 0.  0.
         11    1    3    3    0    0 -0.34039151188E+02 -0.59532750145E+01  0.28740369754E+01  0.34675140747E+02  0.51100000000E-03 0.  1.
         22    1    1    0    0    0 -0.15723914668E+02 -0.22882226727E+02  0.13135275825E+02  0.30714382030E+02  0.00000000000E+00 0. -1.
</event>
<event>
 5    1  0.1047411E-009  0.9118800E+02  0.7815553E-02  0.1125453E+00
         25   -1    0    0    0    0  0.00000000000E+00  0.00000000000E+00  0.99999998245E-14  0.12509000000E+03  0.12509000000E+03 0.  0.
        -11    1    3    3    0    0 -0.18744016809E+02 -0.25207280019E+01 -0.41265934735E+02  0.45393497394E+02  0.51100000000E-03 0. -1.
         23    2    1    0    0    0  0.23398417118E+02 -0.97294312479E+01 -0.13436722788E+02  0.96407369798E+02  0.92041771365E+02 0.  0.
         11    1    3    3    0    0  0.42142433927E+02 -0.72087032459E+01  0.27829211947E+02  0.51013872404E+02  0.51100000000E-03 0.  1.
         22    1    1    0    0    0 -0.23398417118E+02  0.97294312479E+01  0.13436722788E+02  0.28682630202E+02  0.00000000000E+00 0.  1.
</event>
<event>
 5    1  0.1047411E-009  0.9118800E+02  0.7815553E-02  0.1125453E+00
         25   -1    0    0    0    0  0.00000000000E+00  0.00000000000E+00  0.99999998245E-14  0.12509000000E+03  0.12509000000E+03 0.  0.
        -11    1    3    3    0    0  0.10217161617E+02 -0.32507491326E+02  0.28734735236E+02  0.44573673768E+02  0.51100000000E-03 0.  1.
         23    2    1    0    0    0  0.28274107276E+02  0.58602814385E+01 -0.72284023422E+00  0.96205912013E+02  0.91767570348E+02 0.  0.
         11    1    3    3    0    0  0.18056945659E+02  0.38367772764E+02 -0.29457575470E+02  0.51632238246E+02  0.51100000000E-03 0. -1.
         22    1    1    0    0    0 -0.28274107276E+02 -0.58602814385E+01  0.72284023422E+00  0.28884087987E+02  0.00000000000E+00 0. -1.
</event>
<event>
 5    1  0.1047411E-009  0.9118800E+02  0.7815553E-02  0.1125453E+00
         25   -1    0    0    0    0  0.00000000000E+00  0.00000000000E+00  0.99999998245E-14  0.12509000000E+03  0.12509000000E+03 0.  0.
        -11    1    3    3    0    0  0.32115928014E+02  0.44053769473E+02 -0.10988908695E+02  0.55614058938E+02  0.51100000000E-03 0.  1.
         23    2    1    0    0    0  0.21327906889E+02  0.64316573788E+01 -0.19289134421E+02  0.95622788805E+02  0.90969232179E+02 0.  0.
         11    1    3    3    0    0 -0.10788021125E+02 -0.37622112094E+02 -0.83002257267E+01  0.40008729867E+02  0.51100000000E-03 0. -1.
         22    1    1    0    0    0 -0.21327906889E+02 -0.64316573788E+01  0.19289134421E+02  0.29467211195E+02  0.00000000000E+00 0.  1.
</event>
<event>
 5    1  0.1047411E-009  0.9118800E+02  0.7815553E-02  0.1125453E+00
         25   -1    0    0    0    0  0.00000000000E+00  0.00000000000E+00  0.99999998245E-14  0.12509000000E+03  0.12509000000E+03 0.  0.
        -11    1    3    3    0    0  0.19912440357E+02 -0.28122968544E+02 -0.87101920543E+01  0.35542567248E+02  0.51100000000E-03 0. -1.
         23    2    1    0    0    0 -0.26460301960E+02  0.10206085046E+02 -0.76556623269E+01  0.95714484388E+02  0.91095233708E+02 0.  0.
         11    1    3    3    0    0 -0.46372742317E+02  0.38329053590E+02  0.10545297274E+01  0.60171917140E+02  0.51100000000E-03 0.  1.
         22    1    1    0    0    0  0.26460301960E+02 -0.10206085046E+02  0.76556623269E+01  0.29375515612E+02  0.00000000000E+00 0.  1.
</event>
<event>
 5    1  0.1047411E-009  0.9118800E+02  0.7815553E-02  0.1125453E+00
         25   -1    0    0    0    0  0.00000000000E+00  0.00000000000E+00  0.99999998245E-14  0.12509000000E+03  0.12509000000E+03 0.  0.
        -11    1    3    3    0    0 -0.48245146187E+02  0.19804848360E+02 -0.33813348378E+02  0.62154393875E+02  0.51100000000E-03 0.  1.
         23    2    1    0    0    0 -0.25307963301E+02  0.10843262379E+02 -0.11986275745E+02  0.95061011477E+02  0.90193435190E+02 0.  0.
         11    1    3    3    0    0  0.22937182886E+02 -0.89615859809E+01  0.21827072633E+02  0.32906617602E+02  0.51100000000E-03 0. -1.
         22    1    1    0    0    0  0.25307963301E+02 -0.10843262379E+02  0.11986275745E+02  0.30028988523E+02  0.00000000000E+00 0.  1.
</event>
<event>
 5    1  0.1047411E-009  0.9118800E+02  0.7815553E-02  0.1125453E+00
         25   -1    0    0    0    0  0.00000000000E+00  0.00000000000E+00  0.99999998245E-14  0.12509000000E+03  0.12509000000E+03 0.  0.
        -11    1    3    3    0    0 -0.13089941288E+02  0.34567279461E+02 -0.32198706831E+02  0.49020404875E+02  0.51100000000E-03 0.  1.
         23    2    1    0    0    0 -0.18531207496E+02 -0.96429544880E+01 -0.22069896909E+02  0.94701308483E+02  0.89693172852E+02 0.  0.
         11    1    3    3    0    0 -0.54412662081E+01 -0.44210233949E+02  0.10128809921E+02  0.45680903608E+02  0.51100000000E-03 0. -1.
         22    1    1    0    0    0  0.18531207496E+02  0.96429544880E+01  0.22069896909E+02  0.30388691517E+02  0.00000000000E+00 0. -1.
</event>
<event>
 5    1  0.1047411E-009  0.9118800E+02  0.7815553E-02  0.1125453E+00
         25   -1    0    0    0    0  0.00000000000E+00  0.00000000000E+00  0.99999998245E-14  0.12509000000E+03  0.12509000000E+03 0.  0.
        -11    1    3    3    0    0  0.15282763579E+02 -0.15293834902E+02  0.35875384041E+02  0.41886840761E+02  0.51100000000E-03 0.  1.
         23    2    1    0    0    0  0.23853125956E+02  0.13186408280E+02 -0.95733583397E+01  0.96202248770E+02  0.91762576780E+02 0.  0.
         11    1    3    3    0    0  0.85703623774E+01  0.28480243182E+02 -0.45448742380E+02  0.54315408009E+02  0.51100000000E-03 0. -1.
         22    1    1    0    0    0 -0.23853125956E+02 -0.13186408280E+02  0.95733583397E+01  0.28887751230E+02  0.00000000000E+00 0.  1.
</event>
<event>
 5    1  0.1047411E-009  0.9118800E+02  0.7815553E-02  0.1125453E+00
         25   -1    0    0    0    0  0.00000000000E+00  0.00000000000E+00  0.99999998245E-14  0.12509000000E+03  0.12509000000E+03 0.  0.
        -11    1    3    3    0    0  0.36543562060E+02  0.30619640800E+01 -0.32304145816E+02  0.48870905344E+02  0.51100000000E-03 0. -1.
         23    2    1    0    0    0  0.16688310378E+02  0.23446085782E+02  0.50937004547E+01  0.95863908471E+02  0.91300189054E+02 0.  0.
         11    1    3    3    0    0 -0.19855251682E+02  0.20384121702E+02  0.37397846270E+02  0.46993003126E+02  0.51100000000E-03 0.  1.
         22    1    1    0    0    0 -0.16688310378E+02 -0.23446085782E+02 -0.50937004547E+01  0.29226091529E+02  0.00000000000E+00 0.  1.
</event>
<event>
 5    1  0.1047411E-009  0.9118800E+02  0.7815553E-02  0.1125453E+00
         25   -1    0    0    0    0  0.00000000000E+00  0.00000000000E+00  0.99999998245E-14  0.12509000000E+03  0.12509000000E+03 0.  0.
        -11    1    3    3    0    0 -0.21955360775E+02 -0.15194192364E+02 -0.21498085692E+02  0.34279279996E+02  0.51100000000E-03 0. -1.
         23    2    1    0    0    0  0.23302072576E+02  0.18451528970E+02  0.18371986765E+01  0.95310463290E+02  0.90538740912E+02 0.  0.
         11    1    3    3    0    0  0.45257433351E+02  0.33645721334E+02  0.23335284368E+02  0.61031183295E+02  0.51100000000E-03 0.  1.
         22    1    1    0    0    0 -0.23302072576E+02 -0.18451528970E+02 -0.18371986765E+01  0.29779536710E+02  0.00000000000E+00 0.  1.
</event>
<event>
 5    1  0.1047411E-009  0.9118800E+02  0.7815553E-02  0.1125453E+00
         25   -1    0    0    0    0  0.00000000000E+00  0.00000000000E+00  0.99999998245E-14  0.12509000000E+03  0.12509000000E+03 0.  0.
        -11    1    3    3    0    0 -0.90034596040E+01  0.34107825178E+02 -0.23423068903E+00  0.35276917205E+02  0.51100000000E-03 0.  1.
         23    2    1    0    0    0 -0.82721367667E+01 -0.25458516040E+02  0.11437146890E+02  0.95980334687E+02  0.91459565011E+02 0.  0.
         11    1    3    3    0    0  0.73132283721E+00 -0.59566341218E+02  0.11671377579E+02  0.60703417482E+02  0.51100000000E-03 0. -1.
         22    1    1    0    0    0  0.82721367667E+01  0.25458516040E+02 -0.11437146890E+02  0.29109665313E+02  0.00000000000E+00 0. -1.
</event>
<event>
 5    1  0.1047411E-009  0.9118800E+02  0.7815553E-02  0.1125453E+00
         25   -1    0    0    0    0  0.00000000000E+00  0.00000000000E+00  0.99999998245E-14  0.12509000000E+03  0.12509000000E+03 0.  0.
        -11    1    3    3    0    0 -0.31233452842E+02 -0.38127248204E+02 -0.13724604634E+02  0.51162294755E+02  0.51100000000E-03 0.  1.
         23    2    1    0    0    0  0.34728054254E+01 -0.30122622518E+02  0.90591850330E+01  0.93443489950E+02  0.87921466183E+02 0.  0.
         11    1    3    3    0    0  0.34706258267E+02  0.80046256866E+01  0.22783789667E+02  0.42281195195E+02  0.51100000000E-03 0. -1.
         22    1    1    0    0    0 -0.34728054254E+01  0.30122622518E+02 -0.90591850330E+01  0.31646510050E+02  0.00000000000E+00 0.  1.
</event>
<event>
 5    1  0.1047411E-009  0.9118800E+02  0.7815553E-02  0.1125453E+00
         25   -1    0    0    0    0  0.00000000000E+00  0.00000000000E+00  0.99999998245E-14  0.12509000000E+03  0.12509000000E+03 0.  0.
        -11    1    3    3    0    0 -0.31142503171E+02  0.27025347469E+02  0.16747762281E+02  0.44505195778E+02  0.51100000000E-03 0.  1.
         23    2    1    0    0    0  0.55794004232E+01  0.23335257724E+02 -0.17922103798E+02  0.95142282781E+02  0.90306080670E+02 0.  0.
         11    1    3    3    0    0  0.36721903594E+02 -0.36900897455E+01 -0.34669866079E+02  0.50637087002E+02  0.51100000000E-03 0. -1.
         22    1    1    0    0    0 -0.55794004232E+01 -0.23335257724E+02  0.17922103798E+02  0.29947717219E+02  0.00000000000E+00 0.  1.
</event>
<event>
 5    1  0.1047411E-009  0.9118800E+02  0.7815553E-02  0.1125453E+00
         25   -1    0    0    0    0  0.00000000000E+00  0.00000000000E+00  0.99999998245E-14  0.12509000000E+03  0.12509000000E+03 0.  0.
        -11    1    3    3    0    0 -0.26553524291E+02  0.21749718932E+02 -0.37443577790E+02  0.50795289584E+02  0.51100000000E-03 0.  1.
         23    2    1    0    0    0  0.79208992998E+01 -0.53940331765E+01 -0.27750964975E+02  0.95730975890E+02  0.91117876667E+02 0.  0.
         11    1    3    3    0    0  0.34474423591E+02 -0.27143752108E+02  0.96926128153E+01  0.44935686307E+02  0.51100000000E-03 0. -1.
         22    1    1    0    0    0 -0.79208992998E+01  0.53940331765E+01  0.27750964975E+02  0.29359024110E+02  0.00000000000E+00 0.  1.
</event>
<event>
 5    1  0.1047411E-009  0.9118800E+02  0.7815553E-02  0.1125453E+00
         25   -1    0    0    0    0  0.00000000000E+00  0.00000000000E+00  0.99999998245E-14  0.12509000000E+03  0.12509000000E+03 0.  0.
        -11    1    3    3    0    0  0.25211236209E+02 -0.40412106992E+02  0.39515049350E+02  0.61888479931E+02  0.51100000000E-03 0. -1.
         23    2    1    0    0    0  0.70010352604E+01 -0.22793199753E+02  0.16759354432E+02  0.95945182095E+02  0.91411473878E+02 0.  0.
         11    1    3    3    0    0 -0.18210200949E+02  0.17618907239E+02 -0.22755694918E+02  0.34056702165E+02  0.51100000000E-03 0.  1.
         22    1    1    0    0    0 -0.70010352604E+01  0.22793199753E+02 -0.16759354432E+02  0.29144817905E+02  0.00000000000E+00 0. -1.
</event>
<event>
 5    1  0.1047411E-009  0.9118800E+02  0.7815553E-02  0.1125453E+00
         25   -1    0    0    0    0  0.00000000000E+00  0.00000000000E+00  0.99999998245E-14  0.12509000000E+03  0.12509000000E+03 0.  0.
        -11    1    3    3    0    0 -0.15786329766E+02 -0.31770820936E+02  0.14194023983E+02  0.38210778421E+02  0.51100000000E-03 0.  1.
         23    2    1    0    0    0  0.17456667705E+02  0.18431144251E+02  0.62752846202E+01  0.98940018683E+02  0.95421725903E+02 0.  0.
         11    1    3    3    0    0  0.33242997471E+02  0.50201965188E+02 -0.79187393624E+01  0.60729240263E+02  0.51100000000E-03 0. -1.
         22    1    1    0    0    0 -0.17456667705E+02 -0.18431144251E+02 -0.62752846202E+01  0.26149981317E+02  0.00000000000E+00 0. -1.
</event>
<event>
 5    1  0.1047411E-009  0.9118800E+02  0.7815553E-02  0.1125453E+00
         25   -1    0    0    0    0  0.00000000000E+00  0.00000000000E+00  0.99999998245E-14  0.12509000000E+03  0.12509000000E+03 0.  0.
        -11    1    3    3    0    0  0.15521767676E+02  0.21954626814E+02  0.32219627558E+02  0.41964691237E+02  0.51100000000E-03 0.  1.
         23    2    1    0    0    0 -0.84809994058E+01  0.31274075540E+02 -0.97921142493E+01  0.91239141026E+02  0.84727210517E+02 0.  0.
         11    1    3    3    0    0 -0.24002767081E+02  0.93194487258E+01 -0.42011741808E+02  0.49274449790E+02  0.51100000000E-03 0. -1.
         22    1    1    0    0    0  0.84809994058E+01 -0.31274075540E+02  0.97921142493E+01  0.33850858974E+02  0.00000000000E+00 0. -1.
</event>
<event>
 5    1  0.1047411E-009  0.9118800E+02  0.7815553E-02  0.1125453E+00
         25   -1    0    0    0    0  0.00000000000E+00  0.00000000000E+00  0.99999998245E-14  0.12509000000E+03  0.12509000000E+03 0.  0.
        -11    1    3    3    0    0 -0.15595314925E+02  0.45832751920E+02 -0.24986888262E+02  0.54481185573E+02  0.51100000000E-03 0. -1.
         23    2    1    0    0    0 -0.19756386833E+02  0.22538366440E+02  0.70411304366E+01  0.94302497660E+02  0.89135238624E+02 0.  0.
         11    1    3    3    0    0 -0.41610719079E+01 -0.23294385480E+02  0.32028018698E+02  0.39821312087E+02  0.51100000000E-03 0.  1.
         22    1    1    0    0    0  0.19756386833E+02 -0.22538366440E+02 -0.70411304366E+01  0.30787502340E+02  0.00000000000E+00 0. -1.
</event>
<event>
 5    1  0.1047411E-009  0.9118800E+02  0.7815553E-02  0.1125453E+00
         25   -1    0    0    0    0  0.00000000000E+00  0.00000000000E+00  0.99999998245E-14  0.12509000000E+03  0.12509000000E+03 0.  0.
        -11    1    3    3    0    0  0.32280839216E+02 -0.89755008349E+01  0.92623140911E+01  0.34762086507E+02  0.51100000000E-03 0.  1.
         23    2    1    0    0    0 -0.18232893700E+02  0.16073377167E+02 -0.15413469220E+02  0.96308636244E+02  0.91907488899E+02 0.  0.
         11    1    3    3    0    0 -0.50513732916E+02  0.25048878002E+02 -0.24675783312E+02  0.61546549737E+02  0.51100000000E-03 0. -1.
         22    1    1    0    0    0  0.18232893700E+02 -0.16073377167E+02  0.15413469220E+02  0.28781363756E+02  0.00000000000E+00 0. -1.
</event>
<event>
 5    1  0.1047411E-009  0.9118800E+02  0.7815553E-02  0.1125453E+00
         25   -1    0    0    0    0  0.00000000000E+00  0.00000000000E+00  0.99999998245E-14  0.12509000000E+03  0.12509000000E+03 0.  0.
        -11    1    3    3    0    0  0.40686615204E+02 -0.40350791124E+02  0.10171980247E+02  0.58198420799E+02  0.51100000000E-03 0.  1.
         23    2    1    0    0    0  0.60825900460E+01 -0.26452358920E+02  0.11728539196E+02  0.95521709117E+02  0.90830133144E+02 0.  0.
         11    1    3    3    0    0 -0.34604025158E+02  0.13898432204E+02  0.15565589490E+01  0.37323288318E+02  0.51100000000E-03 0. -1.
         22    1    1    0    0    0 -0.60825900460E+01  0.26452358920E+02 -0.11728539196E+02  0.29568290883E+02  0.00000000000E+00 0.  1.
</event>
<event>
 5    1  0.1047411E-009  0.9118800E+02  0.7815553E-02  0.1125453E+00
         25   -1    0    0    0    0  0.00000000000E+00  0.00000000000E+00  0.99999998245E-14  0.12509000000E+03  0.12509000000E+03 0.  0.
        -11    1    3    3    0    0 -0.22922782533E+02  0.24234134700E+02 -0.29875571277E+02  0.44780542685E+02  0.51100000000E-03 0. -1.
         23    2    1    0    0    0 -0.22775500558E+02 -0.19593943174E+02 -0.69087695648E+01  0.94261812709E+02  0.89078124158E+02 0.  0.
         11    1    3    3    0    0  0.14728197588E+00 -0.43828077874E+02  0.22966801712E+02  0.49481270025E+02  0.51100000000E-03 0.  1.
         22    1    1    0    0    0  0.22775500558E+02  0.19593943174E+02  0.69087695648E+01  0.30828187291E+02  0.00000000000E+00 0.  1.
</event>
<event>
 5    1  0.1047411E-009  0.9118800E+02  0.7815553E-02  0.1125453E+00
         25   -1    0    0    0    0  0.00000000000E+00  0.00000000000E+00  0.99999998245E-14  0.12509000000E+03  0.12509000000E+03 0.  0.
        -11    1    3    3    0    0  0.13163232607E+02  0.12480981453E+02  0.31413280814E+02  0.36274506233E+02  0.51100000000E-03 0.  1.
         23    2    1    0    0    0 -0.15041874992E+02  0.12643936668E+02 -0.21331482876E+02  0.96087253588E+02  0.91605682152E+02 0.  0.
         11    1    3    3    0    0 -0.28205107599E+02  0.16295521559E+00 -0.52744763691E+02  0.59812747355E+02  0.51100000000E-03 0. -1.
         22    1    1    0    0    0  0.15041874992E+02 -0.12643936668E+02  0.21331482876E+02  0.29002746412E+02  0.00000000000E+00 0. -1.
</event>
<event>
 5    1  0.1047411E-009  0.9118800E+02  0.7815553E-02  0.1125453E+00
         25   -1    0    0    0    0  0.00000000000E+00  0.00000000000E+00  0.99999998245E-14  0.12509000000E+03  0.12509000000E+03 0.  0.
        -11    1    3    3    0    0  0.20780787752E+02 -0.60323777249E+01 -0.23381551422E+02  0.31857929433E+02  0.51100000000E-03 0.  1.
         23    2    1    0    0    0 -0.16355578055E+02 -0.25260653239E+02  0.17448719570E+02  0.90304035155E+02  0.83335199136E+02 0.  0.
         11    1    3    3    0    0 -0.37136365806E+02 -0.19228275514E+02  0.40830270991E+02  0.58446105722E+02  0.51100000000E-03 0. -1.
         22    1    1    0    0    0  0.16355578055E+02  0.25260653239E+02 -0.17448719570E+02  0.34785964845E+02  0.00000000000E+00 0. -1.
</event>
<event>
 5    1  0.1047411E-009  0.9118800E+02  0.7815553E-02  0.1125453E+00
         25   -1    0    0    0    0  0.00000000000E+00  0.00000000000E+00  0.99999998245E-14  0.12509000000E+03  0.12509000000E+03 0.  0.
        -11    1    3    3    0    0  0.35474326287E+02  0.10746677487E+02  0.16690640994E+02  0.40650908964E+02  0.51100000000E-03 0.  1.
         23    2    1    0    0    0 -0.77197772332E+01 -0.25139792343E+02  0.87951946418E+01  0.97359879763E+02  0.93327309075E+02 0.  0.
         11    1    3    3    0    0 -0.43194103520E+02 -0.35886469830E+02 -0.78954463519E+01  0.56708970799E+02  0.51100000000E-03 0. -1.
         22    1    1    0    0    0  0.77197772332E+01  0.25139792343E+02 -0.87951946418E+01  0.27730120237E+02  0.00000000000E+00 0. -1.
</event>
<event>
 5    1  0.1047411E-009  0.9118800E+02  0.7815553E-02  0.1125453E+00
         25   -1    0    0    0    0  0.00000000000E+00  0.00000000000E+00  0.99999998245E-14  0.12509000000E+03  0.12509000000E+03 0.  0.
        -11    1    3    3    0    0 -0.21955256616E+02  0.36017173021E+01 -0.34792808908E+02  0.41298247088E+02  0.51100000000E-03 0.  1.
         23    2    1    0    0    0 -0.24982006192E+02  0.72394945322E+01  0.17458959809E+02  0.93763873651E+02  0.88376115608E+02 0.  0.
         11    1    3    3    0    0 -0.30267495758E+01  0.36377772301E+01  0.52251768718E+02  0.52465626562E+02  0.51100000000E-03 0. -1.
         22    1    1    0    0    0  0.24982006192E+02 -0.72394945322E+01 -0.17458959809E+02  0.31326126349E+02  0.00000000000E+00 0. -1.
</event>
<event>
 5    1  0.1047411E-009  0.9118800E+02  0.7815553E-02  0.1125453E+00
         25   -1    0    0    0    0  0.00000000000E+00  0.00000000000E+00  0.99999998245E-14  0.12509000000E+03  0.12509000000E+03 0.  0.
        -11    1    3    3    0    0  0.55050282879E+01 -0.40649017544E+02  0.87233478042E+01  0.41937390965E+02  0.51100000000E-03 0.  1.
         23    2    1    0    0    0  0.17416546524E+02  0.99037014441E+01  0.21785884479E+02  0.95491956861E+02  0.90789149504E+02 0.  0.
         11    1    3    3    0    0  0.11911518236E+02  0.50552718988E+02  0.13062536675E+02  0.53554565897E+02  0.51100000000E-03 0. -1.
         22    1    1    0    0    0 -0.17416546524E+02 -0.99037014441E+01 -0.21785884479E+02  0.29598043139E+02  0.00000000000E+00 0. -1.
</event>
<event>
 5    1  0.1047411E-009  0.9118800E+02  0.7815553E-02  0.1125453E+00
         25   -1    0    0    0    0  0.00000000000E+00  0.00000000000E+00  0.99999998245E-14  0.12509000000E+03  0.12509000000E+03 0.  0.
        -11    1    3    3    0    0  0.44050812412E+02  0.13392035517E+01  0.34181228502E+02  0.55772967668E+02  0.51100000000E-03 0.  1.
         23    2    1    0    0    0  0.24542685814E+02  0.17520070132E+02  0.48330044119E+01  0.94550612055E+02  0.89482758249E+02 0.  0.
         11    1    3    3    0    0 -0.19508126598E+02  0.16180866580E+02 -0.29348224090E+02  0.38777644387E+02  0.51100000000E-03 0. -1.
         22    1    1    0    0    0 -0.24542685814E+02 -0.17520070132E+02 -0.48330044119E+01  0.30539387945E+02  0.00000000000E+00 0.  1.
</event>
<event>
 5    1  0.1047411E-009  0.9118800E+02  0.7815553E-02  0.1125453E+00
         25   -1    0    0    0    0  0.00000000000E+00  0.00000000000E+00  0.99999998245E-14  0.12509000000E+03  0.12509000000E+03 0.  0.
        -11    1    3    3    0    0  0.53057804641E+02 -0.17421310179E+02 -0.75330083279E+01  0.56350500410E+02  0.51100000000E-03 0.  1.
         23    2    1    0    0    0  0.14807121382E+02 -0.25185880267E+02 -0.15949691174E+01  0.95830414649E+02  0.91254287772E+02 0.  0.
         11    1    3    3    0    0 -0.38250683259E+02 -0.77645700872E+01  0.59380392106E+01  0.39479914239E+02  0.51100000000E-03 0. -1.
         22    1    1    0    0    0 -0.14807121382E+02  0.25185880267E+02  0.15949691174E+01  0.29259585351E+02  0.00000000000E+00 0.  1.
</event>
<event>
 5    1  0.1047411E-009  0.9118800E+02  0.7815553E-02  0.1125453E+00
         25   -1    0    0    0    0  0.00000000000E+00  0.00000000000E+00  0.99999998245E-14  0.12509000000E+03  0.12509000000E+03 0.  0.
        -11    1    3    3    0    0 -0.10268919923E+02  0.41054170363E+02 -0.12550206794E+02  0.44140721691E+02  0.51100000000E-03 0. -1.
         23    2    1    0    0    0 -0.18914343585E+02  0.23442567628E+01  0.21459515330E+02  0.96388802617E+02  0.92016534051E+02 0.  0.
         11    1    3    3    0    0 -0.86454236621E+01 -0.38709913600E+02  0.34009722124E+02  0.52248080926E+02  0.51100000000E-03 0.  1.
         22    1    1    0    0    0  0.18914343585E+02 -0.23442567628E+01 -0.21459515330E+02  0.28701197383E+02  0.00000000000E+00 0.  1.
</event>
<event>
 5    1  0.1047411E-009  0.9118800E+02  0.7815553E-02  0.1125453E+00
         25   -1    0    0    0    0  0.00000000000E+00  0.00000000000E+00  0.99999998245E-14  0.12509000000E+03  0.12509000000E+03 0.  0.
        -11    1    3    3    0    0 -0.23137533402E+02 -0.34783600628E+02 -0.44712594629E+02  0.61191996563E+02  0.51100000000E-03 0.  1.
         23    2    1    0    0    0 -0.22999740194E+01 -0.19201490992E+02 -0.22661491307E+02  0.95298552820E+02  0.90522283690E+02 0.  0.
         11    1    3    3    0    0  0.20837559383E+02  0.15582109636E+02  0.22051103323E+02  0.34106556257E+02  0.51100000000E-03 0. -1.
         22    1    1    0    0    0  0.22999740194E+01  0.19201490992E+02  0.22661491307E+02  0.29791447180E+02  0.00000000000E+00 0.  1.
</event>
<event>
 5    1  0.1047411E-009  0.9118800E+02  0.7815553E-02  0.1125453E+00
         25   -1    0    0    0    0  0.00000000000E+00  0.00000000000E+00  0.99999998245E-14  0.12509000000E+03  0.12509000000E+03 0.  0.
        -11    1    3    3    0    0  0.20353459180E+02 -0.39053480801E+02 -0.42976491378E+02  0.61533864454E+02  0.51100000000E-03 0. -1.
         23    2    1    0    0    0  0.17634056171E+02 -0.16880081233E+02 -0.24204276306E+02  0.90713495364E+02  0.83947567982E+02 0.  0.
         11    1    3    3    0    0 -0.27194030086E+01  0.22173399568E+02  0.18772215071E+02  0.29179630910E+02  0.51100000000E-03 0.  1.
         22    1    1    0    0    0 -0.17634056171E+02  0.16880081233E+02  0.24204276306E+02  0.34376504636E+02  0.00000000000E+00 0. -1.
</event>
<event>
 5    1  0.1047411E-009  0.9118800E+02  0.7815553E-02  0.1125453E+00
         25   -1    0    0    0    0  0.00000000000E+00  0.00000000000E+00  0.99999998245E-14  0.12509000000E+03  0.12509000000E+03 0.  0.
        -11    1    3    3    0    0  0.15133792038E+02  0.33812332831E+02  0.90082081448E+01  0.38124182970E+02  0.51100000000E-03 0.  1.
         23    2    1    0    0    0 -0.22793045015E+02 -0.82534100013E+01 -0.11366201407E+02  0.98316277581E+02  0.94600519160E+02 0.  0.
         11    1    3    3    0    0 -0.37926837053E+02 -0.42065742832E+02 -0.20374409552E+02  0.60192094611E+02  0.51100000000E-03 0. -1.
         22    1    1    0    0    0  0.22793045015E+02  0.82534100013E+01  0.11366201407E+02  0.26773722419E+02  0.00000000000E+00 0. -1.
</event>
<event>
 5    1  0.1047411E-009  0.9118800E+02  0.7815553E-02  0.1125453E+00
         25   -1    0    0    0    0  0.00000000000E+00  0.00000000000E+00  0.99999998245E-14  0.12509000000E+03  0.12509000000E+03 0.  0.
        -11    1    3    3    0    0  0.21438254270E+01 -0.32103859071E+02  0.35333578766E+02  0.47788236454E+02  0.51100000000E-03 0. -1.
         23    2    1    0    0    0 -0.64380676457E+01 -0.27352657852E+02 -0.10824486831E+02  0.94977110372E+02  0.90076996913E+02 0.  0.
         11    1    3    3    0    0 -0.85818930727E+01  0.47512012189E+01 -0.46158065597E+02  0.47188873918E+02  0.51100000000E-03 0.  1.
         22    1    1    0    0    0  0.64380676457E+01  0.27352657852E+02  0.10824486831E+02  0.30112889628E+02  0.00000000000E+00 0. -1.
</event>
<event>
 5    1  0.1047411E-009  0.9118800E+02  0.7815553E-02  0.1125453E+00
         25   -1    0    0    0    0  0.00000000000E+00  0.00000000000E+00  0.99999998245E-14  0.12509000000E+03  0.12509000000E+03 0.  0.
        -11    1    3    3    0    0 -0.22192017511E+02  0.33888312768E+02 -0.99895170388E+01  0.41721623103E+02  0.51100000000E-03 0. -1.
         23    2    1    0    0    0  0.21844184786E+02  0.49382456681E+01 -0.19645608937E+02  0.95298984076E+02  0.90522879628E+02 0.  0.
         11    1    3    3    0    0  0.44036202297E+02 -0.28950067100E+02 -0.96560918986E+01  0.53577360973E+02  0.51100000000E-03 0.  1.
         22    1    1    0    0    0 -0.21844184786E+02 -0.49382456681E+01  0.19645608937E+02  0.29791015924E+02  0.00000000000E+00 0.  1.
</event>
<event>
 5    1  0.1047411E-009  0.9118800E+02  0.7815553E-02  0.1125453E+00
         25   -1    0    0    0    0  0.00000000000E+00  0.00000000000E+00  0.99999998245E-14  0.12509000000E+03  0.12509000000E+03 0.  0.
        -11    1    3    3    0    0  0.27336950911E+02 -0.95472595047E+01  0.21627845038E+02  0.36141703479E+02  0.51100000000E-03 0.  1.
         23    2    1    0    0    0 -0.14406175094E+02  0.21920060532E+02 -0.97445618270E+01  0.97108159107E+02  0.92989306618E+02 0.  0.
         11    1    3    3    0    0 -0.41743126005E+02  0.31467320037E+02 -0.31372406865E+02  0.60966455627E+02  0.51100000000E-03 0. -1.
         22    1    1    0    0    0  0.14406175094E+02 -0.21920060532E+02  0.97445618270E+01  0.27981840893E+02  0.00000000000E+00 0. -1.
</event>
<event>
 5    1  0.1047411E-009  0.9118800E+02  0.7815553E-02  0.1125453E+00
         25   -1    0    0    0    0  0.00000000000E+00  0.00000000000E+00  0.99999998245E-14  0.12509000000E+03  0.12509000000E+03 0.  0.
        -11    1    3    3    0    0  0.47905985869E+01 -0.26440325384E+02 -0.58914721134E+01  0.27509090955E+02  0.51100000000E-03 0.  1.
         23    2    1    0    0    0  0.19214209045E+02  0.27081519709E+02  0.17361183531E+02  0.87619942186E+02  0.79203844831E+02 0.  0.
         11    1    3    3    0    0  0.14423610458E+02  0.53521845093E+02  0.23252655645E+02  0.60110851231E+02  0.51100000000E-03 0. -1.
         22    1    1    0    0    0 -0.19214209045E+02 -0.27081519709E+02 -0.17361183531E+02  0.37470057814E+02  0.00000000000E+00 0. -1.
</event>
<event>
 5    1  0.1047411E-009  0.9118800E+02  0.7815553E-02  0.1125453E+00
         25   -1    0    0    0    0  0.00000000000E+00  0.00000000000E+00  0.99999998245E-14  0.12509000000E+03  0.12509000000E+03 0.  0.
        -11    1    3    3    0    0 -0.18230232120E+02 -0.31046896299E+02  0.19911159200E+02  0.41142501065E+02  0.51100000000E-03 0.  1.
         23    2    1    0    0    0  0.97242334645E+00  0.52558978590E+01 -0.23551755387E+02  0.10093932193E+03  0.98007609195E+02 0.  0.
         11    1    3    3    0    0  0.19202655466E+02  0.36302794158E+02 -0.43462914587E+02  0.59796820863E+02  0.51100000000E-03 0. -1.
         22    1    1    0    0    0 -0.97242334645E+00 -0.52558978590E+01  0.23551755387E+02  0.24150678071E+02  0.00000000000E+00 0. -1.
</event>
<event>
 5    1  0.1047411E-009  0.9118800E+02  0.7815553E-02  0.1125453E+00
         25   -1    0    0    0    0  0.00000000000E+00  0.00000000000E+00  0.99999998245E-14  0.12509000000E+03  0.12509000000E+03 0.  0.
        -11    1    3    3    0    0 -0.20396268800E+02  0.34451921972E+01  0.45921469050E+02  0.50365250423E+02  0.51100000000E-03 0.  1.
         23    2    1    0    0    0  0.41055373721E+01 -0.22671337838E+02  0.15888852127E+02  0.97102491744E+02  0.92981682521E+02 0.  0.
         11    1    3    3    0    0  0.24501806172E+02 -0.26116530035E+02 -0.30032616923E+02  0.46737241321E+02  0.51100000000E-03 0. -1.
         22    1    1    0    0    0 -0.41055373721E+01  0.22671337838E+02 -0.15888852127E+02  0.27987508256E+02  0.00000000000E+00 0. -1.
</event>
<event>
 5    1  0.1047411E-009  0.9118800E+02  0.7815553E-02  0.1125453E+00
         25   -1    0    0    0    0  0.00000000000E+00  0.00000000000E+00  0.99999998245E-14  0.12509000000E+03  0.12509000000E+03 0.  0.
        -11    1    3    3    0    0  0.40999465237E+02 -0.42905828297E+02 -0.30609883706E+01  0.59424202996E+02  0.51100000000E-03 0. -1.
         23    2    1    0    0    0  0.98454148797E+01 -0.27412562440E+02  0.59399893333E+01  0.95363509340E+02  0.90612000677E+02 0.  0.
         11    1    3    3    0    0 -0.31154050357E+02  0.15493265857E+02  0.90009777039E+01  0.35939306344E+02  0.51100000000E-03 0.  1.
         22    1    1    0    0    0 -0.98454148797E+01  0.27412562440E+02 -0.59399893333E+01  0.29726490660E+02  0.00000000000E+00 0. -1.
</event>
<event>
 5    1  0.1047411E-009  0.9118800E+02  0.7815553E-02  0.1125453E+00
         25   -1    0    0    0    0  0.00000000000E+00  0.00000000000E+00  0.99999998245E-14  0.12509000000E+03  0.12509000000E+03 0.  0.
        -11    1    3    3    0    0 -0.71876198278E+01 -0.21263099619E+02  0.36715296046E+02  0.43032478992E+02  0.51100000000E-03 0.  1.
         23    2    1    0    0    0  0.24310605879E+02  0.12362520331E+02  0.12381126428E+02  0.95137875555E+02  0.90299975672E+02 0.  0.
         11    1    3    3    0    0  0.31498225707E+02  0.33625619951E+02 -0.24334169618E+02  0.52105396563E+02  0.51100000000E-03 0. -1.
         22    1    1    0    0    0 -0.24310605879E+02 -0.12362520331E+02 -0.12381126428E+02  0.29952124445E+02  0.00000000000E+00 0. -1.
</event>
<event>
 5    1  0.1047411E-009  0.9118800E+02  0.7815553E-02  0.1125453E+00
         25   -1    0    0    0    0  0.00000000000E+00  0.00000000000E+00  0.99999998245E-14  0.12509000000E+03  0.12509000000E+03 0.  0.
        -11    1    3    3    0    0 -0.22083950237E+02  0.32689792697E+02  0.14801650529E+02  0.42135641247E+02  0.51100000000E-03 0.  1.
         23    2    1    0    0    0 -0.68049585655E+01 -0.20580390732E+02  0.16916516193E+02  0.97594028225E+02  0.93640620893E+02 0.  0.
         11    1    3    3    0    0  0.15278991672E+02 -0.53270183429E+02  0.21148656632E+01  0.55458386977E+02  0.51100000000E-03 0. -1.
         22    1    1    0    0    0  0.68049585655E+01  0.20580390732E+02 -0.16916516193E+02  0.27495971775E+02  0.00000000000E+00 0. -1.
</event>
<event>
 5    1  0.1047411E-009  0.9118800E+02  0.7815553E-02  0.1125453E+00
         25   -1    0    0    0    0  0.00000000000E+00  0.00000000000E+00  0.99999998245E-14  0.12509000000E+03  0.12509000000E+03 0.  0.
        -11    1    3    3    0    0  0.35745938137E+02  0.19390207295E+02 -0.69483758620E+00  0.40672288253E+02  0.51100000000E-03 0. -1.
         23    2    1    0    0    0 -0.11604470258E+02 -0.19195391739E+02 -0.56645745484E+01  0.10195530314E+03  0.99295869198E+02 0.  0.
         11    1    3    3    0    0 -0.47350408395E+02 -0.38585599033E+02 -0.49697369622E+01  0.61283014887E+02  0.51100000000E-03 0.  1.
         22    1    1    0    0    0  0.11604470258E+02  0.19195391739E+02  0.56645745484E+01  0.23134696859E+02  0.00000000000E+00 0.  1.
</event>
<event>
 5    1  0.1047411E-009  0.9118800E+02  0.7815553E-02  0.1125453E+00
         25   -1    0    0    0    0  0.00000000000E+00  0.00000000000E+00  0.99999998245E-14  0.12509000000E+03  0.12509000000E+03 0.  0.
        -11    1    3    3    0    0  0.45770353394E+02 -0.20327565592E+02  0.12019288643E+02  0.51503383117E+02  0.51100000000E-03 0. -1.
         23    2    1    0    0    0  0.23059652033E+02  0.51203421278E+01 -0.16756665872E+02  0.96128796528E+02  0.91662392590E+02 0.  0.
         11    1    3    3    0    0 -0.22710701361E+02  0.25447907720E+02 -0.28775954515E+02  0.44625413411E+02  0.51100000000E-03 0.  1.
         22    1    1    0    0    0 -0.23059652033E+02 -0.51203421278E+01  0.16756665872E+02  0.28961203472E+02  0.00000000000E+00 0. -1.
</event>
<event>
 5    1  0.1047411E-009  0.9118800E+02  0.7815553E-02  0.1125453E+00
         25   -1    0    0    0    0  0.00000000000E+00  0.00000000000E+00  0.99999998245E-14  0.12509000000E+03  0.12509000000E+03 0.  0.
        -11    1    3    3    0    0  0.24862822921E+02 -0.27947829645E+02  0.12938511098E+02  0.39580881940E+02  0.51100000000E-03 0. -1.
         23    2    1    0    0    0 -0.12158658339E+02  0.15834346852E+02  0.19365790857E+02  0.97276453510E+02  0.93215422754E+02 0.  0.
         11    1    3    3    0    0 -0.37021481260E+02  0.43782176497E+02  0.64272797583E+01  0.57695571570E+02  0.51100000000E-03 0.  1.
         22    1    1    0    0    0  0.12158658339E+02 -0.15834346852E+02 -0.19365790857E+02  0.27813546490E+02  0.00000000000E+00 0.  1.
</event>
<event>
 5    1  0.1047411E-009  0.9118800E+02  0.7815553E-02  0.1125453E+00
         25   -1    0    0    0    0  0.00000000000E+00  0.00000000000E+00  0.99999998245E-14  0.12509000000E+03  0.12509000000E+03 0.  0.
        -11    1    3    3    0    0 -0.29784409982E+02 -0.18618582551E+02 -0.46841866924E+02  0.58548468736E+02  0.51100000000E-03 0.  1.
         23    2    1    0    0    0 -0.23077776625E+02  0.24548250569E+01 -0.14512405094E+02  0.97718119509E+02  0.93806242003E+02 0.  0.
         11    1    3    3    0    0  0.67066333569E+01  0.21073407608E+02  0.32329461829E+02  0.39169650773E+02  0.51100000000E-03 0. -1.
         22    1    1    0    0    0  0.23077776625E+02 -0.24548250569E+01  0.14512405094E+02  0.27371880491E+02  0.00000000000E+00 0.  1.
</event>
<event>
 5    1  0.1047411E-009  0.9118800E+02  0.7815553E-02  0.1125453E+00
         25   -1    0    0    0    0  0.00000000000E+00  0.00000000000E+00  0.99999998245E-14  0.12509000000E+03  0.12509000000E+03 0.  0.
        -11    1    3    3    0    0 -0.16698099881E+02  0.34091033565E+02 -0.88739744886E+01  0.38984260063E+02  0.51100000000E-03 0. -1.
         23    2    1    0    0    0  0.26943151995E+02 -0.36037599500E+01 -0.83497909233E+01  0.96653412060E+02  0.92375551578E+02 0.  0.
         11    1    3    3    0    0  0.43641251876E+02 -0.37694793515E+02  0.52418356529E+00  0.57669151997E+02  0.51100000000E-03 0.  1.
         22    1    1    0    0    0 -0.26943151995E+02  0.36037599500E+01  0.83497909233E+01  0.28436587940E+02  0.00000000000E+00 0.  1.
</event>
<event>
 5    1  0.1047411E-009  0.9118800E+02  0.7815553E-02  0.1125453E+00
         25   -1    0    0    0    0  0.00000000000E+00  0.00000000000E+00  0.99999998245E-14  0.12509000000E+03  0.12509000000E+03 0.  0.
        -11    1    3    3    0    0  0.45407057029E+02 -0.11602714099E+02  0.21186124330E+02  0.51432243456E+02  0.51100000000E-03 0. -1.
         23    2    1    0    0    0  0.15917068636E+01 -0.24053745562E+02  0.12965121430E+02  0.97718288691E+02  0.93806467606E+02 0.  0.
         11    1    3    3    0    0 -0.43815350165E+02 -0.12451031463E+02 -0.82210029006E+01  0.46286045235E+02  0.51100000000E-03 0.  1.
         22    1    1    0    0    0 -0.15917068636E+01  0.24053745562E+02 -0.12965121430E+02  0.27371711309E+02  0.00000000000E+00 0. -1.
</event>
<event>
 5    1  0.1047411E-009  0.9118800E+02  0.7815553E-02  0.1125453E+00
         25   -1    0    0    0    0  0.00000000000E+00  0.00000000000E+00  0.99999998245E-14  0.12509000000E+03  0.12509000000E+03 0.  0.
        -11    1    3    3    0    0  0.21956127709E+02  0.54013914322E+02  0.10584010772E+02  0.59258718925E+02  0.51100000000E-03 0. -1.
         23    2    1    0    0    0  0.83233582987E+01  0.26291869516E+02 -0.92868764841E+01  0.95990399129E+02  0.91473329195E+02 0.  0.
         11    1    3    3    0    0 -0.13632769410E+02 -0.27722044806E+02 -0.19870887256E+02  0.36731680204E+02  0.51100000000E-03 0.  1.
         22    1    1    0    0    0 -0.83233582987E+01 -0.26291869516E+02  0.92868764841E+01  0.29099600871E+02  0.00000000000E+00 0. -1.
</event>
<event>
 5    1  0.1047411E-009  0.9118800E+02  0.7815553E-02  0.1125453E+00
         25   -1    0    0    0    0  0.00000000000E+00  0.00000000000E+00  0.99999998245E-14  0.12509000000E+03  0.12509000000E+03 0.  0.
        -11    1    3    3    0    0 -0.18800399437E+02  0.35929061925E+02 -0.44060473508E+02  0.59880529689E+02  0.51100000000E-03 0. -1.
         23    2    1    0    0    0 -0.13329422445E+02  0.23445888704E+02 -0.10420156424E+02  0.96176977679E+02  0.91728120965E+02 0.  0.
         11    1    3    3    0    0  0.54709769921E+01 -0.12483173221E+02  0.33640317084E+02  0.36296447990E+02  0.51100000000E-03 0.  1.
         22    1    1    0    0    0  0.13329422445E+02 -0.23445888704E+02  0.10420156424E+02  0.28913022321E+02  0.00000000000E+00 0. -1.
</event>
<event>
 5    1  0.1047411E-009  0.9118800E+02  0.7815553E-02  0.1125453E+00
         25   -1    0    0    0    0  0.00000000000E+00  0.00000000000E+00  0.99999998245E-14  0.12509000000E+03  0.12509000000E+03 0.  0.
        -11    1    3    3    0    0  0.20554759199E+02  0.28876892560E+02 -0.30097430665E+02  0.46499767554E+02  0.51100000000E-03 0.  1.
         23    2    1    0    0    0 -0.14093013549E+02 -0.22854089858E+01 -0.28600769571E+02  0.93123765546E+02  0.87465396382E+02 0.  0.
         11    1    3    3    0    0 -0.34647772748E+02 -0.31162301546E+02  0.14966610941E+01  0.46623997992E+02  0.51100000000E-03 0. -1.
         22    1    1    0    0    0  0.14093013549E+02  0.22854089858E+01  0.28600769571E+02  0.31966234454E+02  0.00000000000E+00 0.  1.
</event>
<event>
 5    1  0.1047411E-009  0.9118800E+02  0.7815553E-02  0.1125453E+00
         25   -1    0    0    0    0  0.00000000000E+00  0.00000000000E+00  0.99999998245E-14  0.12509000000E+03  0.12509000000E+03 0.  0.
        -11    1    3    3    0    0 -0.42641930106E+02 -0.26646615157E+02 -0.23317807977E+02  0.55426496115E+02  0.51100000000E-03 0. -1.
         23    2    1    0    0    0 -0.21621585136E+02  0.84606392062E+01 -0.15735433004E+02  0.97042197744E+02  0.92900532461E+02 0.  0.
         11    1    3    3    0    0  0.21020344970E+02  0.35107254363E+02  0.75823749730E+01  0.41615701629E+02  0.51100000000E-03 0.  1.
         22    1    1    0    0    0  0.21621585136E+02 -0.84606392062E+01  0.15735433004E+02  0.28047802256E+02  0.00000000000E+00 0. -1.
</event>
<event>
 5    1  0.1047411E-009  0.9118800E+02  0.7815553E-02  0.1125453E+00
         25   -1    0    0    0    0  0.00000000000E+00  0.00000000000E+00  0.99999998245E-14  0.12509000000E+03  0.12509000000E+03 0.  0.
        -11    1    3    3    0    0  0.32445372800E+02 -0.96487778515E+01 -0.45205965693E+02  0.56474600173E+02  0.51100000000E-03 0. -1.
         23    2    1    0    0    0  0.30305905189E-01  0.98448258528E+01 -0.22347336172E+02  0.10067023447E+03  0.97663561065E+02 0.  0.
         11    1    3    3    0    0 -0.32415066895E+02  0.19493603704E+02  0.22858629521E+02  0.44195634299E+02  0.51100000000E-03 0.  1.
         22    1    1    0    0    0 -0.30305905189E-01 -0.98448258528E+01  0.22347336172E+02  0.24419765529E+02  0.00000000000E+00 0.  1.
</event>
<event>
 5    1  0.1047411E-009  0.9118800E+02  0.7815553E-02  0.1125453E+00
         25   -1    0    0    0    0  0.00000000000E+00  0.00000000000E+00  0.99999998245E-14  0.12509000000E+03  0.12509000000E+03 0.  0.
        -11    1    3    3    0    0  0.51913719424E+02  0.26666136735E+02  0.13853060365E+02  0.59983534362E+02  0.51100000000E-03 0. -1.
         23    2    1    0    0    0  0.16701178202E+02  0.21745298754E+02  0.14738525345E+01  0.97631674987E+02  0.93690897895E+02 0.  0.
         11    1    3    3    0    0 -0.35212541222E+02 -0.49208379815E+01 -0.12379207831E+02  0.37648140625E+02  0.51100000000E-03 0.  1.
         22    1    1    0    0    0 -0.16701178202E+02 -0.21745298754E+02 -0.14738525345E+01  0.27458325013E+02  0.00000000000E+00 0. -1.
</event>
<event>
 5    1  0.1047411E-009  0.9118800E+02  0.7815553E-02  0.1125453E+00
         25   -1    0    0    0    0  0.00000000000E+00  0.00000000000E+00  0.99999998245E-14  0.12509000000E+03  0.12509000000E+03 0.  0.
        -11    1    3    3    0    0  0.59708369656E+01 -0.33648276364E+02 -0.95784604400E+01  0.35490904483E+02  0.51100000000E-03 0.  1.
         23    2    1    0    0    0 -0.19564345641E+02  0.20779948043E+02 -0.71838934946E+01  0.95659094700E+02  0.91019142009E+02 0.  0.
         11    1    3    3    0    0 -0.25535182607E+02  0.54428224407E+02  0.23945669454E+01  0.60168190217E+02  0.51100000000E-03 0. -1.
         22    1    1    0    0    0  0.19564345641E+02 -0.20779948043E+02  0.71838934946E+01  0.29430905300E+02  0.00000000000E+00 0. -1.
</event>
<event>
 5    1  0.1047411E-009  0.9118800E+02  0.7815553E-02  0.1125453E+00
         25   -1    0    0    0    0  0.00000000000E+00  0.00000000000E+00  0.99999998245E-14  0.12509000000E+03  0.12509000000E+03 0.  0.
        -11    1    3    3    0    0 -0.20064117829E+02  0.36185251421E+02  0.36014704725E+01  0.41532057913E+02  0.51100000000E-03 0.  1.
         23    2    1    0    0    0 -0.44565078697E+01 -0.86723332598E+01  0.28365382664E+02  0.95095587850E+02  0.90241376697E+02 0.  0.
         11    1    3    3    0    0  0.15607609959E+02 -0.44857584681E+02  0.24763912192E+02  0.53563529937E+02  0.51100000000E-03 0. -1.
         22    1    1    0    0    0  0.44565078697E+01  0.86723332598E+01 -0.28365382664E+02  0.29994412150E+02  0.00000000000E+00 0. -1.
</event>
<event>
 5    1  0.1047411E-009  0.9118800E+02  0.7815553E-02  0.1125453E+00
         25   -1    0    0    0    0  0.00000000000E+00  0.00000000000E+00  0.99999998245E-14  0.12509000000E+03  0.12509000000E+03 0.  0.
        -11    1    3    3    0    0 -0.25281184151E+02  0.23893583466E+02  0.12250436066E+02  0.36879734095E+02  0.51100000000E-03 0. -1.
         23    2    1    0    0    0 -0.35657034558E+01 -0.28866778077E+02 -0.27525948822E+01  0.95873876091E+02  0.91313844626E+02 0.  0.
         11    1    3    3    0    0  0.21715480695E+02 -0.52760361542E+02 -0.15003030948E+02  0.58994141996E+02  0.51100000000E-03 0.  1.
         22    1    1    0    0    0  0.35657034558E+01  0.28866778077E+02  0.27525948822E+01  0.29216123909E+02  0.00000000000E+00 0.  1.
</event>
<event>
 5    1  0.1047411E-009  0.9118800E+02  0.7815553E-02  0.1125453E+00
         25   -1    0    0    0    0  0.00000000000E+00  0.00000000000E+00  0.99999998245E-14  0.12509000000E+03  0.12509000000E+03 0.  0.
        -11    1    3    3    0    0  0.45229190813E+02  0.40820900876E+02  0.77639155625E+01  0.61419085267E+02  0.51100000000E-03 0. -1.
         23    2    1    0    0    0  0.26984184035E+02  0.13077527818E+02  0.40682319356E+01  0.94829160075E+02  0.89871303360E+02 0.  0.
         11    1    3    3    0    0 -0.18245006777E+02 -0.27743373058E+02 -0.36956836270E+01  0.33410074808E+02  0.51100000000E-03 0.  1.
         22    1    1    0    0    0 -0.26984184035E+02 -0.13077527818E+02 -0.40682319356E+01  0.30260839925E+02  0.00000000000E+00 0. -1.
</event>
<event>
 5    1  0.1047411E-009  0.9118800E+02  0.7815553E-02  0.1125453E+00
         25   -1    0    0    0    0  0.00000000000E+00  0.00000000000E+00  0.99999998245E-14  0.12509000000E+03  0.12509000000E+03 0.  0.
        -11    1    3    3    0    0 -0.61367349903E+01  0.15895870018E+02 -0.34461608254E+02  0.38443993597E+02  0.51100000000E-03 0. -1.
         23    2    1    0    0    0 -0.24658462190E+02  0.22781254151E+01  0.17165962051E+02  0.94958623229E+02  0.90051320142E+02 0.  0.
         11    1    3    3    0    0 -0.18521727200E+02 -0.13617744603E+02  0.51627570305E+02  0.56514629632E+02  0.51100000000E-03 0.  1.
         22    1    1    0    0    0  0.24658462190E+02 -0.22781254151E+01 -0.17165962051E+02  0.30131376771E+02  0.00000000000E+00 0.  1.
</event>
<event>
 5    1  0.1047411E-009  0.9118800E+02  0.7815553E-02  0.1125453E+00
         25   -1    0    0    0    0  0.00000000000E+00  0.00000000000E+00  0.99999998245E-14  0.12509000000E+03  0.12509000000E+03 0.  0.
        -11    1    3    3    0    0 -0.14357196745E+02  0.28777872756E+02  0.40373502930E+02  0.51617001054E+02  0.51100000000E-03 0.  1.
         23    2    1    0    0    0  0.19569132144E+02  0.13090331219E+02  0.20067537518E+02  0.94154360903E+02  0.88927104477E+02 0.  0.
         11    1    3    3    0    0  0.33926328889E+02 -0.15687541536E+02 -0.20305965412E+02  0.42537359849E+02  0.51100000000E-03 0. -1.
         22    1    1    0    0    0 -0.19569132144E+02 -0.13090331219E+02 -0.20067537518E+02  0.30935639097E+02  0.00000000000E+00 0.  1.
</event>
<event>
 5    1  0.1047411E-009  0.9118800E+02  0.7815553E-02  0.1125453E+00
         25   -1    0    0    0    0  0.00000000000E+00  0.00000000000E+00  0.99999998245E-14  0.12509000000E+03  0.12509000000E+03 0.  0.
        -11    1    3    3    0    0 -0.88857197387E+01 -0.95128563085E+01 -0.29457917906E+02  0.32205890425E+02  0.51100000000E-03 0. -1.
         23    2    1    0    0    0 -0.15079970654E+01  0.14170089881E+02  0.27381538621E+02  0.94222312046E+02  0.89022637164E+02 0.  0.
         11    1    3    3    0    0  0.73777226732E+01  0.23682946190E+02  0.56839456527E+02  0.62016421621E+02  0.51100000000E-03 0.  1.
         22    1    1    0    0    0  0.15079970654E+01 -0.14170089881E+02 -0.27381538621E+02  0.30867687954E+02  0.00000000000E+00 0.  1.
</event>
<event>
 5    1  0.1047411E-009  0.9118800E+02  0.7815553E-02  0.1125453E+00
         25   -1    0    0    0    0  0.00000000000E+00  0.00000000000E+00  0.99999998245E-14  0.12509000000E+03  0.12509000000E+03 0.  0.
        -11    1    3    3    0    0  0.37679308178E+02 -0.25198115190E+02  0.25501131455E+02  0.52009450868E+02  0.51100000000E-03 0. -1.
         23    2    1    0    0    0 -0.46419892225E+01 -0.13810059225E+02  0.25367493012E+02  0.95836359176E+02  0.91262436077E+02 0.  0.
         11    1    3    3    0    0 -0.42321297400E+02  0.11388055966E+02 -0.13363844252E+00  0.43826908308E+02  0.51100000000E-03 0.  1.
         22    1    1    0    0    0  0.46419892225E+01  0.13810059225E+02 -0.25367493012E+02  0.29253640824E+02  0.00000000000E+00 0. -1.
</event>
<event>
 5    1  0.1047411E-009  0.9118800E+02  0.7815553E-02  0.1125453E+00
         25   -1    0    0    0    0  0.00000000000E+00  0.00000000000E+00  0.99999998245E-14  0.12509000000E+03  0.12509000000E+03 0.  0.
        -11    1    3    3    0    0  0.18604871722E+02  0.19331280762E+02  0.70546585399E+01  0.27741807350E+02  0.51100000000E-03 0.  1.
         23    2    1    0    0    0 -0.13522656046E+02 -0.19963615938E+02 -0.27019883771E+02  0.88875606358E+02  0.81162744523E+02 0.  0.
         11    1    3    3    0    0 -0.32127527768E+02 -0.39294896700E+02 -0.34074542311E+02  0.61133799008E+02  0.51100000000E-03 0. -1.
         22    1    1    0    0    0  0.13522656046E+02  0.19963615938E+02  0.27019883771E+02  0.36214393642E+02  0.00000000000E+00 0. -1.
</event>
<event>
 5    1  0.1047411E-009  0.9118800E+02  0.7815553E-02  0.1125453E+00
         25   -1    0    0    0    0  0.00000000000E+00  0.00000000000E+00  0.99999998245E-14  0.12509000000E+03  0.12509000000E+03 0.  0.
        -11    1    3    3    0    0 -0.43768347946E+01  0.39991421369E+02  0.31466248778E+02  0.51074409232E+02  0.51100000000E-03 0.  1.
         23    2    1    0    0    0 -0.26353583703E+02  0.11337812956E+02  0.47118094650E+01  0.96016669866E+02  0.91509247440E+02 0.  0.
         11    1    3    3    0    0 -0.21976748909E+02 -0.28653608413E+02 -0.26754439313E+02  0.44942260634E+02  0.51100000000E-03 0. -1.
         22    1    1    0    0    0  0.26353583703E+02 -0.11337812956E+02 -0.47118094650E+01  0.29073330134E+02  0.00000000000E+00 0. -1.
</event>
<event>
 5    1  0.1047411E-009  0.9118800E+02  0.7815553E-02  0.1125453E+00
         25   -1    0    0    0    0  0.00000000000E+00  0.00000000000E+00  0.99999998245E-14  0.12509000000E+03  0.12509000000E+03 0.  0.
        -11    1    3    3    0    0 -0.17114698937E+02  0.54475813250E+01 -0.44551940356E+02  0.48036074483E+02  0.51100000000E-03 0. -1.
         23    2    1    0    0    0 -0.20119110812E+02 -0.23641867244E+02 -0.11967348681E+02  0.91819383217E+02  0.85579583974E+02 0.  0.
         11    1    3    3    0    0 -0.30044118755E+01 -0.29089448569E+02  0.32584591675E+02  0.43783308734E+02  0.51100000000E-03 0.  1.
         22    1    1    0    0    0  0.20119110812E+02  0.23641867244E+02  0.11967348681E+02  0.33270616783E+02  0.00000000000E+00 0.  1.
</event>
<event>
 5    1  0.1047411E-009  0.9118800E+02  0.7815553E-02  0.1125453E+00
         25   -1    0    0    0    0  0.00000000000E+00  0.00000000000E+00  0.99999998245E-14  0.12509000000E+03  0.12509000000E+03 0.  0.
        -11    1    3    3    0    0  0.57925669257E+02 -0.17226754242E+02  0.26404481492E+01  0.60490628922E+02  0.51100000000E-03 0. -1.
         23    2    1    0    0    0  0.28381262733E+02  0.81570681106E+00  0.81643052401E+01  0.95546517944E+02  0.90864293093E+02 0.  0.
         11    1    3    3    0    0 -0.29544406524E+02  0.18042461054E+02  0.55238570908E+01  0.35055889022E+02  0.51100000000E-03 0.  1.
         22    1    1    0    0    0 -0.28381262733E+02 -0.81570681106E+00 -0.81643052401E+01  0.29543482056E+02  0.00000000000E+00 0. -1.
</event>
<event>
 5    1  0.1047411E-009  0.9118800E+02  0.7815553E-02  0.1125453E+00
         25   -1    0    0    0    0  0.00000000000E+00  0.00000000000E+00  0.99999998245E-14  0.12509000000E+03  0.12509000000E+03 0.  0.
        -11    1    3    3    0    0  0.36514108730E+02 -0.53517708536E+01  0.32023891206E+02  0.48861551304E+02  0.51100000000E-03 0. -1.
         23    2    1    0    0    0  0.13380534120E+01 -0.27498549344E+02  0.11004340600E+02  0.95441119498E+02  0.90719078347E+02 0.  0.
         11    1    3    3    0    0 -0.35176055318E+02 -0.22146778490E+02 -0.21019550607E+02  0.46579568194E+02  0.51100000000E-03 0.  1.
         22    1    1    0    0    0 -0.13380534120E+01  0.27498549344E+02 -0.11004340600E+02  0.29648880502E+02  0.00000000000E+00 0.  1.
</event>
<event>
 5    1  0.1047411E-009  0.9118800E+02  0.7815553E-02  0.1125453E+00
         25   -1    0    0    0    0  0.00000000000E+00  0.00000000000E+00  0.99999998245E-14  0.12509000000E+03  0.12509000000E+03 0.  0.
        -11    1    3    3    0    0  0.12939936395E+02  0.25048480655E+02  0.23343728052E+02  0.36603250903E+02  0.51100000000E-03 0.  1.
         23    2    1    0    0    0  0.23153860312E+02  0.64117395929E+01 -0.25612233474E+02  0.89973078787E+02  0.82836928667E+02 0.  0.
         11    1    3    3    0    0  0.10213923917E+02 -0.18636741062E+02 -0.48955961526E+02  0.53369827884E+02  0.51100000000E-03 0. -1.
         22    1    1    0    0    0 -0.23153860312E+02 -0.64117395929E+01  0.25612233474E+02  0.35116921213E+02  0.00000000000E+00 0. -1.
</event>
<event>
 5    1  0.1047411E-009  0.9118800E+02  0.7815553E-02  0.1125453E+00
         25   -1    0    0    0    0  0.00000000000E+00  0.00000000000E+00  0.99999998245E-14  0.12509000000E+03  0.12509000000E+03 0.  0.
        -11    1    3    3    0    0 -0.33055673838E+01 -0.61795825754E+02 -0.44643958204E+01  0.62044997273E+02  0.51100000000E-03 0.  1.
         23    2    1    0    0    0  0.25130479667E-01 -0.30391600566E+02  0.31654876606E+01  0.94533980484E+02  0.89459505574E+02 0.  0.
         11    1    3    3    0    0  0.33306978634E+01  0.31404225188E+02  0.76298834810E+01  0.32488983211E+02  0.51100000000E-03 0. -1.
         22    1    1    0    0    0 -0.25130479667E-01  0.30391600566E+02 -0.31654876606E+01  0.30556019516E+02  0.00000000000E+00 0.  1.
</event>
<event>
 5    1  0.1047411E-009  0.9118800E+02  0.7815553E-02  0.1125453E+00
         25   -1    0    0    0    0  0.00000000000E+00  0.00000000000E+00  0.99999998245E-14  0.12509000000E+03  0.12509000000E+03 0.  0.
        -11    1    3    3    0    0  0.13840007340E+02 -0.52184844012E+01  0.41426285724E+02  0.43987674771E+02  0.51100000000E-03 0. -1.
         23    2    1    0    0    0 -0.37769884384E+01  0.28506832658E+02  0.65614738932E+01  0.95594948050E+02  0.90930940846E+02 0.  0.
         11    1    3    3    0    0 -0.17616995778E+02  0.33725317060E+02 -0.34864811831E+02  0.51607273279E+02  0.51100000000E-03 0.  1.
         22    1    1    0    0    0  0.37769884384E+01 -0.28506832658E+02 -0.65614738932E+01  0.29495051950E+02  0.00000000000E+00 0.  1.
</event>
<event>
 5    1  0.1047411E-009  0.9118800E+02  0.7815553E-02  0.1125453E+00
         25   -1    0    0    0    0  0.00000000000E+00  0.00000000000E+00  0.99999998245E-14  0.12509000000E+03  0.12509000000E+03 0.  0.
        -11    1    3    3    0    0 -0.10414221145E+01 -0.87462227156E+01 -0.32985312944E+02  0.34141058011E+02  0.51100000000E-03 0. -1.
         23    2    1    0    0    0  0.18033816215E-01  0.22205453139E+02  0.19798765850E+02  0.95339813387E+02  0.90579282472E+02 0.  0.
         11    1    3    3    0    0  0.10594559307E+01  0.30951675855E+02  0.52784078795E+02  0.61198755376E+02  0.51100000000E-03 0.  1.
         22    1    1    0    0    0 -0.18033816215E-01 -0.22205453139E+02 -0.19798765850E+02  0.29750186613E+02  0.00000000000E+00 0.  1.
</event>
<event>
 5    1  0.1047411E-009  0.9118800E+02  0.7815553E-02  0.1125453E+00
         25   -1    0    0    0    0  0.00000000000E+00  0.00000000000E+00  0.99999998245E-14  0.12509000000E+03  0.12509000000E+03 0.  0.
        -11    1    3    3    0    0 -0.28152185638E+02  0.17700899199E+02 -0.17797703502E+02  0.37717709884E+02  0.51100000000E-03 0.  1.
         23    2    1    0    0    0 -0.45730630222E+00  0.27766811905E+01  0.30010146943E+02  0.94948201662E+02  0.90036842413E+02 0.  0.
         11    1    3    3    0    0  0.27694879336E+02 -0.14924218009E+02  0.47807850446E+02  0.57230491778E+02  0.51100000000E-03 0. -1.
         22    1    1    0    0    0  0.45730630222E+00 -0.27766811905E+01 -0.30010146943E+02  0.30141798338E+02  0.00000000000E+00 0. -1.
</event>
<event>
 5    1  0.1047411E-009  0.9118800E+02  0.7815553E-02  0.1125453E+00
         25   -1    0    0    0    0  0.00000000000E+00  0.00000000000E+00  0.99999998245E-14  0.12509000000E+03  0.12509000000E+03 0.  0.
        -11    1    3    3    0    0  0.52426652510E+02  0.15954716256E+02  0.90642902379E+01  0.55545190809E+02  0.51100000000E-03 0. -1.
         23    2    1    0    0    0  0.21157655673E+02 -0.32779076236E+01  0.21927185240E+02  0.94443751869E+02  0.89333251047E+02 0.  0.
         11    1    3    3    0    0 -0.31268996837E+02 -0.19232623879E+02  0.12862895002E+02  0.38898561061E+02  0.51100000000E-03 0.  1.
         22    1    1    0    0    0 -0.21157655673E+02  0.32779076236E+01 -0.21927185240E+02  0.30646248131E+02  0.00000000000E+00 0. -1.
</event>
<event>
 5    1  0.1047411E-009  0.9118800E+02  0.7815553E-02  0.1125453E+00
         25   -1    0    0    0    0  0.00000000000E+00  0.00000000000E+00  0.99999998245E-14  0.12509000000E+03  0.12509000000E+03 0.  0.
        -11    1    3    3    0    0  0.60375928736E+01 -0.60063610588E+02  0.21510101190E+01  0.60404608180E+02  0.51100000000E-03 0.  1.
         23    2    1    0    0    0  0.13757998837E+02 -0.25730845237E+02  0.39775437981E+01  0.95642083550E+02  0.90995760134E+02 0.  0.
         11    1    3    3    0    0  0.77204059631E+01  0.34332765351E+02  0.18265336790E+01  0.35237475370E+02  0.51100000000E-03 0. -1.
         22    1    1    0    0    0 -0.13757998837E+02  0.25730845237E+02 -0.39775437981E+01  0.29447916450E+02  0.00000000000E+00 0.  1.
</event>
<event>
 5    1  0.1047411E-009  0.9118800E+02  0.7815553E-02  0.1125453E+00
         25   -1    0    0    0    0  0.00000000000E+00  0.00000000000E+00  0.99999998245E-14  0.12509000000E+03  0.12509000000E+03 0.  0.
        -11    1    3    3    0    0  0.26737377547E+01  0.41937966670E+02  0.28586768482E+02  0.50824652035E+02  0.51100000000E-03 0. -1.
         23    2    1    0    0    0 -0.15095619150E+01 -0.19785610770E+01  0.30023667102E+02  0.94963366146E+02  0.90057908272E+02 0.  0.
         11    1    3    3    0    0 -0.41832996697E+01 -0.43916527747E+02  0.14368986201E+01  0.44138714111E+02  0.51100000000E-03 0.  1.
         22    1    1    0    0    0  0.15095619150E+01  0.19785610770E+01 -0.30023667102E+02  0.30126633854E+02  0.00000000000E+00 0. -1.
</event>
<event>
 5    1  0.1047411E-009  0.9118800E+02  0.7815553E-02  0.1125453E+00
         25   -1    0    0    0    0  0.00000000000E+00  0.00000000000E+00  0.99999998245E-14  0.12509000000E+03  0.12509000000E+03 0.  0.
        -11    1    3    3    0    0 -0.21478903846E+02 -0.34392702357E+02 -0.24298725837E+02  0.47271866511E+02  0.51100000000E-03 0. -1.
         23    2    1    0    0    0 -0.28080870133E+02  0.86286994013E+01 -0.16195454252E+02  0.91544769948E+02  0.85177241359E+02 0.  0.
         11    1    3    3    0    0 -0.66019662874E+01  0.43021401758E+02  0.81032715848E+01  0.44272903437E+02  0.51100000000E-03 0.  1.
         22    1    1    0    0    0  0.28080870133E+02 -0.86286994013E+01  0.16195454252E+02  0.33545230052E+02  0.00000000000E+00 0.  1.
</event>
<event>
 5    1  0.1047411E-009  0.9118800E+02  0.7815553E-02  0.1125453E+00
         25   -1    0    0    0    0  0.00000000000E+00  0.00000000000E+00  0.99999998245E-14  0.12509000000E+03  0.12509000000E+03 0.  0.
        -11    1    3    3    0    0 -0.54792996678E+01 -0.67316476644E+01  0.54689066750E+02  0.55373566143E+02  0.51100000000E-03 0.  1.
         23    2    1    0    0    0 -0.20442241947E+02 -0.10223551490E+02  0.15481989990E+02  0.97483872511E+02  0.93493353372E+02 0.  0.
         11    1    3    3    0    0 -0.14962942280E+02 -0.34919038258E+01 -0.39207076760E+02  0.42110306367E+02  0.51100000000E-03 0. -1.
         22    1    1    0    0    0  0.20442241947E+02  0.10223551490E+02 -0.15481989990E+02  0.27606127489E+02  0.00000000000E+00 0.  1.
</event>
<event>
 5    1  0.1047411E-009  0.9118800E+02  0.7815553E-02  0.1125453E+00
         25   -1    0    0    0    0  0.00000000000E+00  0.00000000000E+00  0.99999998245E-14  0.12509000000E+03  0.12509000000E+03 0.  0.
        -11    1    3    3    0    0  0.50262407129E+02 -0.45142271376E+01  0.17832243391E+02  0.53522674836E+02  0.51100000000E-03 0.  1.
         23    2    1    0    0    0  0.18156366651E+02 -0.19314198176E+02 -0.81054492936E+01  0.97370147739E+02  0.93341070603E+02 0.  0.
         11    1    3    3    0    0 -0.32106040477E+02 -0.14799971038E+02 -0.25937692685E+02  0.43847472902E+02  0.51100000000E-03 0. -1.
         22    1    1    0    0    0 -0.18156366651E+02  0.19314198176E+02  0.81054492936E+01  0.27719852261E+02  0.00000000000E+00 0.  1.
</event>
<event>
 5    1  0.1047411E-009  0.9118800E+02  0.7815553E-02  0.1125453E+00
         25   -1    0    0    0    0  0.00000000000E+00  0.00000000000E+00  0.99999998245E-14  0.12509000000E+03  0.12509000000E+03 0.  0.
        -11    1    3    3    0    0  0.49948491651E+01  0.29088537705E+02  0.28236029385E+02  0.40845622773E+02  0.51100000000E-03 0. -1.
         23    2    1    0    0    0  0.21641349795E+02 -0.18464054201E+02  0.55212133751E+01  0.96111505981E+02  0.91638793458E+02 0.  0.
         11    1    3    3    0    0  0.16646500629E+02 -0.47552591906E+02 -0.22714816010E+02  0.55265883208E+02  0.51100000000E-03 0.  1.
         22    1    1    0    0    0 -0.21641349795E+02  0.18464054201E+02 -0.55212133751E+01  0.28978494019E+02  0.00000000000E+00 0.  1.
</event>
<event>
 5    1  0.1047411E-009  0.9118800E+02  0.7815553E-02  0.1125453E+00
         25   -1    0    0    0    0  0.00000000000E+00  0.00000000000E+00  0.99999998245E-14  0.12509000000E+03  0.12509000000E+03 0.  0.
        -11    1    3    3    0    0 -0.47298803229E+01 -0.28691350768E+02  0.21775926105E+02  0.36328450762E+02  0.51100000000E-03 0.  1.
         23    2    1    0    0    0 -0.20761487311E+02  0.21204821451E+02 -0.46982863021E+01  0.95044073449E+02  0.90169940642E+02 0.  0.
         11    1    3    3    0    0 -0.16031606988E+02  0.49896172219E+02 -0.26474212407E+02  0.58715622687E+02  0.51100000000E-03 0. -1.
         22    1    1    0    0    0  0.20761487311E+02 -0.21204821451E+02  0.46982863021E+01  0.30045926551E+02  0.00000000000E+00 0. -1.
</event>
<event>
 5    1  0.1047411E-009  0.9118800E+02  0.7815553E-02  0.1125453E+00
         25   -1    0    0    0    0  0.00000000000E+00  0.00000000000E+00  0.99999998245E-14  0.12509000000E+03  0.12509000000E+03 0.  0.
        -11    1    3    3    0    0  0.29495276444E+02  0.11515639332E+02  0.40039737531E+02  0.51046663589E+02  0.51100000000E-03 0. -1.
         23    2    1    0    0    0 -0.28243601463E+01  0.25238703386E+02  0.83181715380E+01  0.98366206546E+02  0.94666517067E+02 0.  0.
         11    1    3    3    0    0 -0.32319636591E+02  0.13723064054E+02 -0.31721565993E+02  0.47319542957E+02  0.51100000000E-03 0.  1.
         22    1    1    0    0    0  0.28243601463E+01 -0.25238703386E+02 -0.83181715380E+01  0.26723793454E+02  0.00000000000E+00 0. -1.
</event>
<event>
 5    1  0.1047411E-009  0.9118800E+02  0.7815553E-02  0.1125453E+00
         25   -1    0    0    0    0  0.00000000000E+00  0.00000000000E+00  0.99999998245E-14  0.12509000000E+03  0.12509000000E+03 0.  0.
        -11    1    3    3    0    0  0.49605185361E+02 -0.16041657992E+02  0.30853225784E+02  0.60579953346E+02  0.51100000000E-03 0. -1.
         23    2    1    0    0    0  0.13203403860E+02 -0.14427829374E+02  0.15564839404E+02  0.10009487328E+03  0.96923822138E+02 0.  0.
         11    1    3    3    0    0 -0.36401781501E+02  0.16138286184E+01 -0.15288386379E+02  0.39514919937E+02  0.51100000000E-03 0.  1.
         22    1    1    0    0    0 -0.13203403860E+02  0.14427829374E+02 -0.15564839404E+02  0.24995126717E+02  0.00000000000E+00 0. -1.
</event>
<event>
 5    1  0.1047411E-009  0.9118800E+02  0.7815553E-02  0.1125453E+00
         25   -1    0    0    0    0  0.00000000000E+00  0.00000000000E+00  0.99999998245E-14  0.12509000000E+03  0.12509000000E+03 0.  0.
        -11    1    3    3    0    0 -0.37923059720E+02  0.40591068734E+02  0.28245073176E+02  0.62318355871E+02  0.51100000000E-03 0. -1.
         23    2    1    0    0    0 -0.15315559122E+02  0.21891143166E+02  0.13725555951E+02  0.95053698854E+02  0.90183292684E+02 0.  0.
         11    1    3    3    0    0  0.22607500598E+02 -0.18699925568E+02 -0.14519517225E+02  0.32735342983E+02  0.51100000000E-03 0.  1.
         22    1    1    0    0    0  0.15315559122E+02 -0.21891143166E+02 -0.13725555951E+02  0.30036301146E+02  0.00000000000E+00 0. -1.
</event>
<event>
 5    1  0.1047411E-009  0.9118800E+02  0.7815553E-02  0.1125453E+00
         25   -1    0    0    0    0  0.00000000000E+00  0.00000000000E+00  0.99999998245E-14  0.12509000000E+03  0.12509000000E+03 0.  0.
        -11    1    3    3    0    0 -0.17125974692E+02 -0.88970762359E+01 -0.34712371625E+02  0.39716567309E+02  0.51100000000E-03 0.  1.
         23    2    1    0    0    0 -0.18917197251E+02  0.21011120006E+02  0.11315584402E+02  0.94637250271E+02  0.89603789946E+02 0.  0.
         11    1    3    3    0    0 -0.17912225590E+01  0.29908196242E+02  0.46027956027E+02  0.54920682962E+02  0.51100000000E-03 0. -1.
         22    1    1    0    0    0  0.18917197251E+02 -0.21011120006E+02 -0.11315584402E+02  0.30452749729E+02  0.00000000000E+00 0.  1.
</event>
<event>
 5    1  0.1047411E-009  0.9118800E+02  0.7815553E-02  0.1125453E+00
         25   -1    0    0    0    0  0.00000000000E+00  0.00000000000E+00  0.99999998245E-14  0.12509000000E+03  0.12509000000E+03 0.  0.
        -11    1    3    3    0    0  0.40021314461E+02 -0.68534160471E+01  0.12325248478E+02  0.42433320315E+02  0.51100000000E-03 0. -1.
         23    2    1    0    0    0 -0.15163290588E+02 -0.17463520837E+02  0.12851946934E+02  0.98631117154E+02  0.95015918612E+02 0.  0.
         11    1    3    3    0    0 -0.55184605048E+02 -0.10610104790E+02  0.52669845527E+00  0.56197796839E+02  0.51100000000E-03 0.  1.
         22    1    1    0    0    0  0.15163290588E+02  0.17463520837E+02 -0.12851946934E+02  0.26458882846E+02  0.00000000000E+00 0.  1.
</event>
<event>
 5    1  0.1047411E-009  0.9118800E+02  0.7815553E-02  0.1125453E+00
         25   -1    0    0    0    0  0.00000000000E+00  0.00000000000E+00  0.99999998245E-14  0.12509000000E+03  0.12509000000E+03 0.  0.
        -11    1    3    3    0    0  0.29604747519E+01  0.38953390440E+02  0.36780971345E+02  0.53656042445E+02  0.51100000000E-03 0. -1.
         23    2    1    0    0    0  0.15488313928E+02  0.31474472831E-01  0.24056697123E+02  0.96478576836E+02  0.92138494956E+02 0.  0.
         11    1    3    3    0    0  0.12527839177E+02 -0.38921915967E+02 -0.12724274222E+02  0.42822534391E+02  0.51100000000E-03 0.  1.
         22    1    1    0    0    0 -0.15488313928E+02 -0.31474472831E-01 -0.24056697123E+02  0.28611423164E+02  0.00000000000E+00 0. -1.
</event>
<event>
 5    1  0.1047411E-009  0.9118800E+02  0.7815553E-02  0.1125453E+00
         25   -1    0    0    0    0  0.00000000000E+00  0.00000000000E+00  0.99999998245E-14  0.12509000000E+03  0.12509000000E+03 0.  0.
        -11    1    3    3    0    0 -0.44201587900E+02 -0.21233490412E+02 -0.35128780830E+02  0.60321411876E+02  0.51100000000E-03 0. -1.
         23    2    1    0    0    0 -0.23543802588E+02  0.15747118356E+01 -0.16561204117E+02  0.96261822127E+02  0.91843750793E+02 0.  0.
         11    1    3    3    0    0  0.20657785311E+02  0.22808202247E+02  0.18567576712E+02  0.35940410250E+02  0.51100000000E-03 0.  1.
         22    1    1    0    0    0  0.23543802588E+02 -0.15747118356E+01  0.16561204117E+02  0.28828177873E+02  0.00000000000E+00 0. -1.
</event>
<event>
 5    1  0.1047411E-009  0.9118800E+02  0.7815553E-02  0.1125453E+00
         25   -1    0    0    0    0  0.00000000000E+00  0.00000000000E+00  0.99999998245E-14  0.12509000000E+03  0.12509000000E+03 0.  0.
        -11    1    3    3    0    0  0.42571560556E+01 -0.80967747880E+01  0.59911103640E+02  0.60605457504E+02  0.51100000000E-03 0.  1.
         23    2    1    0    0    0 -0.65214174483E+01  0.10599844826E+01  0.36807578456E+02  0.87694140811E+02  0.79320943314E+02 0.  0.
         11    1    3    3    0    0 -0.10778573504E+02  0.91567592706E+01 -0.23103525184E+02  0.27088683307E+02  0.51100000000E-03 0. -1.
         22    1    1    0    0    0  0.65214174483E+01 -0.10599844826E+01 -0.36807578456E+02  0.37395859189E+02  0.00000000000E+00 0.  1.
</event>
<event>
 5    1  0.1047411E-009  0.9118800E+02  0.7815553E-02  0.1125453E+00
         25   -1    0    0    0    0  0.00000000000E+00  0.00000000000E+00  0.99999998245E-14  0.12509000000E+03  0.12509000000E+03 0.  0.
        -11    1    3    3    0    0  0.18239990121E+02  0.30623022229E+02  0.33387433813E+01  0.35799635999E+02  0.51100000000E-03 0.  1.
         23    2    1    0    0    0 -0.26956397525E+02  0.48318676913E+01  0.20813000702E+02  0.90692684536E+02  0.83916552106E+02 0.  0.
         11    1    3    3    0    0 -0.45196387646E+02 -0.25791154537E+02  0.17474257320E+02  0.54893048537E+02  0.51100000000E-03 0. -1.
         22    1    1    0    0    0  0.26956397525E+02 -0.48318676913E+01 -0.20813000702E+02  0.34397315464E+02  0.00000000000E+00 0. -1.
</event>
<event>
 5    1  0.1047411E-009  0.9118800E+02  0.7815553E-02  0.1125453E+00
         25   -1    0    0    0    0  0.00000000000E+00  0.00000000000E+00  0.99999998245E-14  0.12509000000E+03  0.12509000000E+03 0.  0.
        -11    1    3    3    0    0  0.14171869158E+02  0.54640721673E+02 -0.17605272548E+02  0.59130330307E+02  0.51100000000E-03 0.  1.
         23    2    1    0    0    0 -0.12423745196E+01  0.28974362723E+02  0.36681296031E+01  0.95857956547E+02  0.91292033984E+02 0.  0.
         11    1    3    3    0    0 -0.15414243678E+02 -0.25666358950E+02  0.21273402151E+02  0.36727626240E+02  0.51100000000E-03 0. -1.
         22    1    1    0    0    0  0.12423745196E+01 -0.28974362723E+02 -0.36681296031E+01  0.29232043453E+02  0.00000000000E+00 0.  1.
</event>
<event>
 5    1  0.1047411E-009  0.9118800E+02  0.7815553E-02  0.1125453E+00
         25   -1    0    0    0    0  0.00000000000E+00  0.00000000000E+00  0.99999998245E-14  0.12509000000E+03  0.12509000000E+03 0.  0.
        -11    1    3    3    0    0  0.21932207053E+02 -0.55848584455E+02 -0.27614165391E+01  0.60064228234E+02  0.51100000000E-03 0.  1.
         23    2    1    0    0    0  0.94225188695E+01 -0.23031267704E+02 -0.13486541866E+02  0.96786113953E+02  0.92555074895E+02 0.  0.
         11    1    3    3    0    0 -0.12509688183E+02  0.32817316751E+02 -0.10725125326E+02  0.36721885719E+02  0.51100000000E-03 0. -1.
         22    1    1    0    0    0 -0.94225188695E+01  0.23031267704E+02  0.13486541866E+02  0.28303886047E+02  0.00000000000E+00 0.  1.
</event>
<event>
 5    1  0.1047411E-009  0.9118800E+02  0.7815553E-02  0.1125453E+00
         25   -1    0    0    0    0  0.00000000000E+00  0.00000000000E+00  0.99999998245E-14  0.12509000000E+03  0.12509000000E+03 0.  0.
        -11    1    3    3    0    0 -0.30456390892E+02 -0.12564155346E+02  0.61020600830E+01  0.33506490166E+02  0.51100000000E-03 0.  1.
         23    2    1    0    0    0  0.29768413981E+02  0.37918173334E+00  0.13795561666E+01  0.95287224543E+02  0.90506628134E+02 0.  0.
         11    1    3    3    0    0  0.60224804873E+02  0.12943337079E+02 -0.47225039164E+01  0.61780734377E+02  0.51100000000E-03 0. -1.
         22    1    1    0    0    0 -0.29768413981E+02 -0.37918173334E+00 -0.13795561666E+01  0.29802775457E+02  0.00000000000E+00 0. -1.
</event>
<event>
 5    1  0.1047411E-009  0.9118800E+02  0.7815553E-02  0.1125453E+00
         25   -1    0    0    0    0  0.00000000000E+00  0.00000000000E+00  0.99999998245E-14  0.12509000000E+03  0.12509000000E+03 0.  0.
        -11    1    3    3    0    0  0.86363020363E+01  0.47240465625E+02 -0.32360405592E+02  0.57908921210E+02  0.51100000000E-03 0.  1.
         23    2    1    0    0    0 -0.56661861079E+01  0.30453270518E+02 -0.39669515097E+01  0.93861102252E+02  0.88513628676E+02 0.  0.
         11    1    3    3    0    0 -0.14302488144E+02 -0.16787195107E+02  0.28393454083E+02  0.35952181042E+02  0.51100000000E-03 0. -1.
         22    1    1    0    0    0  0.56661861079E+01 -0.30453270518E+02  0.39669515097E+01  0.31228897748E+02  0.00000000000E+00 0.  1.
</event>
<event>
 5    1  0.1047411E-009  0.9118800E+02  0.7815553E-02  0.1125453E+00
         25   -1    0    0    0    0  0.00000000000E+00  0.00000000000E+00  0.99999998245E-14  0.12509000000E+03  0.12509000000E+03 0.  0.
        -11    1    3    3    0    0  0.20842771138E+02  0.35468933424E+02 -0.38838880406E+01  0.41322523320E+02  0.51100000000E-03 0. -1.
         23    2    1    0    0    0 -0.81102303948E+01 -0.19366933646E+02 -0.56111363720E+01  0.10335664298E+03  0.10104581555E+03 0.  0.
         11    1    3    3    0    0 -0.28953001533E+02 -0.54835867070E+02 -0.17272483315E+01  0.62034119661E+02  0.51100000000E-03 0.  1.
         22    1    1    0    0    0  0.81102303948E+01  0.19366933646E+02  0.56111363720E+01  0.21733357019E+02  0.00000000000E+00 0.  1.
</event>
<event>
 5    1  0.1047411E-009  0.9118800E+02  0.7815553E-02  0.1125453E+00
         25   -1    0    0    0    0  0.00000000000E+00  0.00000000000E+00  0.99999998245E-14  0.12509000000E+03  0.12509000000E+03 0.  0.
        -11    1    3    3    0    0  0.18287589642E+02 -0.19386434154E+01 -0.58306298977E+02  0.61137703375E+02  0.51100000000E-03 0.  1.
         23    2    1    0    0    0  0.10644039474E+00  0.13945540126E+01 -0.30684450013E+02  0.94373691904E+02  0.89235094780E+02 0.  0.
         11    1    3    3    0    0 -0.18181149247E+02  0.33331974280E+01  0.27621848964E+02  0.33235988529E+02  0.51100000000E-03 0. -1.
         22    1    1    0    0    0 -0.10644039474E+00 -0.13945540126E+01  0.30684450013E+02  0.30716308096E+02  0.00000000000E+00 0.  1.
</event>
<event>
 5    1  0.1047411E-009  0.9118800E+02  0.7815553E-02  0.1125453E+00
         25   -1    0    0    0    0  0.00000000000E+00  0.00000000000E+00  0.99999998245E-14  0.12509000000E+03  0.12509000000E+03 0.  0.
        -11    1    3    3    0    0 -0.86447085670E+01 -0.11735108057E+02 -0.53366793189E+02  0.55321409625E+02  0.51100000000E-03 0.  1.
         23    2    1    0    0    0  0.17246360616E+02 -0.68840897314E+01 -0.23311983365E+02  0.95286036936E+02  0.90504986717E+02 0.  0.
         11    1    3    3    0    0  0.25891069183E+02  0.48510183259E+01  0.30054809824E+02  0.39964627311E+02  0.51100000000E-03 0. -1.
         22    1    1    0    0    0 -0.17246360616E+02  0.68840897314E+01  0.23311983365E+02  0.29803963064E+02  0.00000000000E+00 0.  1.
</event>
<event>
 5    1  0.1047411E-009  0.9118800E+02  0.7815553E-02  0.1125453E+00
         25   -1    0    0    0    0  0.00000000000E+00  0.00000000000E+00  0.99999998245E-14  0.12509000000E+03  0.12509000000E+03 0.  0.
        -11    1    3    3    0    0 -0.43099862006E+02  0.80528771767E+01 -0.30519448562E+02  0.53421752840E+02  0.51100000000E-03 0.  1.
         23    2    1    0    0    0 -0.98535117950E+01 -0.18331880707E+02 -0.28610360482E+01  0.10408202361E+03  0.10193984778E+03 0.  0.
         11    1    3    3    0    0  0.33246350211E+02 -0.26384757883E+02  0.27658412514E+02  0.50660270765E+02  0.51100000000E-03 0. -1.
         22    1    1    0    0    0  0.98535117950E+01  0.18331880707E+02  0.28610360482E+01  0.21007976395E+02  0.00000000000E+00 0.  1.
</event>
<event>
 5    1  0.1047411E-009  0.9118800E+02  0.7815553E-02  0.1125453E+00
         25   -1    0    0    0    0  0.00000000000E+00  0.00000000000E+00  0.99999998245E-14  0.12509000000E+03  0.12509000000E+03 0.  0.
        -11    1    3    3    0    0 -0.20775506125E+02 -0.28910699216E+02 -0.87972115309E+01  0.36672075410E+02  0.51100000000E-03 0.  1.
         23    2    1    0    0    0  0.68739843402E+00  0.27309963440E+02 -0.70531848933E+01  0.96875570415E+02  0.92675898195E+02 0.  0.
         11    1    3    3    0    0  0.21462904559E+02  0.56220662656E+02  0.17440266376E+01  0.60203495004E+02  0.51100000000E-03 0. -1.
         22    1    1    0    0    0 -0.68739843402E+00 -0.27309963440E+02  0.70531848933E+01  0.28214429585E+02  0.00000000000E+00 0. -1.
</event>
<event>
 5    1  0.1047411E-009  0.9118800E+02  0.7815553E-02  0.1125453E+00
         25   -1    0    0    0    0  0.00000000000E+00  0.00000000000E+00  0.99999998245E-14  0.12509000000E+03  0.12509000000E+03 0.  0.
        -11    1    3    3    0    0  0.37959438336E+02  0.18388468052E+02  0.26506052684E+01  0.42262044728E+02  0.51100000000E-03 0. -1.
         23    2    1    0    0    0 -0.53401646468E+01  0.22822443218E+01 -0.27207857521E+02  0.97269261180E+02  0.93205770540E+02 0.  0.
         11    1    3    3    0    0 -0.43299602983E+02 -0.16106223730E+02 -0.29858462790E+02  0.55007216451E+02  0.51100000000E-03 0.  1.
         22    1    1    0    0    0  0.53401646468E+01 -0.22822443218E+01  0.27207857521E+02  0.27820738820E+02  0.00000000000E+00 0.  1.
</event>
<event>
 5    1  0.1047411E-009  0.9118800E+02  0.7815553E-02  0.1125453E+00
         25   -1    0    0    0    0  0.00000000000E+00  0.00000000000E+00  0.99999998245E-14  0.12509000000E+03  0.12509000000E+03 0.  0.
        -11    1    3    3    0    0 -0.33291932447E+02 -0.70808465129E+01 -0.32762758859E+02  0.47242878000E+02  0.51100000000E-03 0. -1.
         23    2    1    0    0    0  0.99785190979E+01  0.12887248776E+02 -0.24581882235E+02  0.95595577500E+02  0.90931806751E+02 0.  0.
         11    1    3    3    0    0  0.43270451545E+02  0.19968095289E+02  0.81808766241E+01  0.48352699500E+02  0.51100000000E-03 0.  1.
         22    1    1    0    0    0 -0.99785190979E+01 -0.12887248776E+02  0.24581882235E+02  0.29494422500E+02  0.00000000000E+00 0.  1.
</event>
<event>
 5    1  0.1047411E-009  0.9118800E+02  0.7815553E-02  0.1125453E+00
         25   -1    0    0    0    0  0.00000000000E+00  0.00000000000E+00  0.99999998245E-14  0.12509000000E+03  0.12509000000E+03 0.  0.
        -11    1    3    3    0    0  0.21308103365E+01  0.32221201930E+02 -0.10080222269E+01  0.32307310559E+02  0.51100000000E-03 0.  1.
         23    2    1    0    0    0 -0.18415887492E+02 -0.21671212909E+02 -0.16738809453E+02  0.92090392078E+02  0.85974799739E+02 0.  0.
         11    1    3    3    0    0 -0.20546697829E+02 -0.53892414839E+02 -0.15730787226E+02  0.59783081519E+02  0.51100000000E-03 0. -1.
         22    1    1    0    0    0  0.18415887492E+02  0.21671212909E+02  0.16738809453E+02  0.32999607922E+02  0.00000000000E+00 0. -1.
</event>
<event>
 5    1  0.1047411E-009  0.9118800E+02  0.7815553E-02  0.1125453E+00
         25   -1    0    0    0    0  0.00000000000E+00  0.00000000000E+00  0.99999998245E-14  0.12509000000E+03  0.12509000000E+03 0.  0.
        -11    1    3    3    0    0 -0.87801178063E+01  0.13897896783E+02  0.52623292830E+02  0.55131233908E+02  0.51100000000E-03 0.  1.
         23    2    1    0    0    0 -0.23949749117E+02  0.41367007554E+01  0.15897306651E+02  0.96048183000E+02  0.91552314679E+02 0.  0.
         11    1    3    3    0    0 -0.15169631310E+02 -0.97611960273E+01 -0.36725986179E+02  0.40916949093E+02  0.51100000000E-03 0. -1.
         22    1    1    0    0    0  0.23949749117E+02 -0.41367007554E+01 -0.15897306651E+02  0.29041817000E+02  0.00000000000E+00 0. -1.
</event>
<event>
 5    1  0.1047411E-009  0.9118800E+02  0.7815553E-02  0.1125453E+00
         25   -1    0    0    0    0  0.00000000000E+00  0.00000000000E+00  0.99999998245E-14  0.12509000000E+03  0.12509000000E+03 0.  0.
        -11    1    3    3    0    0 -0.11683401661E+02 -0.24680229947E+02 -0.10178617884E+02  0.29141377574E+02  0.51100000000E-03 0.  1.
         23    2    1    0    0    0  0.12155426745E+02  0.26596143776E+02  0.16333924311E+02  0.91595129549E+02  0.85251166623E+02 0.  0.
         11    1    3    3    0    0  0.23838828406E+02  0.51276373723E+02  0.26512542195E+02  0.62453751976E+02  0.51100000000E-03 0. -1.
         22    1    1    0    0    0 -0.12155426745E+02 -0.26596143776E+02 -0.16333924311E+02  0.33494870451E+02  0.00000000000E+00 0. -1.
</event>
<event>
 5    1  0.1047411E-009  0.9118800E+02  0.7815553E-02  0.1125453E+00
         25   -1    0    0    0    0  0.00000000000E+00  0.00000000000E+00  0.99999998245E-14  0.12509000000E+03  0.12509000000E+03 0.  0.
        -11    1    3    3    0    0  0.44896750387E+01 -0.88752811782E+00 -0.37754274987E+02  0.38030647748E+02  0.51100000000E-03 0.  1.
         23    2    1    0    0    0  0.14551519021E+01  0.23375177953E+02  0.15755998242E+02  0.96862922716E+02  0.92658825295E+02 0.  0.
         11    1    3    3    0    0 -0.30345231367E+01  0.24262706071E+02  0.53510273229E+02  0.58832274967E+02  0.51100000000E-03 0. -1.
         22    1    1    0    0    0 -0.14551519021E+01 -0.23375177953E+02 -0.15755998242E+02  0.28227077284E+02  0.00000000000E+00 0. -1.
</event>
<event>
 5    1  0.1047411E-009  0.9118800E+02  0.7815553E-02  0.1125453E+00
         25   -1    0    0    0    0  0.00000000000E+00  0.00000000000E+00  0.99999998245E-14  0.12509000000E+03  0.12509000000E+03 0.  0.
        -11    1    3    3    0    0  0.19572328426E+02 -0.39379586139E+02  0.55183285673E+01  0.44320196242E+02  0.51100000000E-03 0.  1.
         23    2    1    0    0    0 -0.24625427827E+02 -0.17379455656E+02 -0.42602247474E+01  0.94649784997E+02  0.89621287150E+02 0.  0.
         11    1    3    3    0    0 -0.44197756253E+02  0.22000130483E+02 -0.97785533148E+01  0.50329588755E+02  0.51100000000E-03 0. -1.
         22    1    1    0    0    0  0.24625427827E+02  0.17379455656E+02  0.42602247474E+01  0.30440215003E+02  0.00000000000E+00 0.  1.
</event>
<event>
 5    1  0.1047411E-009  0.9118800E+02  0.7815553E-02  0.1125453E+00
         25   -1    0    0    0    0  0.00000000000E+00  0.00000000000E+00  0.99999998245E-14  0.12509000000E+03  0.12509000000E+03 0.  0.
        -11    1    3    3    0    0  0.11989929202E+02  0.19265050648E+02 -0.52898063943E+02  0.57559584327E+02  0.51100000000E-03 0. -1.
         23    2    1    0    0    0 -0.79346292495E+01  0.19695181685E+02 -0.20635402549E+02  0.95481245192E+02  0.90774389682E+02 0.  0.
         11    1    3    3    0    0 -0.19924558451E+02  0.43013103726E+00  0.32262661395E+02  0.37921660864E+02  0.51100000000E-03 0.  1.
         22    1    1    0    0    0  0.79346292495E+01 -0.19695181685E+02  0.20635402549E+02  0.29608754808E+02  0.00000000000E+00 0. -1.
</event>
<event>
 5    1  0.1047411E-009  0.9118800E+02  0.7815553E-02  0.1125453E+00
         25   -1    0    0    0    0  0.00000000000E+00  0.00000000000E+00  0.99999998245E-14  0.12509000000E+03  0.12509000000E+03 0.  0.
        -11    1    3    3    0    0  0.14722859182E+02  0.27404726529E+02  0.43281146640E+02  0.53301400294E+02  0.51100000000E-03 0.  1.
         23    2    1    0    0    0 -0.11041372195E+01 -0.97877730444E+01  0.26048175099E+02  0.97241713766E+02  0.93168792254E+02 0.  0.
         11    1    3    3    0    0 -0.15826996402E+02 -0.37192499573E+02 -0.17232971541E+02  0.43940313472E+02  0.51100000000E-03 0. -1.
         22    1    1    0    0    0  0.11041372195E+01  0.97877730444E+01 -0.26048175099E+02  0.27848286234E+02  0.00000000000E+00 0. -1.
</event>
<event>
 5    1  0.1047411E-009  0.9118800E+02  0.7815553E-02  0.1125453E+00
         25   -1    0    0    0    0  0.00000000000E+00  0.00000000000E+00  0.99999998245E-14  0.12509000000E+03  0.12509000000E+03 0.  0.
        -11    1    3    3    0    0 -0.47080974312E+02  0.30441673866E+02  0.85222324393E+01  0.56709276983E+02  0.51100000000E-03 0.  1.
         23    2    1    0    0    0 -0.77857812820E+01  0.24984085969E+02  0.11525659260E+02  0.96495179433E+02  0.92161032387E+02 0.  0.
         11    1    3    3    0    0  0.39295193030E+02 -0.54575878973E+01  0.30034268207E+01  0.39785902451E+02  0.51100000000E-03 0. -1.
         22    1    1    0    0    0  0.77857812820E+01 -0.24984085969E+02 -0.11525659260E+02  0.28594820567E+02  0.00000000000E+00 0.  1.
</event>
<event>
 5    1  0.1047411E-009  0.9118800E+02  0.7815553E-02  0.1125453E+00
         25   -1    0    0    0    0  0.00000000000E+00  0.00000000000E+00  0.99999998245E-14  0.12509000000E+03  0.12509000000E+03 0.  0.
        -11    1    3    3    0    0  0.38716657466E+01  0.23484888670E+02  0.27013666273E+02  0.36003721437E+02  0.51100000000E-03 0.  1.
         23    2    1    0    0    0 -0.37464727365E+01 -0.15926819157E+01 -0.27922850275E+02  0.96871951501E+02  0.92671013410E+02 0.  0.
         11    1    3    3    0    0 -0.76181384831E+01 -0.25077570586E+02 -0.54936516548E+02  0.60868230064E+02  0.51100000000E-03 0. -1.
         22    1    1    0    0    0  0.37464727365E+01  0.15926819157E+01  0.27922850275E+02  0.28218048499E+02  0.00000000000E+00 0. -1.
</event>
<event>
 5    1  0.1047411E-009  0.9118800E+02  0.7815553E-02  0.1125453E+00
         25   -1    0    0    0    0  0.00000000000E+00  0.00000000000E+00  0.99999998245E-14  0.12509000000E+03  0.12509000000E+03 0.  0.
        -11    1    3    3    0    0 -0.14131436955E+02  0.34379140308E+02  0.33151604331E+02  0.49806140874E+02  0.51100000000E-03 0.  1.
         23    2    1    0    0    0 -0.29081166426E+02  0.71692102546E+01  0.11984869550E+00  0.95137935295E+02  0.90300058428E+02 0.  0.
         11    1    3    3    0    0 -0.14949729472E+02 -0.27209930054E+02 -0.33031755636E+02  0.45331794421E+02  0.51100000000E-03 0. -1.
         22    1    1    0    0    0  0.29081166426E+02 -0.71692102546E+01 -0.11984869550E+00  0.29952064705E+02  0.00000000000E+00 0.  1.
</event>
<event>
 5    1  0.1047411E-009  0.9118800E+02  0.7815553E-02  0.1125453E+00
         25   -1    0    0    0    0  0.00000000000E+00  0.00000000000E+00  0.99999998245E-14  0.12509000000E+03  0.12509000000E+03 0.  0.
        -11    1    3    3    0    0 -0.27220909486E+02  0.23016330079E+02 -0.21884791035E+02  0.41829098036E+02  0.51100000000E-03 0. -1.
         23    2    1    0    0    0 -0.12776792012E+02  0.21339311203E+02  0.24341693380E+02  0.90288697534E+02  0.83312173475E+02 0.  0.
         11    1    3    3    0    0  0.14444117475E+02 -0.16770188765E+01  0.46226484415E+02  0.48459599498E+02  0.51100000000E-03 0.  1.
         22    1    1    0    0    0  0.12776792012E+02 -0.21339311203E+02 -0.24341693380E+02  0.34801302466E+02  0.00000000000E+00 0.  1.
</event>
<event>
 5    1  0.1047411E-009  0.9118800E+02  0.7815553E-02  0.1125453E+00
         25   -1    0    0    0    0  0.00000000000E+00  0.00000000000E+00  0.99999998245E-14  0.12509000000E+03  0.12509000000E+03 0.  0.
        -11    1    3    3    0    0  0.12285494264E+02 -0.47124777300E+02  0.91888237164E+01  0.49559181656E+02  0.51100000000E-03 0.  1.
         23    2    1    0    0    0 -0.15183481403E+02 -0.18152517032E+02 -0.15777955182E+02  0.96647147614E+02  0.92367068212E+02 0.  0.
         11    1    3    3    0    0 -0.27468975667E+02  0.28972260268E+02 -0.24966778899E+02  0.47087965958E+02  0.51100000000E-03 0. -1.
         22    1    1    0    0    0  0.15183481403E+02  0.18152517032E+02  0.15777955182E+02  0.28442852386E+02  0.00000000000E+00 0.  1.
</event>
<event>
 5    1  0.1047411E-009  0.9118800E+02  0.7815553E-02  0.1125453E+00
         25   -1    0    0    0    0  0.00000000000E+00  0.00000000000E+00  0.99999998245E-14  0.12509000000E+03  0.12509000000E+03 0.  0.
        -11    1    3    3    0    0  0.12175171891E+02  0.35242286107E+01  0.52052393779E+02  0.53573376748E+02  0.51100000000E-03 0.  1.
         23    2    1    0    0    0 -0.17522937080E+01  0.23543032431E+02  0.18271834744E+02  0.95236945647E+02  0.90437110535E+02 0.  0.
         11    1    3    3    0    0 -0.13927465599E+02  0.20018803820E+02 -0.33780559034E+02  0.41663568898E+02  0.51100000000E-03 0. -1.
         22    1    1    0    0    0  0.17522937080E+01 -0.23543032431E+02 -0.18271834744E+02  0.29853054353E+02  0.00000000000E+00 0.  1.
</event>
<event>
 5    1  0.1047411E-009  0.9118800E+02  0.7815553E-02  0.1125453E+00
         25   -1    0    0    0    0  0.00000000000E+00  0.00000000000E+00  0.99999998245E-14  0.12509000000E+03  0.12509000000E+03 0.  0.
        -11    1    3    3    0    0  0.35069870298E+02  0.79629042823E+01 -0.72491250603E+01  0.36685875507E+02  0.51100000000E-03 0.  1.
         23    2    1    0    0    0 -0.12469117842E+02 -0.22953452297E+02  0.11688859421E+02  0.96472360218E+02  0.92130054702E+02 0.  0.
         11    1    3    3    0    0 -0.47538988140E+02 -0.30916356580E+02  0.18937984481E+02  0.59786484711E+02  0.51100000000E-03 0. -1.
         22    1    1    0    0    0  0.12469117842E+02  0.22953452297E+02 -0.11688859421E+02  0.28617639782E+02  0.00000000000E+00 0. -1.
</event>
<event>
 5    1  0.1047411E-009  0.9118800E+02  0.7815553E-02  0.1125453E+00
         25   -1    0    0    0    0  0.00000000000E+00  0.00000000000E+00  0.99999998245E-14  0.12509000000E+03  0.12509000000E+03 0.  0.
        -11    1    3    3    0    0 -0.87087256958E+01 -0.13077371784E+02 -0.31709039529E+02  0.35388172377E+02  0.51100000000E-03 0. -1.
         23    2    1    0    0    0  0.17267611095E+02 -0.43578442033E+01  0.22658583905E+02  0.96270343104E+02  0.91855355520E+02 0.  0.
         11    1    3    3    0    0  0.25976336791E+02  0.87195275808E+01  0.54367623434E+02  0.60882170727E+02  0.51100000000E-03 0.  1.
         22    1    1    0    0    0 -0.17267611095E+02  0.43578442033E+01 -0.22658583905E+02  0.28819656896E+02  0.00000000000E+00 0.  1.
</event>
<event>
 5    1  0.1047411E-009  0.9118800E+02  0.7815553E-02  0.1125453E+00
         25   -1    0    0    0    0  0.00000000000E+00  0.00000000000E+00  0.99999998245E-14  0.12509000000E+03  0.12509000000E+03 0.  0.
        -11    1    3    3    0    0  0.46455694963E+02 -0.13570965079E+02  0.45197550491E+00  0.48399452164E+02  0.51100000000E-03 0.  1.
         23    2    1    0    0    0  0.28754460588E+02  0.90225699388E+01 -0.24359775701E+02  0.86339200728E+02  0.77154605424E+02 0.  0.
         11    1    3    3    0    0 -0.17701234375E+02  0.22593535018E+02 -0.24811751205E+02  0.37939748564E+02  0.51100000000E-03 0. -1.
         22    1    1    0    0    0 -0.28754460588E+02 -0.90225699388E+01  0.24359775701E+02  0.38750799272E+02  0.00000000000E+00 0.  1.
</event>
<event>
 5    1  0.1047411E-009  0.9118800E+02  0.7815553E-02  0.1125453E+00
         25   -1    0    0    0    0  0.00000000000E+00  0.00000000000E+00  0.99999998245E-14  0.12509000000E+03  0.12509000000E+03 0.  0.
        -11    1    3    3    0    0 -0.21333224330E+02  0.44616014162E+02  0.30151388558E+02  0.57920647546E+02  0.51100000000E-03 0. -1.
         23    2    1    0    0    0 -0.14564236661E+02  0.10213076378E+02  0.26500732955E+02  0.93172719951E+02  0.87535381288E+02 0.  0.
         11    1    3    3    0    0  0.67689876691E+01 -0.34402937783E+02 -0.36506556032E+01  0.35252072404E+02  0.51100000000E-03 0.  1.
         22    1    1    0    0    0  0.14564236661E+02 -0.10213076378E+02 -0.26500732955E+02  0.31917280049E+02  0.00000000000E+00 0. -1.
</event>
<event>
 5    1  0.1047411E-009  0.9118800E+02  0.7815553E-02  0.1125453E+00
         25   -1    0    0    0    0  0.00000000000E+00  0.00000000000E+00  0.99999998245E-14  0.12509000000E+03  0.12509000000E+03 0.  0.
        -11    1    3    3    0    0 -0.52495514877E+02 -0.10113726719E+02 -0.28301633937E+02  0.60490073848E+02  0.51100000000E-03 0.  1.
         23    2    1    0    0    0 -0.25447906020E+02  0.65546265585E+01 -0.11954075818E+02  0.96220310379E+02  0.91787194917E+02 0.  0.
         11    1    3    3    0    0  0.27047608857E+02  0.16668353278E+02  0.16347558119E+02  0.35730236531E+02  0.51100000000E-03 0. -1.
         22    1    1    0    0    0  0.25447906020E+02 -0.65546265585E+01  0.11954075818E+02  0.28869689621E+02  0.00000000000E+00 0. -1.
</event>
<event>
 5    1  0.1047411E-009  0.9118800E+02  0.7815553E-02  0.1125453E+00
         25   -1    0    0    0    0  0.00000000000E+00  0.00000000000E+00  0.99999998245E-14  0.12509000000E+03  0.12509000000E+03 0.  0.
        -11    1    3    3    0    0  0.10952002406E+02  0.40924084304E+02 -0.30252751122E+01  0.42472100520E+02  0.51100000000E-03 0.  1.
         23    2    1    0    0    0  0.21155951508E+02 -0.61104043551E+01  0.19560015236E+02  0.95636553315E+02  0.90988157517E+02 0.  0.
         11    1    3    3    0    0  0.10203949102E+02 -0.47034488659E+02  0.22585290348E+02  0.53164452795E+02  0.51100000000E-03 0. -1.
         22    1    1    0    0    0 -0.21155951508E+02  0.61104043551E+01 -0.19560015236E+02  0.29453446685E+02  0.00000000000E+00 0. -1.
</event>
<event>
 5    1  0.1047411E-009  0.9118800E+02  0.7815553E-02  0.1125453E+00
         25   -1    0    0    0    0  0.00000000000E+00  0.00000000000E+00  0.99999998245E-14  0.12509000000E+03  0.12509000000E+03 0.  0.
        -11    1    3    3    0    0  0.35627521020E+02  0.16383399580E+02  0.36352629640E+01  0.39382117425E+02  0.51100000000E-03 0.  1.
         23    2    1    0    0    0 -0.12156702117E+02  0.22651265943E+01 -0.25249205407E+02  0.96975260475E+02  0.92810358073E+02 0.  0.
         11    1    3    3    0    0 -0.47784223138E+02 -0.14118272986E+02 -0.28884468371E+02  0.57593143049E+02  0.51100000000E-03 0. -1.
         22    1    1    0    0    0  0.12156702117E+02 -0.22651265943E+01  0.25249205407E+02  0.28114739525E+02  0.00000000000E+00 0. -1.
</event>
<event>
 5    1  0.1047411E-009  0.9118800E+02  0.7815553E-02  0.1125453E+00
         25   -1    0    0    0    0  0.00000000000E+00  0.00000000000E+00  0.99999998245E-14  0.12509000000E+03  0.12509000000E+03 0.  0.
        -11    1    3    3    0    0  0.18934247815E+02 -0.26406423569E+02 -0.61263567014E+01  0.33065649740E+02  0.51100000000E-03 0.  1.
         23    2    1    0    0    0 -0.18059032267E+02  0.23104938263E+02  0.32778626071E+01  0.95582184055E+02  0.90913380242E+02 0.  0.
         11    1    3    3    0    0 -0.36993280082E+02  0.49511361832E+02  0.94042193085E+01  0.62516534315E+02  0.51100000000E-03 0. -1.
         22    1    1    0    0    0  0.18059032267E+02 -0.23104938263E+02 -0.32778626071E+01  0.29507815945E+02  0.00000000000E+00 0. -1.
</event>
<event>
 5    1  0.1047411E-009  0.9118800E+02  0.7815553E-02  0.1125453E+00
         25   -1    0    0    0    0  0.00000000000E+00  0.00000000000E+00  0.99999998245E-14  0.12509000000E+03  0.12509000000E+03 0.  0.
        -11    1    3    3    0    0 -0.21755787158E+02  0.11091427976E+01  0.42880275404E+02  0.48096387511E+02  0.51100000000E-03 0.  1.
         23    2    1    0    0    0 -0.93130827528E+01  0.27416298805E+02  0.52559060950E+01  0.95661926679E+02  0.91023033989E+02 0.  0.
         11    1    3    3    0    0  0.12442704406E+02  0.26307156007E+02 -0.37624369309E+02  0.47565539168E+02  0.51100000000E-03 0. -1.
         22    1    1    0    0    0  0.93130827528E+01 -0.27416298805E+02 -0.52559060950E+01  0.29428073321E+02  0.00000000000E+00 0.  1.
</event>
<event>
 5    1  0.1047411E-009  0.9118800E+02  0.7815553E-02  0.1125453E+00
         25   -1    0    0    0    0  0.00000000000E+00  0.00000000000E+00  0.99999998245E-14  0.12509000000E+03  0.12509000000E+03 0.  0.
        -11    1    3    3    0    0  0.22670180760E+01 -0.20451727467E+02  0.20368688762E+02  0.28953341940E+02  0.51100000000E-03 0.  1.
         23    2    1    0    0    0 -0.83076840186E+01  0.35777132594E+02  0.86652440074E+01  0.87352653987E+02  0.78780574220E+02 0.  0.
         11    1    3    3    0    0 -0.10574702095E+02  0.56228860061E+02 -0.11703444755E+02  0.58399312047E+02  0.51100000000E-03 0. -1.
         22    1    1    0    0    0  0.83076840186E+01 -0.35777132594E+02 -0.86652440074E+01  0.37737346013E+02  0.00000000000E+00 0. -1.
</event>
<event>
 5    1  0.1047411E-009  0.9118800E+02  0.7815553E-02  0.1125453E+00
         25   -1    0    0    0    0  0.00000000000E+00  0.00000000000E+00  0.99999998245E-14  0.12509000000E+03  0.12509000000E+03 0.  0.
        -11    1    3    3    0    0 -0.50825455244E+02  0.31581854333E+02  0.11040668277E+02  0.60848473934E+02  0.51100000000E-03 0. -1.
         23    2    1    0    0    0 -0.27967232140E+02  0.54358287532E+01  0.64355199690E+01  0.95881606941E+02  0.91324434433E+02 0.  0.
         11    1    3    3    0    0  0.22858223104E+02 -0.26146025579E+02 -0.46051483079E+01  0.35033133007E+02  0.51100000000E-03 0.  1.
         22    1    1    0    0    0  0.27967232140E+02 -0.54358287532E+01 -0.64355199690E+01  0.29208393059E+02  0.00000000000E+00 0. -1.
</event>
<event>
 5    1  0.1047411E-009  0.9118800E+02  0.7815553E-02  0.1125453E+00
         25   -1    0    0    0    0  0.00000000000E+00  0.00000000000E+00  0.99999998245E-14  0.12509000000E+03  0.12509000000E+03 0.  0.
        -11    1    3    3    0    0  0.42741932597E+02  0.66534092311E+01 -0.23135436272E+01  0.43318508064E+02  0.51100000000E-03 0.  1.
         23    2    1    0    0    0  0.28975904409E+01 -0.27374112228E+02 -0.89739477680E+01  0.96137110867E+02  0.91673738315E+02 0.  0.
         11    1    3    3    0    0 -0.39844342156E+02 -0.34027521459E+02 -0.66604041408E+01  0.52818602803E+02  0.51100000000E-03 0. -1.
         22    1    1    0    0    0 -0.28975904409E+01  0.27374112228E+02  0.89739477680E+01  0.28952889133E+02  0.00000000000E+00 0. -1.
</event>
<event>
 5    1  0.1047411E-009  0.9118800E+02  0.7815553E-02  0.1125453E+00
         25   -1    0    0    0    0  0.00000000000E+00  0.00000000000E+00  0.99999998245E-14  0.12509000000E+03  0.12509000000E+03 0.  0.
        -11    1    3    3    0    0  0.13353259319E+02  0.42870753311E+02  0.40288398900E+02  0.60327158976E+02  0.51100000000E-03 0. -1.
         23    2    1    0    0    0  0.16610487295E+02  0.19818852053E+02  0.13162501007E+02  0.96073683597E+02  0.91587150093E+02 0.  0.
         11    1    3    3    0    0  0.32572279758E+01 -0.23051901258E+02 -0.27125897893E+02  0.35746524621E+02  0.51100000000E-03 0.  1.
         22    1    1    0    0    0 -0.16610487295E+02 -0.19818852053E+02 -0.13162501007E+02  0.29016316403E+02  0.00000000000E+00 0. -1.
</event>
<event>
 5    1  0.1047411E-009  0.9118800E+02  0.7815553E-02  0.1125453E+00
         25   -1    0    0    0    0  0.00000000000E+00  0.00000000000E+00  0.99999998245E-14  0.12509000000E+03  0.12509000000E+03 0.  0.
        -11    1    3    3    0    0 -0.53141646820E+01 -0.20324686294E+02  0.52127579960E+02  0.56201581935E+02  0.51100000000E-03 0. -1.
         23    2    1    0    0    0  0.10460834308E+02 -0.14620848957E+02  0.47002503517E+01  0.10650800248E+03  0.10487451530E+03 0.  0.
         11    1    3    3    0    0  0.15774998990E+02  0.57038373375E+01 -0.47427329609E+02  0.50306420540E+02  0.51100000000E-03 0.  1.
         22    1    1    0    0    0 -0.10460834308E+02  0.14620848957E+02 -0.47002503517E+01  0.18581997525E+02  0.00000000000E+00 0. -1.
</event>
<event>
 5    1  0.1047411E-009  0.9118800E+02  0.7815553E-02  0.1125453E+00
         25   -1    0    0    0    0  0.00000000000E+00  0.00000000000E+00  0.99999998245E-14  0.12509000000E+03  0.12509000000E+03 0.  0.
        -11    1    3    3    0    0  0.78677490548E+01 -0.14254248039E+01  0.48543682698E+02  0.49197788987E+02  0.51100000000E-03 0.  1.
         23    2    1    0    0    0  0.25934287875E+02 -0.16721240970E+02  0.13685784657E+02  0.91333698532E+02  0.84866698997E+02 0.  0.
         11    1    3    3    0    0  0.18066538820E+02 -0.15295816166E+02 -0.34857898041E+02  0.42135909545E+02  0.51100000000E-03 0. -1.
         22    1    1    0    0    0 -0.25934287875E+02  0.16721240970E+02 -0.13685784657E+02  0.33756301468E+02  0.00000000000E+00 0.  1.
</event>
<event>
 5    1  0.1047411E-009  0.9118800E+02  0.7815553E-02  0.1125453E+00
         25   -1    0    0    0    0  0.00000000000E+00  0.00000000000E+00  0.99999998245E-14  0.12509000000E+03  0.12509000000E+03 0.  0.
        -11    1    3    3    0    0 -0.35324714046E+02  0.20322121421E+02 -0.68396069299E+01  0.41323168619E+02  0.51100000000E-03 0.  1.
         23    2    1    0    0    0  0.18155818643E+02  0.21485191464E+02  0.59828380874E+01  0.96331669826E+02  0.91938833237E+02 0.  0.
         11    1    3    3    0    0  0.53480532689E+02  0.11630700433E+01  0.12822445017E+02  0.55008501207E+02  0.51100000000E-03 0. -1.
         22    1    1    0    0    0 -0.18155818643E+02 -0.21485191464E+02 -0.59828380874E+01  0.28758330174E+02  0.00000000000E+00 0. -1.
</event>
<event>
 5    1  0.1047411E-009  0.9118800E+02  0.7815553E-02  0.1125453E+00
         25   -1    0    0    0    0  0.00000000000E+00  0.00000000000E+00  0.99999998245E-14  0.12509000000E+03  0.12509000000E+03 0.  0.
        -11    1    3    3    0    0 -0.36473098832E+02 -0.16475217863E+02 -0.26832476121E+00  0.40022390490E+02  0.51100000000E-03 0.  1.
         23    2    1    0    0    0  0.14172960227E+02  0.15827374914E+02 -0.11189701404E+02  0.10107775280E+03  0.98184133619E+02 0.  0.
         11    1    3    3    0    0  0.50646059060E+02  0.32302592777E+02 -0.10921376643E+02  0.61055362307E+02  0.51100000000E-03 0. -1.
         22    1    1    0    0    0 -0.14172960227E+02 -0.15827374914E+02  0.11189701404E+02  0.24012247204E+02  0.00000000000E+00 0. -1.
</event>
<event>
 5    1  0.1047411E-009  0.9118800E+02  0.7815553E-02  0.1125453E+00
         25   -1    0    0    0    0  0.00000000000E+00  0.00000000000E+00  0.99999998245E-14  0.12509000000E+03  0.12509000000E+03 0.  0.
        -11    1    3    3    0    0 -0.27649982244E+02  0.43584810667E+02  0.14392145333E+02  0.53584429516E+02  0.51100000000E-03 0.  1.
         23    2    1    0    0    0 -0.12542175511E+02  0.23565641470E+02 -0.16753656359E+02  0.93572851877E+02  0.88105323236E+02 0.  0.
         11    1    3    3    0    0  0.15107806732E+02 -0.20019169198E+02 -0.31145801692E+02  0.39988422361E+02  0.51100000000E-03 0. -1.
         22    1    1    0    0    0  0.12542175511E+02 -0.23565641470E+02  0.16753656359E+02  0.31517148123E+02  0.00000000000E+00 0.  1.
</event>
<event>
 5    1  0.1047411E-009  0.9118800E+02  0.7815553E-02  0.1125453E+00
         25   -1    0    0    0    0  0.00000000000E+00  0.00000000000E+00  0.99999998245E-14  0.12509000000E+03  0.12509000000E+03 0.  0.
        -11    1    3    3    0    0 -0.60773161759E+02  0.64259198286E+01  0.82168105469E+01  0.61661865133E+02  0.51100000000E-03 0. -1.
         23    2    1    0    0    0 -0.32861466344E+02  0.11395597678E+01 -0.27067140587E+01  0.92097563477E+02  0.85985233212E+02 0.  0.
         11    1    3    3    0    0  0.27911695415E+02 -0.52863600607E+01 -0.10923524606E+02  0.30435698344E+02  0.51100000000E-03 0.  1.
         22    1    1    0    0    0  0.32861466344E+02 -0.11395597678E+01  0.27067140587E+01  0.32992436523E+02  0.00000000000E+00 0. -1.
</event>
<event>
 5    1  0.1047411E-009  0.9118800E+02  0.7815553E-02  0.1125453E+00
         25   -1    0    0    0    0  0.00000000000E+00  0.00000000000E+00  0.99999998245E-14  0.12509000000E+03  0.12509000000E+03 0.  0.
        -11    1    3    3    0    0  0.23724225579E+02  0.55768383633E+02  0.79712522542E+01  0.61126854615E+02  0.51100000000E-03 0. -1.
         23    2    1    0    0    0  0.15295068197E+02  0.22307349767E+02 -0.42033835455E+01  0.97718018011E+02  0.93806106656E+02 0.  0.
         11    1    3    3    0    0 -0.84291573827E+01 -0.33461033865E+02 -0.12174635800E+02  0.36591163396E+02  0.51100000000E-03 0.  1.
         22    1    1    0    0    0 -0.15295068197E+02 -0.22307349767E+02  0.42033835455E+01  0.27371981989E+02  0.00000000000E+00 0. -1.
</event>
<event>
 5    1  0.1047411E-009  0.9118800E+02  0.7815553E-02  0.1125453E+00
         25   -1    0    0    0    0  0.00000000000E+00  0.00000000000E+00  0.99999998245E-14  0.12509000000E+03  0.12509000000E+03 0.  0.
        -11    1    3    3    0    0  0.19099291538E+02  0.30217245094E+01  0.44863303580E+02  0.48853144880E+02  0.51100000000E-03 0. -1.
         23    2    1    0    0    0  0.81170020849E+00  0.28087645349E+02  0.10651478523E+02  0.95039564509E+02  0.90163685311E+02 0.  0.
         11    1    3    3    0    0 -0.18287591330E+02  0.25065920839E+02 -0.34211825057E+02  0.46186419629E+02  0.51100000000E-03 0.  1.
         22    1    1    0    0    0 -0.81170020849E+00 -0.28087645349E+02 -0.10651478523E+02  0.30050435491E+02  0.00000000000E+00 0.  1.
</event>
<event>
 5    1  0.1047411E-009  0.9118800E+02  0.7815553E-02  0.1125453E+00
         25   -1    0    0    0    0  0.00000000000E+00  0.00000000000E+00  0.99999998245E-14  0.12509000000E+03  0.12509000000E+03 0.  0.
        -11    1    3    3    0    0  0.41072684760E+02 -0.79937388373E+01  0.67601444862E+00  0.41848802729E+02  0.51100000000E-03 0. -1.
         23    2    1    0    0    0 -0.67457952716E+01 -0.10995029041E+02 -0.25549174508E+02  0.96469085697E+02  0.92125608599E+02 0.  0.
         11    1    3    3    0    0 -0.47818480032E+02 -0.30012902039E+01 -0.26225188957E+02  0.54620282969E+02  0.51100000000E-03 0.  1.
         22    1    1    0    0    0  0.67457952716E+01  0.10995029041E+02  0.25549174508E+02  0.28620914303E+02  0.00000000000E+00 0.  1.
</event>
<event>
 5    1  0.1047411E-009  0.9118800E+02  0.7815553E-02  0.1125453E+00
         25   -1    0    0    0    0  0.00000000000E+00  0.00000000000E+00  0.99999998245E-14  0.12509000000E+03  0.12509000000E+03 0.  0.
        -11    1    3    3    0    0  0.19114226872E+02  0.30502115402E+01 -0.17632771601E+02  0.26183431669E+02  0.51100000000E-03 0. -1.
         23    2    1    0    0    0 -0.82923279822E+01  0.15365983556E+02  0.34538714133E+02  0.86388592687E+02  0.77234642606E+02 0.  0.
         11    1    3    3    0    0 -0.27406554854E+02  0.12315772016E+02  0.52171485734E+02  0.60205161019E+02  0.51100000000E-03 0.  1.
         22    1    1    0    0    0  0.82923279822E+01 -0.15365983556E+02 -0.34538714133E+02  0.38701407313E+02  0.00000000000E+00 0.  1.
</event>
<event>
 5    1  0.1047411E-009  0.9118800E+02  0.7815553E-02  0.1125453E+00
         25   -1    0    0    0    0  0.00000000000E+00  0.00000000000E+00  0.99999998245E-14  0.12509000000E+03  0.12509000000E+03 0.  0.
        -11    1    3    3    0    0 -0.27856180186E+02  0.30770300662E+02  0.19833106086E+02  0.46001416007E+02  0.51100000000E-03 0.  1.
         23    2    1    0    0    0  0.72726942683E+01  0.28647972238E+02 -0.11745409312E+02  0.93285078444E+02  0.87695797078E+02 0.  0.
         11    1    3    3    0    0  0.35128874454E+02 -0.21223284241E+01 -0.31578515399E+02  0.47283662437E+02  0.51100000000E-03 0. -1.
         22    1    1    0    0    0 -0.72726942683E+01 -0.28647972238E+02  0.11745409312E+02  0.31804921556E+02  0.00000000000E+00 0.  1.
</event>
<event>
 5    1  0.1047411E-009  0.9118800E+02  0.7815553E-02  0.1125453E+00
         25   -1    0    0    0    0  0.00000000000E+00  0.00000000000E+00  0.99999998245E-14  0.12509000000E+03  0.12509000000E+03 0.  0.
        -11    1    3    3    0    0  0.15449493867E+02  0.43490915619E+02 -0.10803673978E+02  0.47401117854E+02  0.51100000000E-03 0.  1.
         23    2    1    0    0    0  0.23188978904E+02 -0.17792483088E+01 -0.20206734651E+02  0.94280803444E+02  0.89104788343E+02 0.  0.
         11    1    3    3    0    0  0.77394850368E+01 -0.45270163928E+02 -0.94030606735E+01  0.46879685590E+02  0.51100000000E-03 0. -1.
         22    1    1    0    0    0 -0.23188978904E+02  0.17792483088E+01  0.20206734651E+02  0.30809196556E+02  0.00000000000E+00 0. -1.
</event>
<event>
 5    1  0.1047411E-009  0.9118800E+02  0.7815553E-02  0.1125453E+00
         25   -1    0    0    0    0  0.00000000000E+00  0.00000000000E+00  0.99999998245E-14  0.12509000000E+03  0.12509000000E+03 0.  0.
        -11    1    3    3    0    0 -0.35194701496E+02 -0.19284830740E+02 -0.16025557293E+02  0.43213310414E+02  0.51100000000E-03 0. -1.
         23    2    1    0    0    0 -0.41517162574E+01  0.21484991088E+02 -0.21080853201E+02  0.94705070156E+02  0.89698418892E+02 0.  0.
         11    1    3    3    0    0  0.31042985239E+02  0.40769821828E+02 -0.50552959080E+01  0.51491759743E+02  0.51100000000E-03 0.  1.
         22    1    1    0    0    0  0.41517162574E+01 -0.21484991088E+02  0.21080853201E+02  0.30384929844E+02  0.00000000000E+00 0.  1.
</event>
<event>
 5    1  0.1047411E-009  0.9118800E+02  0.7815553E-02  0.1125453E+00
         25   -1    0    0    0    0  0.00000000000E+00  0.00000000000E+00  0.99999998245E-14  0.12509000000E+03  0.12509000000E+03 0.  0.
        -11    1    3    3    0    0  0.22452008596E+01  0.65589811247E+01 -0.59233484928E+02  0.59637797555E+02  0.51100000000E-03 0.  1.
         23    2    1    0    0    0 -0.71376003911E+01 -0.75614885328E+01 -0.28732524326E+02  0.94533832008E+02  0.89459297962E+02 0.  0.
         11    1    3    3    0    0 -0.93828012506E+01 -0.14120469657E+02  0.30500960602E+02  0.34896034453E+02  0.51100000000E-03 0. -1.
         22    1    1    0    0    0  0.71376003911E+01  0.75614885328E+01  0.28732524326E+02  0.30556167992E+02  0.00000000000E+00 0.  1.
</event>
<event>
 5    1  0.1047411E-009  0.9118800E+02  0.7815553E-02  0.1125453E+00
         25   -1    0    0    0    0  0.00000000000E+00  0.00000000000E+00  0.99999998245E-14  0.12509000000E+03  0.12509000000E+03 0.  0.
        -11    1    3    3    0    0 -0.16678988052E+02  0.89375249765E+00 -0.48351273916E+02  0.51154991209E+02  0.51100000000E-03 0. -1.
         23    2    1    0    0    0 -0.15389187816E+02 -0.23268241538E+02 -0.12233612124E+02  0.94628558282E+02  0.89591654807E+02 0.  0.
         11    1    3    3    0    0  0.12898002359E+01 -0.24161994036E+02  0.36117661793E+02  0.43473567073E+02  0.51100000000E-03 0.  1.
         22    1    1    0    0    0  0.15389187816E+02  0.23268241538E+02  0.12233612124E+02  0.30461441718E+02  0.00000000000E+00 0. -1.
</event>
<event>
 5    1  0.1047411E-009  0.9118800E+02  0.7815553E-02  0.1125453E+00
         25   -1    0    0    0    0  0.00000000000E+00  0.00000000000E+00  0.99999998245E-14  0.12509000000E+03  0.12509000000E+03 0.  0.
        -11    1    3    3    0    0 -0.13754411755E+02 -0.22270851053E+02  0.52034340064E+02  0.58247293461E+02  0.51100000000E-03 0. -1.
         23    2    1    0    0    0 -0.21251862684E+02 -0.10690734765E+02  0.17141434490E+02  0.95768297224E+02  0.91169098380E+02 0.  0.
         11    1    3    3    0    0 -0.74974509290E+01  0.11580116289E+02 -0.34892905574E+02  0.37521003763E+02  0.51100000000E-03 0.  1.
         22    1    1    0    0    0  0.21251862684E+02  0.10690734765E+02 -0.17141434490E+02  0.29321702776E+02  0.00000000000E+00 0. -1.
</event>
<event>
 5    1  0.1047411E-009  0.9118800E+02  0.7815553E-02  0.1125453E+00
         25   -1    0    0    0    0  0.00000000000E+00  0.00000000000E+00  0.99999998245E-14  0.12509000000E+03  0.12509000000E+03 0.  0.
        -11    1    3    3    0    0 -0.59640808751E+01  0.73658654763E+00 -0.60588458346E+02  0.60885746324E+02  0.51100000000E-03 0.  1.
         23    2    1    0    0    0 -0.12209958791E+02 -0.32483358851E+01 -0.27022394026E+02  0.95259737537E+02  0.90468630127E+02 0.  0.
         11    1    3    3    0    0 -0.62458779164E+01 -0.39849224327E+01  0.33566064320E+02  0.34373991213E+02  0.51100000000E-03 0. -1.
         22    1    1    0    0    0  0.12209958791E+02  0.32483358851E+01  0.27022394026E+02  0.29830262463E+02  0.00000000000E+00 0.  1.
</event>
<event>
 5    1  0.1047411E-009  0.9118800E+02  0.7815553E-02  0.1125453E+00
         25   -1    0    0    0    0  0.00000000000E+00  0.00000000000E+00  0.99999998245E-14  0.12509000000E+03  0.12509000000E+03 0.  0.
        -11    1    3    3    0    0  0.71061822791E+01 -0.19885207399E+02 -0.54465324264E+02  0.58415672959E+02  0.51100000000E-03 0.  1.
         23    2    1    0    0    0  0.34513213686E+01 -0.21287395187E+02 -0.13328787115E+02  0.99738049799E+02  0.96462206064E+02 0.  0.
         11    1    3    3    0    0 -0.36548609104E+01 -0.14021877874E+01  0.41136537148E+02  0.41322376840E+02  0.51100000000E-03 0. -1.
         22    1    1    0    0    0 -0.34513213686E+01  0.21287395187E+02  0.13328787115E+02  0.25351950201E+02  0.00000000000E+00 0. -1.
</event>
<event>
 5    1  0.1047411E-009  0.9118800E+02  0.7815553E-02  0.1125453E+00
         25   -1    0    0    0    0  0.00000000000E+00  0.00000000000E+00  0.99999998245E-14  0.12509000000E+03  0.12509000000E+03 0.  0.
        -11    1    3    3    0    0  0.14165165416E+02 -0.12328988291E+01 -0.40216901544E+02  0.42656431178E+02  0.51100000000E-03 0.  1.
         23    2    1    0    0    0 -0.25314849545E+02 -0.14465273768E+02 -0.94087125705E+01  0.94453263475E+02  0.89346568799E+02 0.  0.
         11    1    3    3    0    0 -0.39480014961E+02 -0.13232374939E+02  0.30808188974E+02  0.51796832297E+02  0.51100000000E-03 0. -1.
         22    1    1    0    0    0  0.25314849545E+02  0.14465273768E+02  0.94087125705E+01  0.30636736525E+02  0.00000000000E+00 0. -1.
</event>
<event>
 5    1  0.1047411E-009  0.9118800E+02  0.7815553E-02  0.1125453E+00
         25   -1    0    0    0    0  0.00000000000E+00  0.00000000000E+00  0.99999998245E-14  0.12509000000E+03  0.12509000000E+03 0.  0.
        -11    1    3    3    0    0 -0.35019169394E+02  0.21963352227E+02  0.20380288346E+02  0.46087820727E+02  0.51100000000E-03 0.  1.
         23    2    1    0    0    0 -0.24398380496E+02 -0.12534271506E+02 -0.12529680921E+02  0.94934041435E+02  0.90017167174E+02 0.  0.
         11    1    3    3    0    0  0.10620788898E+02 -0.34497623733E+02 -0.32909969266E+02  0.48846220707E+02  0.51100000000E-03 0. -1.
         22    1    1    0    0    0  0.24398380496E+02  0.12534271506E+02  0.12529680921E+02  0.30155958565E+02  0.00000000000E+00 0. -1.
</event>
<event>
 5    1  0.1047411E-009  0.9118800E+02  0.7815553E-02  0.1125453E+00
         25   -1    0    0    0    0  0.00000000000E+00  0.00000000000E+00  0.99999998245E-14  0.12509000000E+03  0.12509000000E+03 0.  0.
        -11    1    3    3    0    0 -0.43478576639E+01  0.52028014586E+02 -0.24291627980E+02  0.57583863696E+02  0.51100000000E-03 0. -1.
         23    2    1    0    0    0 -0.68776997956E+01  0.27020677452E+02  0.56127732544E+01  0.96648428524E+02  0.92368802894E+02 0.  0.
         11    1    3    3    0    0 -0.25298421317E+01 -0.25007337134E+02  0.29904401234E+02  0.39064564828E+02  0.51100000000E-03 0.  1.
         22    1    1    0    0    0  0.68776997956E+01 -0.27020677452E+02 -0.56127732544E+01  0.28441571476E+02  0.00000000000E+00 0. -1.
</event>
<event>
 5    1  0.1047411E-009  0.9118800E+02  0.7815553E-02  0.1125453E+00
         25   -1    0    0    0    0  0.00000000000E+00  0.00000000000E+00  0.99999998245E-14  0.12509000000E+03  0.12509000000E+03 0.  0.
        -11    1    3    3    0    0  0.34570601173E+02  0.72440130682E+01 -0.50700427272E+02  0.61791063404E+02  0.51100000000E-03 0. -1.
         23    2    1    0    0    0  0.21933246945E+02  0.28738536443E+01 -0.20035460425E+02  0.95244631335E+02  0.90447740532E+02 0.  0.
         11    1    3    3    0    0 -0.12637354229E+02 -0.43701594239E+01  0.30664966847E+02  0.33453567930E+02  0.51100000000E-03 0.  1.
         22    1    1    0    0    0 -0.21933246945E+02 -0.28738536443E+01  0.20035460425E+02  0.29845368665E+02  0.00000000000E+00 0. -1.
</event>
<event>
 5    1  0.1047411E-009  0.9118800E+02  0.7815553E-02  0.1125453E+00
         25   -1    0    0    0    0  0.00000000000E+00  0.00000000000E+00  0.99999998245E-14  0.12509000000E+03  0.12509000000E+03 0.  0.
        -11    1    3    3    0    0 -0.30166558594E+02 -0.15050782843E+02  0.12696110393E+02  0.36024138309E+02  0.51100000000E-03 0. -1.
         23    2    1    0    0    0  0.13074475644E+02  0.40422600793E+01 -0.25070601504E+02  0.96527492413E+02  0.92204880303E+02 0.  0.
         11    1    3    3    0    0  0.43241034237E+02  0.19093042922E+02 -0.37766711897E+02  0.60503354103E+02  0.51100000000E-03 0.  1.
         22    1    1    0    0    0 -0.13074475644E+02 -0.40422600793E+01  0.25070601504E+02  0.28562507587E+02  0.00000000000E+00 0.  1.
</event>
<event>
 5    1  0.1047411E-009  0.9118800E+02  0.7815553E-02  0.1125453E+00
         25   -1    0    0    0    0  0.00000000000E+00  0.00000000000E+00  0.99999998245E-14  0.12509000000E+03  0.12509000000E+03 0.  0.
        -11    1    3    3    0    0 -0.11396730841E+01  0.48539706991E+02  0.90474694654E+01  0.49388852118E+02  0.51100000000E-03 0.  1.
         23    2    1    0    0    0  0.94271833107E+01  0.44633281830E+01  0.25445832913E+02  0.97589390984E+02  0.93634426021E+02 0.  0.
         11    1    3    3    0    0  0.10566856395E+02 -0.44076378808E+02  0.16398363448E+02  0.48200538866E+02  0.51100000000E-03 0. -1.
         22    1    1    0    0    0 -0.94271833107E+01 -0.44633281830E+01 -0.25445832913E+02  0.27500609016E+02  0.00000000000E+00 0.  1.
</event>
<event>
 5    1  0.1047411E-009  0.9118800E+02  0.7815553E-02  0.1125453E+00
         25   -1    0    0    0    0  0.00000000000E+00  0.00000000000E+00  0.99999998245E-14  0.12509000000E+03  0.12509000000E+03 0.  0.
        -11    1    3    3    0    0  0.31826246909E+01 -0.34560756270E+02  0.16969393671E+02  0.38633344350E+02  0.51100000000E-03 0.  1.
         23    2    1    0    0    0 -0.26350167469E+01  0.24147254080E+02  0.12431300310E+02  0.97803182299E+02  0.93919604170E+02 0.  0.
         11    1    3    3    0    0 -0.58176414377E+01  0.58708010350E+02 -0.45380933606E+01  0.59169837948E+02  0.51100000000E-03 0. -1.
         22    1    1    0    0    0  0.26350167469E+01 -0.24147254080E+02 -0.12431300310E+02  0.27286817701E+02  0.00000000000E+00 0. -1.
</event>
<event>
 5    1  0.1047411E-009  0.9118800E+02  0.7815553E-02  0.1125453E+00
         25   -1    0    0    0    0  0.00000000000E+00  0.00000000000E+00  0.99999998245E-14  0.12509000000E+03  0.12509000000E+03 0.  0.
        -11    1    3    3    0    0 -0.21553146225E+02 -0.18724445275E+02  0.29757145200E+02  0.41238703347E+02  0.51100000000E-03 0.  1.
         23    2    1    0    0    0 -0.16005997125E+02 -0.14385765454E+02 -0.22492235498E+02  0.93960546916E+02  0.88654055335E+02 0.  0.
         11    1    3    3    0    0  0.55471491007E+01  0.43386798208E+01 -0.52249380697E+02  0.52721843568E+02  0.51100000000E-03 0. -1.
         22    1    1    0    0    0  0.16005997125E+02  0.14385765454E+02  0.22492235498E+02  0.31129453084E+02  0.00000000000E+00 0. -1.
</event>
<event>
 5    1  0.1047411E-009  0.9118800E+02  0.7815553E-02  0.1125453E+00
         25   -1    0    0    0    0  0.00000000000E+00  0.00000000000E+00  0.99999998245E-14  0.12509000000E+03  0.12509000000E+03 0.  0.
        -11    1    3    3    0    0 -0.19168780783E+02 -0.22953386841E+02  0.34562491114E+02  0.45704112687E+02  0.51100000000E-03 0.  1.
         23    2    1    0    0    0 -0.14442520057E+02 -0.45155341088E+01 -0.17981106081E+02  0.10158900832E+03  0.98833344587E+02 0.  0.
         11    1    3    3    0    0  0.47262607262E+01  0.18437852732E+02 -0.52543597196E+02  0.55884895637E+02  0.51100000000E-03 0. -1.
         22    1    1    0    0    0  0.14442520057E+02  0.45155341088E+01  0.17981106081E+02  0.23500991677E+02  0.00000000000E+00 0. -1.
</event>
<event>
 5    1  0.1047411E-009  0.9118800E+02  0.7815553E-02  0.1125453E+00
         25   -1    0    0    0    0  0.00000000000E+00  0.00000000000E+00  0.99999998245E-14  0.12509000000E+03  0.12509000000E+03 0.  0.
        -11    1    3    3    0    0 -0.35793387069E+02  0.50362930181E+02  0.40120015778E+01  0.61916778430E+02  0.51100000000E-03 0.  1.
         23    2    1    0    0    0 -0.20087632098E+02  0.19928789643E+02 -0.21416109751E+01  0.96712964963E+02  0.92456159742E+02 0.  0.
         11    1    3    3    0    0  0.15705754971E+02 -0.30434140538E+02 -0.61536125529E+01  0.34796186532E+02  0.51100000000E-03 0. -1.
         22    1    1    0    0    0  0.20087632098E+02 -0.19928789643E+02  0.21416109751E+01  0.28377035037E+02  0.00000000000E+00 0.  1.
</event>
<event>
 5    1  0.1047411E-009  0.9118800E+02  0.7815553E-02  0.1125453E+00
         25   -1    0    0    0    0  0.00000000000E+00  0.00000000000E+00  0.99999998245E-14  0.12509000000E+03  0.12509000000E+03 0.  0.
        -11    1    3    3    0    0  0.21680251619E+02 -0.22179334214E+02 -0.13098531842E+02  0.33667903307E+02  0.51100000000E-03 0. -1.
         23    2    1    0    0    0 -0.72398237250E+01  0.29944647877E+02 -0.60706768180E+01  0.93690157626E+02  0.88271714240E+02 0.  0.
         11    1    3    3    0    0 -0.28920075344E+02  0.52123982092E+02  0.70278550238E+01  0.60022254319E+02  0.51100000000E-03 0.  1.
         22    1    1    0    0    0  0.72398237250E+01 -0.29944647877E+02  0.60706768180E+01  0.31399842374E+02  0.00000000000E+00 0.  1.
</event>
<event>
 5    1  0.1047411E-009  0.9118800E+02  0.7815553E-02  0.1125453E+00
         25   -1    0    0    0    0  0.00000000000E+00  0.00000000000E+00  0.99999998245E-14  0.12509000000E+03  0.12509000000E+03 0.  0.
        -11    1    3    3    0    0  0.27001547716E+02  0.20244217732E+02  0.11342048886E+02  0.35602724669E+02  0.51100000000E-03 0. -1.
         23    2    1    0    0    0 -0.43443251123E+01 -0.29354443039E+02 -0.27122608243E+00  0.95414588454E+02  0.90682488053E+02 0.  0.
         11    1    3    3    0    0 -0.31345872828E+02 -0.49598660771E+02 -0.11613274968E+02  0.59811863785E+02  0.51100000000E-03 0.  1.
         22    1    1    0    0    0  0.43443251123E+01  0.29354443039E+02  0.27122608243E+00  0.29675411546E+02  0.00000000000E+00 0.  1.
</event>
<event>
 5    1  0.1047411E-009  0.9118800E+02  0.7815553E-02  0.1125453E+00
         25   -1    0    0    0    0  0.00000000000E+00  0.00000000000E+00  0.99999998245E-14  0.12509000000E+03  0.12509000000E+03 0.  0.
        -11    1    3    3    0    0  0.26398233642E+02 -0.38959450987E+02 -0.20793915766E+01  0.47106575233E+02  0.51100000000E-03 0.  1.
         23    2    1    0    0    0  0.17994918336E+02 -0.25003124247E+01  0.25636312088E+02  0.93668842389E+02  0.88241503211E+02 0.  0.
         11    1    3    3    0    0 -0.84033153061E+01  0.36459138562E+02  0.27715703664E+02  0.46562267156E+02  0.51100000000E-03 0. -1.
         22    1    1    0    0    0 -0.17994918336E+02  0.25003124247E+01 -0.25636312088E+02  0.31421157611E+02  0.00000000000E+00 0.  1.
</event>
<event>
 5    1  0.1047411E-009  0.9118800E+02  0.7815553E-02  0.1125453E+00
         25   -1    0    0    0    0  0.00000000000E+00  0.00000000000E+00  0.99999998245E-14  0.12509000000E+03  0.12509000000E+03 0.  0.
        -11    1    3    3    0    0 -0.23856900983E+02 -0.97900662383E+01 -0.25218980516E+02  0.36069295807E+02  0.51100000000E-03 0.  1.
         23    2    1    0    0    0  0.28056711220E+01 -0.22401747405E+02  0.23170360345E+02  0.92739178128E+02  0.86913632326E+02 0.  0.
         11    1    3    3    0    0  0.26662572105E+02 -0.12611681167E+02  0.48389340861E+02  0.56669882322E+02  0.51100000000E-03 0. -1.
         22    1    1    0    0    0 -0.28056711220E+01  0.22401747405E+02 -0.23170360345E+02  0.32350821872E+02  0.00000000000E+00 0. -1.
</event>
<event>
 5    1  0.1047411E-009  0.9118800E+02  0.7815553E-02  0.1125453E+00
         25   -1    0    0    0    0  0.00000000000E+00  0.00000000000E+00  0.99999998245E-14  0.12509000000E+03  0.12509000000E+03 0.  0.
        -11    1    3    3    0    0  0.19490584296E+02 -0.33620624078E+02  0.60593322231E+01  0.39331218477E+02  0.51100000000E-03 0. -1.
         23    2    1    0    0    0 -0.20273631826E+02  0.11646092898E+02  0.98880830287E+01  0.99704456610E+02  0.96418633337E+02 0.  0.
         11    1    3    3    0    0 -0.39764216123E+02  0.45266716976E+02  0.38287508057E+01  0.60373238133E+02  0.51100000000E-03 0.  1.
         22    1    1    0    0    0  0.20273631826E+02 -0.11646092898E+02 -0.98880830287E+01  0.25385543390E+02  0.00000000000E+00 0.  1.
</event>
<event>
 5    1  0.1047411E-009  0.9118800E+02  0.7815553E-02  0.1125453E+00
         25   -1    0    0    0    0  0.00000000000E+00  0.00000000000E+00  0.99999998245E-14  0.12509000000E+03  0.12509000000E+03 0.  0.
        -11    1    3    3    0    0 -0.21628117319E+02  0.58681809561E+00 -0.23643297805E+02  0.32048796320E+02  0.51100000000E-03 0. -1.
         23    2    1    0    0    0  0.12321383270E+02  0.96919454209E+01  0.27103333186E+02  0.93779602981E+02  0.88398376533E+02 0.  0.
         11    1    3    3    0    0  0.33949500588E+02  0.91051273253E+01  0.50746630990E+02  0.61730806661E+02  0.51100000000E-03 0.  1.
         22    1    1    0    0    0 -0.12321383270E+02 -0.96919454209E+01 -0.27103333186E+02  0.31310397019E+02  0.00000000000E+00 0.  1.
</event>
<event>
 5    1  0.1047411E-009  0.9118800E+02  0.7815553E-02  0.1125453E+00
         25   -1    0    0    0    0  0.00000000000E+00  0.00000000000E+00  0.99999998245E-14  0.12509000000E+03  0.12509000000E+03 0.  0.
        -11    1    3    3    0    0  0.21657605860E+02  0.10593424525E+02 -0.35600737822E+02  0.42996337850E+02  0.51100000000E-03 0.  1.
         23    2    1    0    0    0 -0.23130418282E+02 -0.93264039275E+01 -0.12782871266E+02  0.97065013685E+02  0.92931248909E+02 0.  0.
         11    1    3    3    0    0 -0.44788024143E+02 -0.19919828452E+02  0.22817866557E+02  0.54068675836E+02  0.51100000000E-03 0. -1.
         22    1    1    0    0    0  0.23130418282E+02  0.93264039275E+01  0.12782871266E+02  0.28024986315E+02  0.00000000000E+00 0. -1.
</event>
<event>
 5    1  0.1047411E-009  0.9118800E+02  0.7815553E-02  0.1125453E+00
         25   -1    0    0    0    0  0.00000000000E+00  0.00000000000E+00  0.99999998245E-14  0.12509000000E+03  0.12509000000E+03 0.  0.
        -11    1    3    3    0    0 -0.21571874354E+02 -0.51125249074E+02 -0.11690660801E+02  0.56708098242E+02  0.51100000000E-03 0. -1.
         23    2    1    0    0    0 -0.19570578156E+02 -0.18669284767E+02  0.10500389430E+02  0.96076074011E+02  0.91590414871E+02 0.  0.
         11    1    3    3    0    0  0.20012961983E+01  0.32455964307E+02  0.22191050231E+02  0.39367975769E+02  0.51100000000E-03 0.  1.
         22    1    1    0    0    0  0.19570578156E+02  0.18669284767E+02 -0.10500389430E+02  0.29013925989E+02  0.00000000000E+00 0. -1.
</event>
<event>
 5    1  0.1047411E-009  0.9118800E+02  0.7815553E-02  0.1125453E+00
         25   -1    0    0    0    0  0.00000000000E+00  0.00000000000E+00  0.99999998245E-14  0.12509000000E+03  0.12509000000E+03 0.  0.
        -11    1    3    3    0    0  0.31595705378E+01  0.14221852208E+02  0.33054363154E+02  0.36122498391E+02  0.51100000000E-03 0. -1.
         23    2    1    0    0    0 -0.73595108770E+01 -0.20052931727E+02 -0.17068041893E+02  0.97747715434E+02  0.93845699674E+02 0.  0.
         11    1    3    3    0    0 -0.10519081415E+02 -0.34274783936E+02 -0.50122405047E+02  0.61625217043E+02  0.51100000000E-03 0.  1.
         22    1    1    0    0    0  0.73595108770E+01  0.20052931727E+02  0.17068041893E+02  0.27342284566E+02  0.00000000000E+00 0.  1.
</event>
<event>
 5    1  0.1047411E-009  0.9118800E+02  0.7815553E-02  0.1125453E+00
         25   -1    0    0    0    0  0.00000000000E+00  0.00000000000E+00  0.99999998245E-14  0.12509000000E+03  0.12509000000E+03 0.  0.
        -11    1    3    3    0    0  0.22990807495E+02  0.36406461858E+02 -0.41328080551E+02  0.59682643512E+02  0.51100000000E-03 0.  1.
         23    2    1    0    0    0  0.18784206722E+02  0.61692028210E+01 -0.20302790563E+02  0.96750825872E+02  0.92507370066E+02 0.  0.
         11    1    3    3    0    0 -0.42066007730E+01 -0.30237259037E+02  0.21025289988E+02  0.37068182360E+02  0.51100000000E-03 0. -1.
         22    1    1    0    0    0 -0.18784206722E+02 -0.61692028210E+01  0.20302790563E+02  0.28339174128E+02  0.00000000000E+00 0.  1.
</event>
<event>
 5    1  0.1047411E-009  0.9118800E+02  0.7815553E-02  0.1125453E+00
         25   -1    0    0    0    0  0.00000000000E+00  0.00000000000E+00  0.99999998245E-14  0.12509000000E+03  0.12509000000E+03 0.  0.
        -11    1    3    3    0    0  0.24820553147E+02  0.21852076316E+02  0.11151932225E+02  0.34898978358E+02  0.51100000000E-03 0.  1.
         23    2    1    0    0    0 -0.30824874561E+02  0.72227802527E+01  0.75173229496E+01  0.92550000144E+02  0.86640931066E+02 0.  0.
         11    1    3    3    0    0 -0.55645427708E+02 -0.14629296063E+02 -0.36346092758E+01  0.57651021786E+02  0.51100000000E-03 0. -1.
         22    1    1    0    0    0  0.30824874561E+02 -0.72227802527E+01 -0.75173229496E+01  0.32539999856E+02  0.00000000000E+00 0. -1.
</event>
<event>
 5    1  0.1047411E-009  0.9118800E+02  0.7815553E-02  0.1125453E+00
         25   -1    0    0    0    0  0.00000000000E+00  0.00000000000E+00  0.99999998245E-14  0.12509000000E+03  0.12509000000E+03 0.  0.
        -11    1    3    3    0    0 -0.16487810230E+02  0.22239501074E+02 -0.31425660568E+02  0.41880967475E+02  0.51100000000E-03 0.  1.
         23    2    1    0    0    0 -0.30059439421E+02 -0.15046742435E+02 -0.17509596527E+01  0.91429337262E+02  0.85007549643E+02 0.  0.
         11    1    3    3    0    0 -0.13571629191E+02 -0.37286243510E+02  0.29674700915E+02  0.49548369788E+02  0.51100000000E-03 0. -1.
         22    1    1    0    0    0  0.30059439421E+02  0.15046742435E+02  0.17509596527E+01  0.33660662738E+02  0.00000000000E+00 0. -1.
</event>
<event>
 5    1  0.1047411E-009  0.9118800E+02  0.7815553E-02  0.1125453E+00
         25   -1    0    0    0    0  0.00000000000E+00  0.00000000000E+00  0.99999998245E-14  0.12509000000E+03  0.12509000000E+03 0.  0.
        -11    1    3    3    0    0 -0.43887923244E+00  0.39078001296E+02 -0.54519084716E+01  0.39458916692E+02  0.51100000000E-03 0. -1.
         23    2    1    0    0    0 -0.13897192316E+02 -0.20107574420E+02 -0.49164897416E+01  0.10015772424E+03  0.97004903740E+02 0.  0.
         11    1    3    3    0    0 -0.13458313084E+02 -0.59185575716E+02  0.53541872995E+00  0.60698807545E+02  0.51100000000E-03 0.  1.
         22    1    1    0    0    0  0.13897192316E+02  0.20107574420E+02  0.49164897416E+01  0.24932275763E+02  0.00000000000E+00 0.  1.
</event>
<event>
 5    1  0.1047411E-009  0.9118800E+02  0.7815553E-02  0.1125453E+00
         25   -1    0    0    0    0  0.00000000000E+00  0.00000000000E+00  0.99999998245E-14  0.12509000000E+03  0.12509000000E+03 0.  0.
        -11    1    3    3    0    0  0.11634939949E+02  0.27698031900E+02 -0.51143897117E+02  0.59314846466E+02  0.51100000000E-03 0. -1.
         23    2    1    0    0    0  0.13020925643E+02  0.93572190389E+00 -0.25682788950E+02  0.96279832900E+02  0.91868277958E+02 0.  0.
         11    1    3    3    0    0  0.13859856941E+01 -0.26762309996E+02  0.25461108167E+02  0.36964986434E+02  0.51100000000E-03 0.  1.
         22    1    1    0    0    0 -0.13020925643E+02 -0.93572190389E+00  0.25682788950E+02  0.28810167100E+02  0.00000000000E+00 0. -1.
</event>
<event>
 5    1  0.1047411E-009  0.9118800E+02  0.7815553E-02  0.1125453E+00
         25   -1    0    0    0    0  0.00000000000E+00  0.00000000000E+00  0.99999998245E-14  0.12509000000E+03  0.12509000000E+03 0.  0.
        -11    1    3    3    0    0 -0.20964977023E+02  0.31800909914E+02  0.20008222267E+02  0.43025075148E+02  0.51100000000E-03 0.  1.
         23    2    1    0    0    0 -0.25866566554E+02 -0.11384451908E+02 -0.91756258345E+01  0.95376751777E+02  0.90630280037E+02 0.  0.
         11    1    3    3    0    0 -0.49015895308E+01 -0.43185361822E+02 -0.29183848101E+02  0.52351676629E+02  0.51100000000E-03 0. -1.
         22    1    1    0    0    0  0.25866566554E+02  0.11384451908E+02  0.91756258345E+01  0.29713248223E+02  0.00000000000E+00 0. -1.
</event>
<event>
 5    1  0.1047411E-009  0.9118800E+02  0.7815553E-02  0.1125453E+00
         25   -1    0    0    0    0  0.00000000000E+00  0.00000000000E+00  0.99999998245E-14  0.12509000000E+03  0.12509000000E+03 0.  0.
        -11    1    3    3    0    0  0.25203428785E+02 -0.14298841045E+02 -0.15275137016E+02  0.32756670906E+02  0.51100000000E-03 0. -1.
         23    2    1    0    0    0 -0.27482761831E+02  0.67440782955E+01  0.10283698891E+02  0.94981209709E+02  0.90082689485E+02 0.  0.
         11    1    3    3    0    0 -0.52686190616E+02  0.21042919341E+02  0.25558835907E+02  0.62224538802E+02  0.51100000000E-03 0.  1.
         22    1    1    0    0    0  0.27482761831E+02 -0.67440782955E+01 -0.10283698891E+02  0.30108790291E+02  0.00000000000E+00 0.  1.
</event>
<event>
 5    1  0.1047411E-009  0.9118800E+02  0.7815553E-02  0.1125453E+00
         25   -1    0    0    0    0  0.00000000000E+00  0.00000000000E+00  0.99999998245E-14  0.12509000000E+03  0.12509000000E+03 0.  0.
        -11    1    3    3    0    0 -0.44355652671E+02  0.19791228166E+02  0.13126349301E+02  0.50313195908E+02  0.51100000000E-03 0.  1.
         23    2    1    0    0    0 -0.23231951916E+02 -0.18529222114E+02  0.30311208827E+01  0.95219557154E+02  0.90413056075E+02 0.  0.
         11    1    3    3    0    0  0.21123700756E+02 -0.38320450281E+02 -0.10095228418E+02  0.44906361246E+02  0.51100000000E-03 0. -1.
         22    1    1    0    0    0  0.23231951916E+02  0.18529222114E+02 -0.30311208827E+01  0.29870442846E+02  0.00000000000E+00 0.  1.
</event>
<event>
 5    1  0.1047411E-009  0.9118800E+02  0.7815553E-02  0.1125453E+00
         25   -1    0    0    0    0  0.00000000000E+00  0.00000000000E+00  0.99999998245E-14  0.12509000000E+03  0.12509000000E+03 0.  0.
        -11    1    3    3    0    0 -0.49241943356E+02  0.30752856297E+02  0.18660173415E+02  0.60981220290E+02  0.51100000000E-03 0.  1.
         23    2    1    0    0    0 -0.32827536729E+02  0.10050236356E+02  0.61567265024E+01  0.90210784130E+02  0.83195107270E+02 0.  0.
         11    1    3    3    0    0  0.16414406627E+02 -0.20702619941E+02 -0.12503446912E+02  0.29229563840E+02  0.51100000000E-03 0. -1.
         22    1    1    0    0    0  0.32827536729E+02 -0.10050236356E+02 -0.61567265024E+01  0.34879215870E+02  0.00000000000E+00 0.  1.
</event>
<event>
 5    1  0.1047411E-009  0.9118800E+02  0.7815553E-02  0.1125453E+00
         25   -1    0    0    0    0  0.00000000000E+00  0.00000000000E+00  0.99999998245E-14  0.12509000000E+03  0.12509000000E+03 0.  0.
        -11    1    3    3    0    0 -0.20898467732E+02  0.12385032011E+01  0.57878571897E+02  0.61548427509E+02  0.51100000000E-03 0. -1.
         23    2    1    0    0    0 -0.94741485761E+01  0.77047479196E+01  0.36134040241E+02  0.86948270937E+02  0.78135845315E+02 0.  0.
         11    1    3    3    0    0  0.11424319156E+02  0.64662447185E+01 -0.21744531656E+02  0.25399843428E+02  0.51100000000E-03 0.  1.
         22    1    1    0    0    0  0.94741485761E+01 -0.77047479196E+01 -0.36134040241E+02  0.38141729063E+02  0.00000000000E+00 0. -1.
</event>
<event>
 5    1  0.1047411E-009  0.9118800E+02  0.7815553E-02  0.1125453E+00
         25   -1    0    0    0    0  0.00000000000E+00  0.00000000000E+00  0.99999998245E-14  0.12509000000E+03  0.12509000000E+03 0.  0.
        -11    1    3    3    0    0  0.11852478261E+02  0.19218500355E+01 -0.54018001401E+02  0.55336418606E+02  0.51100000000E-03 0.  1.
         23    2    1    0    0    0  0.15328810169E+02  0.17986084655E+02 -0.16584554892E+02  0.96219268742E+02  0.91785775335E+02 0.  0.
         11    1    3    3    0    0  0.34763319076E+01  0.16064234619E+02  0.37433446509E+02  0.40882850136E+02  0.51100000000E-03 0. -1.
         22    1    1    0    0    0 -0.15328810169E+02 -0.17986084655E+02  0.16584554892E+02  0.28870731258E+02  0.00000000000E+00 0.  1.
</event>
<event>
 5    1  0.1047411E-009  0.9118800E+02  0.7815553E-02  0.1125453E+00
         25   -1    0    0    0    0  0.00000000000E+00  0.00000000000E+00  0.99999998245E-14  0.12509000000E+03  0.12509000000E+03 0.  0.
        -11    1    3    3    0    0 -0.26798350404E+02  0.32893707096E+02  0.53102181027E+01  0.42759162380E+02  0.51100000000E-03 0. -1.
         23    2    1    0    0    0  0.33135843602E+01 -0.70914590222E+01  0.26754018102E+02  0.97214453064E+02  0.93132184380E+02 0.  0.
         11    1    3    3    0    0  0.30111934764E+02 -0.39985166118E+02  0.21443800000E+02  0.54455290684E+02  0.51100000000E-03 0.  1.
         22    1    1    0    0    0 -0.33135843602E+01  0.70914590222E+01 -0.26754018102E+02  0.27875546936E+02  0.00000000000E+00 0.  1.
</event>
<event>
 5    1  0.1047411E-009  0.9118800E+02  0.7815553E-02  0.1125453E+00
         25   -1    0    0    0    0  0.00000000000E+00  0.00000000000E+00  0.99999998245E-14  0.12509000000E+03  0.12509000000E+03 0.  0.
        -11    1    3    3    0    0 -0.25128657142E+02  0.64016242375E-01  0.56016174413E+02  0.61394342605E+02  0.51100000000E-03 0.  1.
         23    2    1    0    0    0 -0.33557307894E+01 -0.10522594615E+00  0.28062706587E+02  0.96827171008E+02  0.92610547686E+02 0.  0.
         11    1    3    3    0    0  0.21772926352E+02 -0.16924218853E+00 -0.27953467825E+02  0.35432828402E+02  0.51100000000E-03 0. -1.
         22    1    1    0    0    0  0.33557307894E+01  0.10522594615E+00 -0.28062706587E+02  0.28262828992E+02  0.00000000000E+00 0.  1.
</event>
<event>
 5    1  0.1047411E-009  0.9118800E+02  0.7815553E-02  0.1125453E+00
         25   -1    0    0    0    0  0.00000000000E+00  0.00000000000E+00  0.99999998245E-14  0.12509000000E+03  0.12509000000E+03 0.  0.
        -11    1    3    3    0    0 -0.20866124095E+02 -0.53623432176E+02 -0.20715005236E+02  0.61155368164E+02  0.51100000000E-03 0.  1.
         23    2    1    0    0    0 -0.16812804206E+02 -0.21922402805E+02 -0.41484725602E+01  0.97153071847E+02  0.93049704001E+02 0.  0.
         11    1    3    3    0    0  0.40533198890E+01  0.31701029371E+02  0.16566532676E+02  0.35997703683E+02  0.51100000000E-03 0. -1.
         22    1    1    0    0    0  0.16812804206E+02  0.21922402805E+02  0.41484725602E+01  0.27936928153E+02  0.00000000000E+00 0.  1.
</event>
<event>
 5    1  0.1047411E-009  0.9118800E+02  0.7815553E-02  0.1125453E+00
         25   -1    0    0    0    0  0.00000000000E+00  0.00000000000E+00  0.99999998245E-14  0.12509000000E+03  0.12509000000E+03 0.  0.
        -11    1    3    3    0    0  0.19499398461E+02 -0.18112961355E+02  0.56402341739E+02  0.62366097067E+02  0.51100000000E-03 0.  1.
         23    2    1    0    0    0  0.12105562723E+02 -0.10468918894E+02  0.26173667096E+02  0.94410955672E+02  0.89287315952E+02 0.  0.
         11    1    3    3    0    0 -0.73938357388E+01  0.76440424616E+01 -0.30228674643E+02  0.32044858605E+02  0.51100000000E-03 0. -1.
         22    1    1    0    0    0 -0.12105562723E+02  0.10468918894E+02 -0.26173667096E+02  0.30679044328E+02  0.00000000000E+00 0.  1.
</event>
<event>
 5    1  0.1047411E-009  0.9118800E+02  0.7815553E-02  0.1125453E+00
         25   -1    0    0    0    0  0.00000000000E+00  0.00000000000E+00  0.99999998245E-14  0.12509000000E+03  0.12509000000E+03 0.  0.
        -11    1    3    3    0    0 -0.51265760064E+02  0.22100743648E+02  0.24313450945E+02  0.60891419115E+02  0.51100000000E-03 0. -1.
         23    2    1    0    0    0 -0.23112110294E+02  0.19731584831E+02  0.74269472656E+01  0.93806384035E+02  0.88436265513E+02 0.  0.
         11    1    3    3    0    0  0.28153649770E+02 -0.23691588165E+01 -0.16886503679E+02  0.32914964920E+02  0.51100000000E-03 0.  1.
         22    1    1    0    0    0  0.23112110294E+02 -0.19731584831E+02 -0.74269472656E+01  0.31283615965E+02  0.00000000000E+00 0. -1.
</event>
<event>
 5    1  0.1047411E-009  0.9118800E+02  0.7815553E-02  0.1125453E+00
         25   -1    0    0    0    0  0.00000000000E+00  0.00000000000E+00  0.99999998245E-14  0.12509000000E+03  0.12509000000E+03 0.  0.
        -11    1    3    3    0    0  0.30736562833E+02 -0.21551878293E+02  0.14006967006E+02  0.40067628801E+02  0.51100000000E-03 0. -1.
         23    2    1    0    0    0  0.52740820168E+01  0.36750915118E+01 -0.28617455155E+02  0.95759453154E+02  0.91156962926E+02 0.  0.
         11    1    3    3    0    0 -0.25462480817E+02  0.25226969805E+02 -0.42624422161E+02  0.55691824353E+02  0.51100000000E-03 0.  1.
         22    1    1    0    0    0 -0.52740820168E+01 -0.36750915118E+01  0.28617455155E+02  0.29330546846E+02  0.00000000000E+00 0.  1.
</event>
<event>
 5    1  0.1047411E-009  0.9118800E+02  0.7815553E-02  0.1125453E+00
         25   -1    0    0    0    0  0.00000000000E+00  0.00000000000E+00  0.99999998245E-14  0.12509000000E+03  0.12509000000E+03 0.  0.
        -11    1    3    3    0    0 -0.26315120630E+02 -0.69775377705E+01  0.54953927469E+02  0.61327854615E+02  0.51100000000E-03 0. -1.
         23    2    1    0    0    0 -0.20174941860E+02 -0.27050586751E+01  0.22010512364E+02  0.95109868645E+02  0.90261170155E+02 0.  0.
         11    1    3    3    0    0  0.61401787700E+01  0.42724790954E+01 -0.32943415105E+02  0.33782014031E+02  0.51100000000E-03 0.  1.
         22    1    1    0    0    0  0.20174941860E+02  0.27050586751E+01 -0.22010512364E+02  0.29980131355E+02  0.00000000000E+00 0. -1.
</event>
<event>
 5    1  0.1047411E-009  0.9118800E+02  0.7815553E-02  0.1125453E+00
         25   -1    0    0    0    0  0.00000000000E+00  0.00000000000E+00  0.99999998245E-14  0.12509000000E+03  0.12509000000E+03 0.  0.
        -11    1    3    3    0    0  0.22462724854E+01  0.31276490416E+01  0.34829396451E+02  0.35041615060E+02  0.51100000000E-03 0. -1.
         23    2    1    0    0    0 -0.13455629978E+02  0.30485379799E+01 -0.24803738615E+02  0.96707381882E+02  0.92448605718E+02 0.  0.
         11    1    3    3    0    0 -0.15701902464E+02 -0.79111061676E-01 -0.59633135067E+02  0.61665766822E+02  0.51100000000E-03 0.  1.
         22    1    1    0    0    0  0.13455629978E+02 -0.30485379799E+01  0.24803738615E+02  0.28382618118E+02  0.00000000000E+00 0.  1.
</event>
<event>
 5    1  0.1047411E-009  0.9118800E+02  0.7815553E-02  0.1125453E+00
         25   -1    0    0    0    0  0.00000000000E+00  0.00000000000E+00  0.99999998245E-14  0.12509000000E+03  0.12509000000E+03 0.  0.
        -11    1    3    3    0    0 -0.10039792155E+02  0.26877790084E+02 -0.45453930581E+02  0.53751956540E+02  0.51100000000E-03 0.  1.
         23    2    1    0    0    0 -0.19431240026E+02  0.19636504247E+02 -0.36271005050E+01  0.97227458011E+02  0.93149650269E+02 0.  0.
         11    1    3    3    0    0 -0.93914478711E+01 -0.72412858366E+01  0.41826830076E+02  0.43475501471E+02  0.51100000000E-03 0. -1.
         22    1    1    0    0    0  0.19431240026E+02 -0.19636504247E+02  0.36271005050E+01  0.27862541989E+02  0.00000000000E+00 0.  1.
</event>
<event>
 5    1  0.1047411E-009  0.9118800E+02  0.7815553E-02  0.1125453E+00
         25   -1    0    0    0    0  0.00000000000E+00  0.00000000000E+00  0.99999998245E-14  0.12509000000E+03  0.12509000000E+03 0.  0.
        -11    1    3    3    0    0  0.39722115558E+02  0.33250405087E+02 -0.47955432377E+01  0.52023390297E+02  0.51100000000E-03 0.  1.
         23    2    1    0    0    0  0.54422533502E+01  0.14241237605E+02 -0.24760205938E+02  0.96012538486E+02  0.91503599811E+02 0.  0.
         11    1    3    3    0    0 -0.34279862207E+02 -0.19009167482E+02 -0.19964662700E+02  0.43989148188E+02  0.51100000000E-03 0. -1.
         22    1    1    0    0    0 -0.54422533502E+01 -0.14241237605E+02  0.24760205938E+02  0.29077461514E+02  0.00000000000E+00 0.  1.
</event>
<event>
 5    1  0.1047411E-009  0.9118800E+02  0.7815553E-02  0.1125453E+00
         25   -1    0    0    0    0  0.00000000000E+00  0.00000000000E+00  0.99999998245E-14  0.12509000000E+03  0.12509000000E+03 0.  0.
        -11    1    3    3    0    0 -0.48908330584E+02  0.29412173115E+01 -0.30610430313E+02  0.57772605999E+02  0.51100000000E-03 0.  1.
         23    2    1    0    0    0 -0.10114880662E+02  0.79045759724E+01 -0.24600733764E+02  0.97341320142E+02  0.93302429621E+02 0.  0.
         11    1    3    3    0    0  0.38793449922E+02  0.49633586608E+01  0.60096965482E+01  0.39568714142E+02  0.51100000000E-03 0. -1.
         22    1    1    0    0    0  0.10114880662E+02 -0.79045759724E+01  0.24600733764E+02  0.27748679858E+02  0.00000000000E+00 0.  1.
</event>
<event>
 5    1  0.1047411E-009  0.9118800E+02  0.7815553E-02  0.1125453E+00
         25   -1    0    0    0    0  0.00000000000E+00  0.00000000000E+00  0.99999998245E-14  0.12509000000E+03  0.12509000000E+03 0.  0.
        -11    1    3    3    0    0 -0.24793674029E+02 -0.35816004514E+02  0.14270721511E+02  0.45838476675E+02  0.51100000000E-03 0.  1.
         23    2    1    0    0    0 -0.31806986313E+02  0.64294676480E+01 -0.39945646437E+01  0.92394756015E+02  0.86416502820E+02 0.  0.
         11    1    3    3    0    0 -0.70133122844E+01  0.42245472162E+02 -0.18265286155E+02  0.46556279340E+02  0.51100000000E-03 0. -1.
         22    1    1    0    0    0  0.31806986313E+02 -0.64294676480E+01  0.39945646437E+01  0.32695243985E+02  0.00000000000E+00 0. -1.
</event>
<event>
 5    1  0.1047411E-009  0.9118800E+02  0.7815553E-02  0.1125453E+00
         25   -1    0    0    0    0  0.00000000000E+00  0.00000000000E+00  0.99999998245E-14  0.12509000000E+03  0.12509000000E+03 0.  0.
        -11    1    3    3    0    0  0.36100204739E+00  0.35565627809E+02  0.15526977186E+02  0.38808906513E+02  0.51100000000E-03 0.  1.
         23    2    1    0    0    0 -0.16035177558E+02 -0.18842800938E+02  0.15980013165E+02  0.95635986907E+02  0.90987378820E+02 0.  0.
         11    1    3    3    0    0 -0.16396179606E+02 -0.54408428747E+02  0.45303597915E+00  0.56827080395E+02  0.51100000000E-03 0. -1.
         22    1    1    0    0    0  0.16035177558E+02  0.18842800938E+02 -0.15980013165E+02  0.29454013093E+02  0.00000000000E+00 0. -1.
</event>
<event>
 5    1  0.1047411E-009  0.9118800E+02  0.7815553E-02  0.1125453E+00
         25   -1    0    0    0    0  0.00000000000E+00  0.00000000000E+00  0.99999998245E-14  0.12509000000E+03  0.12509000000E+03 0.  0.
        -11    1    3    3    0    0 -0.18133191857E+02  0.51909669880E+02 -0.28880941002E+02  0.62109059141E+02  0.51100000000E-03 0.  1.
         23    2    1    0    0    0 -0.11594962476E+02  0.25583205717E+02 -0.95334643422E+01  0.95428062910E+02  0.90701073196E+02 0.  0.
         11    1    3    3    0    0  0.65382293810E+01 -0.26326464164E+02  0.19347476659E+02  0.33319003769E+02  0.51100000000E-03 0. -1.
         22    1    1    0    0    0  0.11594962476E+02 -0.25583205717E+02  0.95334643422E+01  0.29661937090E+02  0.00000000000E+00 0.  1.
</event>
<event>
 5    1  0.1047411E-009  0.9118800E+02  0.7815553E-02  0.1125453E+00
         25   -1    0    0    0    0  0.00000000000E+00  0.00000000000E+00  0.99999998245E-14  0.12509000000E+03  0.12509000000E+03 0.  0.
        -11    1    3    3    0    0  0.33732851406E+02  0.23769569914E+02  0.10135186959E+02  0.42492584445E+02  0.51100000000E-03 0.  1.
         23    2    1    0    0    0  0.51320719203E+01  0.76602399607E+01 -0.29631448719E+02  0.94057111129E+02  0.88790201950E+02 0.  0.
         11    1    3    3    0    0 -0.28600779486E+02 -0.16109329954E+02 -0.39766635678E+02  0.51564526684E+02  0.51100000000E-03 0. -1.
         22    1    1    0    0    0 -0.51320719203E+01 -0.76602399607E+01  0.29631448719E+02  0.31032888871E+02  0.00000000000E+00 0. -1.
</event>
<event>
 5    1  0.1047411E-009  0.9118800E+02  0.7815553E-02  0.1125453E+00
         25   -1    0    0    0    0  0.00000000000E+00  0.00000000000E+00  0.99999998245E-14  0.12509000000E+03  0.12509000000E+03 0.  0.
        -11    1    3    3    0    0 -0.36009949692E+02 -0.31063018763E+02  0.16318609746E+02  0.50278470897E+02  0.51100000000E-03 0.  1.
         23    2    1    0    0    0 -0.49503336267E+01 -0.35403853665E+01  0.30388486514E+02  0.94098061627E+02  0.88847875370E+02 0.  0.
         11    1    3    3    0    0  0.31059616065E+02  0.27522633396E+02  0.14069876768E+02  0.43819590729E+02  0.51100000000E-03 0. -1.
         22    1    1    0    0    0  0.49503336267E+01  0.35403853665E+01 -0.30388486514E+02  0.30991938373E+02  0.00000000000E+00 0.  1.
</event>
<event>
 5    1  0.1047411E-009  0.9118800E+02  0.7815553E-02  0.1125453E+00
         25   -1    0    0    0    0  0.00000000000E+00  0.00000000000E+00  0.99999998245E-14  0.12509000000E+03  0.12509000000E+03 0.  0.
        -11    1    3    3    0    0 -0.39413392887E+02  0.22289940217E+02  0.50075730436E+01  0.45555820284E+02  0.51100000000E-03 0.  1.
         23    2    1    0    0    0 -0.16145244408E+02 -0.20936870143E+02  0.13543807496E+02  0.95383836163E+02  0.90640057543E+02 0.  0.
         11    1    3    3    0    0  0.23268148479E+02 -0.43226810360E+02  0.85362344527E+01  0.49828015879E+02  0.51100000000E-03 0. -1.
         22    1    1    0    0    0  0.16145244408E+02  0.20936870143E+02 -0.13543807496E+02  0.29706163837E+02  0.00000000000E+00 0. -1.
</event>
<event>
 5    1  0.1047411E-009  0.9118800E+02  0.7815553E-02  0.1125453E+00
         25   -1    0    0    0    0  0.00000000000E+00  0.00000000000E+00  0.99999998245E-14  0.12509000000E+03  0.12509000000E+03 0.  0.
        -11    1    3    3    0    0 -0.30647779890E+01 -0.38781221821E+02  0.54386649726E+01  0.39280467245E+02  0.51100000000E-03 0. -1.
         23    2    1    0    0    0 -0.18446519927E+02  0.15006206636E+02  0.16288968104E+02  0.96266557858E+02  0.91850200571E+02 0.  0.
         11    1    3    3    0    0 -0.15381741938E+02  0.53787428457E+02  0.10850303131E+02  0.56986090613E+02  0.51100000000E-03 0.  1.
         22    1    1    0    0    0  0.18446519927E+02 -0.15006206636E+02 -0.16288968104E+02  0.28823442142E+02  0.00000000000E+00 0.  1.
</event>
<event>
 5    1  0.1047411E-009  0.9118800E+02  0.7815553E-02  0.1125453E+00
         25   -1    0    0    0    0  0.00000000000E+00  0.00000000000E+00  0.99999998245E-14  0.12509000000E+03  0.12509000000E+03 0.  0.
        -11    1    3    3    0    0 -0.38721113288E+02  0.29499066950E+02 -0.13043766830E+02  0.50395033669E+02  0.51100000000E-03 0. -1.
         23    2    1    0    0    0 -0.43195806792E+00  0.98645749505E+01  0.18751623770E+02  0.10389755274E+03  0.10171323240E+03 0.  0.
         11    1    3    3    0    0  0.38289155220E+02 -0.19634492000E+02  0.31795390600E+02  0.53502519073E+02  0.51100000000E-03 0.  1.
         22    1    1    0    0    0  0.43195806792E+00 -0.98645749505E+01 -0.18751623770E+02  0.21192447257E+02  0.00000000000E+00 0.  1.
</event>
<event>
 5    1  0.1047411E-009  0.9118800E+02  0.7815553E-02  0.1125453E+00
         25   -1    0    0    0    0  0.00000000000E+00  0.00000000000E+00  0.99999998245E-14  0.12509000000E+03  0.12509000000E+03 0.  0.
        -11    1    3    3    0    0  0.46944390340E+01 -0.60572999715E+02  0.34959704483E+01  0.60855138336E+02  0.51100000000E-03 0. -1.
         23    2    1    0    0    0  0.57648092419E+01 -0.29003719564E+02 -0.79774787356E+01  0.94461762357E+02  0.89358466899E+02 0.  0.
         11    1    3    3    0    0  0.10703702078E+01  0.31569280151E+02 -0.11473449184E+02  0.33606624021E+02  0.51100000000E-03 0.  1.
         22    1    1    0    0    0 -0.57648092419E+01  0.29003719564E+02  0.79774787356E+01  0.30628237643E+02  0.00000000000E+00 0. -1.
</event>
<event>
 5    1  0.1047411E-009  0.9118800E+02  0.7815553E-02  0.1125453E+00
         25   -1    0    0    0    0  0.00000000000E+00  0.00000000000E+00  0.99999998245E-14  0.12509000000E+03  0.12509000000E+03 0.  0.
        -11    1    3    3    0    0 -0.38087565809E+02  0.35775722296E+02 -0.33909964367E+02  0.62293263350E+02  0.51100000000E-03 0.  1.
         23    2    1    0    0    0 -0.16900790628E+02  0.20644000670E+02 -0.14888307382E+02  0.94537206606E+02  0.89464016502E+02 0.  0.
         11    1    3    3    0    0  0.21186775181E+02 -0.15131721627E+02  0.19021656985E+02  0.32243943256E+02  0.51100000000E-03 0. -1.
         22    1    1    0    0    0  0.16900790628E+02 -0.20644000670E+02  0.14888307382E+02  0.30552793394E+02  0.00000000000E+00 0.  1.
</event>
<event>
 5    1  0.1047411E-009  0.9118800E+02  0.7815553E-02  0.1125453E+00
         25   -1    0    0    0    0  0.00000000000E+00  0.00000000000E+00  0.99999998245E-14  0.12509000000E+03  0.12509000000E+03 0.  0.
        -11    1    3    3    0    0  0.48507706105E+02  0.22093761891E+02  0.29825667526E+02  0.61079475355E+02  0.51100000000E-03 0.  1.
         23    2    1    0    0    0  0.20869004286E+02  0.17027683993E+02  0.70540264920E+01  0.97247287277E+02  0.93176275043E+02 0.  0.
         11    1    3    3    0    0 -0.27638701819E+02 -0.50660778984E+01 -0.22771641034E+02  0.36167811921E+02  0.51100000000E-03 0. -1.
         22    1    1    0    0    0 -0.20869004286E+02 -0.17027683993E+02 -0.70540264920E+01  0.27842712723E+02  0.00000000000E+00 0.  1.
</event>
<event>
 5    1  0.1047411E-009  0.9118800E+02  0.7815553E-02  0.1125453E+00
         25   -1    0    0    0    0  0.00000000000E+00  0.00000000000E+00  0.99999998245E-14  0.12509000000E+03  0.12509000000E+03 0.  0.
        -11    1    3    3    0    0  0.96088622574E+01  0.95347276899E+01 -0.31289456345E+02  0.34092100912E+02  0.51100000000E-03 0. -1.
         23    2    1    0    0    0 -0.17069494888E+01 -0.18858764226E+02  0.22330367069E+02  0.95811817712E+02  0.91228791810E+02 0.  0.
         11    1    3    3    0    0 -0.11315811746E+02 -0.28393491916E+02  0.53619823413E+02  0.61719716799E+02  0.51100000000E-03 0.  1.
         22    1    1    0    0    0  0.17069494888E+01  0.18858764226E+02 -0.22330367069E+02  0.29278182288E+02  0.00000000000E+00 0.  1.
</event>
<event>
 5    1  0.1047411E-009  0.9118800E+02  0.7815553E-02  0.1125453E+00
         25   -1    0    0    0    0  0.00000000000E+00  0.00000000000E+00  0.99999998245E-14  0.12509000000E+03  0.12509000000E+03 0.  0.
        -11    1    3    3    0    0  0.40802771767E+02  0.39389727082E+02 -0.15277493201E+02  0.58735156272E+02  0.51100000000E-03 0.  1.
         23    2    1    0    0    0  0.17804679870E+02  0.10852777842E+02 -0.20610028035E+02  0.95771700804E+02  0.91173768197E+02 0.  0.
         11    1    3    3    0    0 -0.22998091897E+02 -0.28536949241E+02 -0.53325348336E+01  0.37036544532E+02  0.51100000000E-03 0. -1.
         22    1    1    0    0    0 -0.17804679870E+02 -0.10852777842E+02  0.20610028035E+02  0.29318299196E+02  0.00000000000E+00 0.  1.
</event>
<event>
 5    1  0.1047411E-009  0.9118800E+02  0.7815553E-02  0.1125453E+00
         25   -1    0    0    0    0  0.00000000000E+00  0.00000000000E+00  0.99999998245E-14  0.12509000000E+03  0.12509000000E+03 0.  0.
        -11    1    3    3    0    0 -0.25694003785E+02  0.33191531780E+02  0.28724401375E+02  0.50862076708E+02  0.51100000000E-03 0.  1.
         23    2    1    0    0    0  0.11717290140E+02  0.92177236746E+01  0.25675325840E+02  0.95400209247E+02  0.90662650796E+02 0.  0.
         11    1    3    3    0    0  0.37411293925E+02 -0.23973808105E+02 -0.30490755351E+01  0.44538132539E+02  0.51100000000E-03 0. -1.
         22    1    1    0    0    0 -0.11717290140E+02 -0.92177236746E+01 -0.25675325840E+02  0.29689790753E+02  0.00000000000E+00 0.  1.
</event>
<event>
 5    1  0.1047411E-009  0.9118800E+02  0.7815553E-02  0.1125453E+00
         25   -1    0    0    0    0  0.00000000000E+00  0.00000000000E+00  0.99999998245E-14  0.12509000000E+03  0.12509000000E+03 0.  0.
        -11    1    3    3    0    0  0.28894838876E+01  0.62655650981E+01  0.30086069064E+02  0.30867101826E+02  0.51100000000E-03 0.  1.
         23    2    1    0    0    0 -0.45463340567E+01 -0.14918046811E+02 -0.27943996494E+02  0.93088684182E+02  0.87415209825E+02 0.  0.
         11    1    3    3    0    0 -0.74358179444E+01 -0.21183611910E+02 -0.58030065558E+02  0.62221582356E+02  0.51100000000E-03 0. -1.
         22    1    1    0    0    0  0.45463340567E+01  0.14918046811E+02  0.27943996494E+02  0.32001315818E+02  0.00000000000E+00 0. -1.
</event>
<event>
 5    1  0.1047411E-009  0.9118800E+02  0.7815553E-02  0.1125453E+00
         25   -1    0    0    0    0  0.00000000000E+00  0.00000000000E+00  0.99999998245E-14  0.12509000000E+03  0.12509000000E+03 0.  0.
        -11    1    3    3    0    0  0.43835526373E+02 -0.12628797928E+02 -0.89975754705E+01  0.46497271684E+02  0.51100000000E-03 0. -1.
         23    2    1    0    0    0  0.30353798078E+02  0.23181480817E+02  0.34652986948E+01  0.86739740475E+02  0.77801286442E+02 0.  0.
         11    1    3    3    0    0 -0.13481728295E+02  0.35810278745E+02  0.12462874165E+02  0.40242468790E+02  0.51100000000E-03 0.  1.
         22    1    1    0    0    0 -0.30353798078E+02 -0.23181480817E+02 -0.34652986948E+01  0.38350259525E+02  0.00000000000E+00 0. -1.
</event>
<event>
 5    1  0.1047411E-009  0.9118800E+02  0.7815553E-02  0.1125453E+00
         25   -1    0    0    0    0  0.00000000000E+00  0.00000000000E+00  0.99999998245E-14  0.12509000000E+03  0.12509000000E+03 0.  0.
        -11    1    3    3    0    0 -0.29229748016E+02  0.11703738835E+02  0.33705568387E+01  0.31665696352E+02  0.51100000000E-03 0. -1.
         23    2    1    0    0    0  0.17082489372E+02 -0.25093587357E+02 -0.11451414025E+02  0.92645671485E+02  0.86778949015E+02 0.  0.
         11    1    3    3    0    0  0.46312237388E+02 -0.36797326192E+02 -0.14821970864E+02  0.60979975134E+02  0.51100000000E-03 0.  1.
         22    1    1    0    0    0 -0.17082489372E+02  0.25093587357E+02  0.11451414025E+02  0.32444328515E+02  0.00000000000E+00 0.  1.
</event>
<event>
 5    1  0.1047411E-009  0.9118800E+02  0.7815553E-02  0.1125453E+00
         25   -1    0    0    0    0  0.00000000000E+00  0.00000000000E+00  0.99999998245E-14  0.12509000000E+03  0.12509000000E+03 0.  0.
        -11    1    3    3    0    0 -0.24023376990E+02 -0.42815244539E+02  0.27081726668E+02  0.56068598400E+02  0.51100000000E-03 0.  1.
         23    2    1    0    0    0 -0.13600065484E+02 -0.15711384542E+01  0.22361386135E+02  0.98870506353E+02  0.95330557428E+02 0.  0.
         11    1    3    3    0    0  0.10423311506E+02  0.41244106085E+02 -0.47203405334E+01  0.42801907954E+02  0.51100000000E-03 0. -1.
         22    1    1    0    0    0  0.13600065484E+02  0.15711384542E+01 -0.22361386135E+02  0.26219493647E+02  0.00000000000E+00 0.  1.
</event>
<event>
 5    1  0.1047411E-009  0.9118800E+02  0.7815553E-02  0.1125453E+00
         25   -1    0    0    0    0  0.00000000000E+00  0.00000000000E+00  0.99999998245E-14  0.12509000000E+03  0.12509000000E+03 0.  0.
        -11    1    3    3    0    0  0.10151586599E+02  0.16115161560E+01 -0.44052958293E+02  0.45236211484E+02  0.51100000000E-03 0.  1.
         23    2    1    0    0    0 -0.16428332376E+02  0.22512132742E+02 -0.52041967304E+01  0.96739164230E+02  0.92491599657E+02 0.  0.
         11    1    3    3    0    0 -0.26579918975E+02  0.20900616586E+02  0.38848761563E+02  0.51502952746E+02  0.51100000000E-03 0. -1.
         22    1    1    0    0    0  0.16428332376E+02 -0.22512132742E+02  0.52041967304E+01  0.28350835770E+02  0.00000000000E+00 0. -1.
</event>
<event>
 5    1  0.1047411E-009  0.9118800E+02  0.7815553E-02  0.1125453E+00
         25   -1    0    0    0    0  0.00000000000E+00  0.00000000000E+00  0.99999998245E-14  0.12509000000E+03  0.12509000000E+03 0.  0.
        -11    1    3    3    0    0  0.29777592868E+01  0.36447865790E+02  0.13572596081E+02  0.39006785764E+02  0.51100000000E-03 0.  1.
         23    2    1    0    0    0  0.24327223421E+02 -0.12871434137E+02 -0.72288894090E+01  0.96633990824E+02  0.92349248640E+02 0.  0.
         11    1    3    3    0    0  0.21349464134E+02 -0.49319299928E+02 -0.20801485490E+02  0.57627205060E+02  0.51100000000E-03 0. -1.
         22    1    1    0    0    0 -0.24327223421E+02  0.12871434137E+02  0.72288894090E+01  0.28456009176E+02  0.00000000000E+00 0. -1.
</event>
<event>
 5    1  0.1047411E-009  0.9118800E+02  0.7815553E-02  0.1125453E+00
         25   -1    0    0    0    0  0.00000000000E+00  0.00000000000E+00  0.99999998245E-14  0.12509000000E+03  0.12509000000E+03 0.  0.
        -11    1    3    3    0    0 -0.41673524496E+02  0.25465993080E+02 -0.29716706222E+02  0.57168890810E+02  0.51100000000E-03 0. -1.
         23    2    1    0    0    0 -0.26034360990E+02 -0.47322962943E+01 -0.83023233830E+01  0.97357146668E+02  0.93323645735E+02 0.  0.
         11    1    3    3    0    0  0.15639163506E+02 -0.30198289374E+02  0.21414382839E+02  0.40188255858E+02  0.51100000000E-03 0.  1.
         22    1    1    0    0    0  0.26034360990E+02  0.47322962943E+01  0.83023233830E+01  0.27732853332E+02  0.00000000000E+00 0. -1.
</event>
<event>
 5    1  0.1047411E-009  0.9118800E+02  0.7815553E-02  0.1125453E+00
         25   -1    0    0    0    0  0.00000000000E+00  0.00000000000E+00  0.99999998245E-14  0.12509000000E+03  0.12509000000E+03 0.  0.
        -11    1    3    3    0    0 -0.30499285025E+02  0.15106737497E+02  0.91050271876E+01  0.35232391704E+02  0.51100000000E-03 0.  1.
         23    2    1    0    0    0  0.16590354746E+02 -0.13019144979E+02 -0.18858414556E+02  0.96799050809E+02  0.92572557658E+02 0.  0.
         11    1    3    3    0    0  0.47089639772E+02 -0.28125882476E+02 -0.27963441743E+02  0.61566659104E+02  0.51100000000E-03 0. -1.
         22    1    1    0    0    0 -0.16590354746E+02  0.13019144979E+02  0.18858414556E+02  0.28290949191E+02  0.00000000000E+00 0. -1.
</event>
<event>
 5    1  0.1047411E-009  0.9118800E+02  0.7815553E-02  0.1125453E+00
         25   -1    0    0    0    0  0.00000000000E+00  0.00000000000E+00  0.99999998245E-14  0.12509000000E+03  0.12509000000E+03 0.  0.
        -11    1    3    3    0    0  0.34901407181E+02  0.57639508921E+01  0.29402541227E+02  0.45998269359E+02  0.51100000000E-03 0. -1.
         23    2    1    0    0    0  0.11222144811E+02  0.25276970802E+02 -0.97714782770E+01  0.95758386086E+02  0.91155498633E+02 0.  0.
         11    1    3    3    0    0 -0.23679262370E+02  0.19513019910E+02 -0.39174019504E+02  0.49760116728E+02  0.51100000000E-03 0.  1.
         22    1    1    0    0    0 -0.11222144811E+02 -0.25276970802E+02  0.97714782770E+01  0.29331613914E+02  0.00000000000E+00 0.  1.
</event>
<event>
 5    1  0.1047411E-009  0.9118800E+02  0.7815553E-02  0.1125453E+00
         25   -1    0    0    0    0  0.00000000000E+00  0.00000000000E+00  0.99999998245E-14  0.12509000000E+03  0.12509000000E+03 0.  0.
        -11    1    3    3    0    0  0.38719827802E+02 -0.34080812235E+00 -0.30128546375E+02  0.49061904999E+02  0.51100000000E-03 0. -1.
         23    2    1    0    0    0  0.36483600106E+02 -0.18367407093E+02  0.12470786436E-02  0.84243767352E+02  0.73679017475E+02 0.  0.
         11    1    3    3    0    0 -0.22362276961E+01 -0.18026598970E+02  0.30129793454E+02  0.35181862353E+02  0.51100000000E-03 0.  1.
         22    1    1    0    0    0 -0.36483600106E+02  0.18367407093E+02 -0.12470786436E-02  0.40846232648E+02  0.00000000000E+00 0.  1.
</event>
<event>
 5    1  0.1047411E-009  0.9118800E+02  0.7815553E-02  0.1125453E+00
         25   -1    0    0    0    0  0.00000000000E+00  0.00000000000E+00  0.99999998245E-14  0.12509000000E+03  0.12509000000E+03 0.  0.
        -11    1    3    3    0    0  0.31785616032E+02 -0.31564363537E+02 -0.28743099844E+02  0.53224056788E+02  0.51100000000E-03 0. -1.
         23    2    1    0    0    0  0.92854328377E+00 -0.28710977961E+02  0.12315380515E+01  0.96337623853E+02  0.91946933802E+02 0.  0.
         11    1    3    3    0    0 -0.30857072748E+02  0.28533855762E+01  0.29974637896E+02  0.43113567065E+02  0.51100000000E-03 0.  1.
         22    1    1    0    0    0 -0.92854328377E+00  0.28710977961E+02 -0.12315380515E+01  0.28752376147E+02  0.00000000000E+00 0. -1.
</event>
<event>
 5    1  0.1047411E-009  0.9118800E+02  0.7815553E-02  0.1125453E+00
         25   -1    0    0    0    0  0.00000000000E+00  0.00000000000E+00  0.99999998245E-14  0.12509000000E+03  0.12509000000E+03 0.  0.
        -11    1    3    3    0    0  0.51484762370E+01 -0.42996115572E+02 -0.42125077477E+02  0.60412704910E+02  0.51100000000E-03 0. -1.
         23    2    1    0    0    0 -0.46477972666E+01 -0.13093368435E+02 -0.25619839789E+02  0.95945283374E+02  0.91411612470E+02 0.  0.
         11    1    3    3    0    0 -0.97962735036E+01  0.29902747137E+02  0.16505237688E+02  0.35532578464E+02  0.51100000000E-03 0.  1.
         22    1    1    0    0    0  0.46477972666E+01  0.13093368435E+02  0.25619839789E+02  0.29144716626E+02  0.00000000000E+00 0. -1.
</event>
<event>
 5    1  0.1047411E-009  0.9118800E+02  0.7815553E-02  0.1125453E+00
         25   -1    0    0    0    0  0.00000000000E+00  0.00000000000E+00  0.99999998245E-14  0.12509000000E+03  0.12509000000E+03 0.  0.
        -11    1    3    3    0    0 -0.19071159610E+02  0.49241890027E+02  0.85958000051E+01  0.53501034011E+02  0.51100000000E-03 0. -1.
         23    2    1    0    0    0  0.29550410773E+01  0.23043224940E+02 -0.17051985051E+02  0.96271730143E+02  0.91857244391E+02 0.  0.
         11    1    3    3    0    0  0.22026200687E+02 -0.26198665087E+02 -0.25647785056E+02  0.42770696131E+02  0.51100000000E-03 0.  1.
         22    1    1    0    0    0 -0.29550410773E+01 -0.23043224940E+02  0.17051985051E+02  0.28818269857E+02  0.00000000000E+00 0. -1.
</event>
<event>
 5    1  0.1047411E-009  0.9118800E+02  0.7815553E-02  0.1125453E+00
         25   -1    0    0    0    0  0.00000000000E+00  0.00000000000E+00  0.99999998245E-14  0.12509000000E+03  0.12509000000E+03 0.  0.
        -11    1    3    3    0    0  0.32258933264E+02 -0.35633695264E+02 -0.72776037165E+01  0.48614427175E+02  0.51100000000E-03 0. -1.
         23    2    1    0    0    0 -0.15542884697E+02 -0.17902923717E+02 -0.92600576619E+01  0.99637208204E+02  0.96331348213E+02 0.  0.
         11    1    3    3    0    0 -0.47801817961E+02  0.17730771547E+02 -0.19824539454E+01  0.51022781029E+02  0.51100000000E-03 0.  1.
         22    1    1    0    0    0  0.15542884697E+02  0.17902923717E+02  0.92600576619E+01  0.25452791796E+02  0.00000000000E+00 0. -1.
</event>
<event>
 5    1  0.1047411E-009  0.9118800E+02  0.7815553E-02  0.1125453E+00
         25   -1    0    0    0    0  0.00000000000E+00  0.00000000000E+00  0.99999998245E-14  0.12509000000E+03  0.12509000000E+03 0.  0.
        -11    1    3    3    0    0  0.79951511933E+00  0.37992162462E+02 -0.43258609233E+02  0.57579083928E+02  0.51100000000E-03 0. -1.
         23    2    1    0    0    0 -0.16314540814E+02  0.12885310007E+02 -0.22938232725E+02  0.94132642611E+02  0.88896549025E+02 0.  0.
         11    1    3    3    0    0 -0.17114055933E+02 -0.25106852455E+02  0.20320376508E+02  0.36553558683E+02  0.51100000000E-03 0.  1.
         22    1    1    0    0    0  0.16314540814E+02 -0.12885310007E+02  0.22938232725E+02  0.30957357389E+02  0.00000000000E+00 0. -1.
</event>
<event>
 5    1  0.1047411E-009  0.9118800E+02  0.7815553E-02  0.1125453E+00
         25   -1    0    0    0    0  0.00000000000E+00  0.00000000000E+00  0.99999998245E-14  0.12509000000E+03  0.12509000000E+03 0.  0.
        -11    1    3    3    0    0  0.34562146572E+01  0.33912724704E+02 -0.32218666118E+02  0.46904805333E+02  0.51100000000E-03 0. -1.
         23    2    1    0    0    0  0.22652848830E+02  0.16601168748E+02  0.90346912897E+01  0.95587864304E+02  0.90921195503E+02 0.  0.
         11    1    3    3    0    0  0.19196634173E+02 -0.17311555956E+02  0.41253357408E+02  0.48683058972E+02  0.51100000000E-03 0.  1.
         22    1    1    0    0    0 -0.22652848830E+02 -0.16601168748E+02 -0.90346912897E+01  0.29502135696E+02  0.00000000000E+00 0.  1.
</event>
<event>
 5    1  0.1047411E-009  0.9118800E+02  0.7815553E-02  0.1125453E+00
         25   -1    0    0    0    0  0.00000000000E+00  0.00000000000E+00  0.99999998245E-14  0.12509000000E+03  0.12509000000E+03 0.  0.
        -11    1    3    3    0    0  0.51280250905E+01 -0.32753112828E+02  0.15889450060E+02  0.36763265153E+02  0.51100000000E-03 0.  1.
         23    2    1    0    0    0 -0.50449264216E+01  0.20816155340E+02 -0.14536342542E+02  0.99204311671E+02  0.95767565459E+02 0.  0.
         11    1    3    3    0    0 -0.10172951512E+02  0.53569268168E+02 -0.30425792602E+02  0.62441046518E+02  0.51100000000E-03 0. -1.
         22    1    1    0    0    0  0.50449264216E+01 -0.20816155340E+02  0.14536342542E+02  0.25885688329E+02  0.00000000000E+00 0. -1.
</event>
<event>
 5    1  0.1047411E-009  0.9118800E+02  0.7815553E-02  0.1125453E+00
         25   -1    0    0    0    0  0.00000000000E+00  0.00000000000E+00  0.99999998245E-14  0.12509000000E+03  0.12509000000E+03 0.  0.
        -11    1    3    3    0    0  0.45530917709E+01 -0.14910646800E+02 -0.30819374360E+02  0.34538266732E+02  0.51100000000E-03 0. -1.
         23    2    1    0    0    0 -0.71650317415E+01 -0.29567800627E+01  0.28178474687E+02  0.95864896683E+02  0.91301542989E+02 0.  0.
         11    1    3    3    0    0 -0.11718123512E+02  0.11953866737E+02  0.58997849047E+02  0.61326629951E+02  0.51100000000E-03 0.  1.
         22    1    1    0    0    0  0.71650317415E+01  0.29567800627E+01 -0.28178474687E+02  0.29225103317E+02  0.00000000000E+00 0.  1.
</event>
<event>
 5    1  0.1047411E-009  0.9118800E+02  0.7815553E-02  0.1125453E+00
         25   -1    0    0    0    0  0.00000000000E+00  0.00000000000E+00  0.99999998245E-14  0.12509000000E+03  0.12509000000E+03 0.  0.
        -11    1    3    3    0    0 -0.19690761424E+02  0.29066870704E+02 -0.64456102418E+01  0.35695307110E+02  0.51100000000E-03 0.  1.
         23    2    1    0    0    0  0.14304444717E+02 -0.19933177768E+02 -0.15576876842E+02  0.96028207097E+02  0.91525017080E+02 0.  0.
         11    1    3    3    0    0  0.33995206141E+02 -0.49000048473E+02 -0.91312666002E+01  0.60332899987E+02  0.51100000000E-03 0. -1.
         22    1    1    0    0    0 -0.14304444717E+02  0.19933177768E+02  0.15576876842E+02  0.29061792903E+02  0.00000000000E+00 0. -1.
</event>
<event>
 5    1  0.1047411E-009  0.9118800E+02  0.7815553E-02  0.1125453E+00
         25   -1    0    0    0    0  0.00000000000E+00  0.00000000000E+00  0.99999998245E-14  0.12509000000E+03  0.12509000000E+03 0.  0.
        -11    1    3    3    0    0  0.25773411189E+02 -0.30525266470E+02 -0.16267219347E+02  0.43135635419E+02  0.51100000000E-03 0.  1.
         23    2    1    0    0    0  0.29407726939E+02  0.13172879293E+02  0.59973901092E+01  0.92313364408E+02  0.86298606058E+02 0.  0.
         11    1    3    3    0    0  0.36343157498E+01  0.43698145763E+02  0.22264609456E+02  0.49177728990E+02  0.51100000000E-03 0. -1.
         22    1    1    0    0    0 -0.29407726939E+02 -0.13172879293E+02 -0.59973901092E+01  0.32776635592E+02  0.00000000000E+00 0. -1.
</event>
<event>
 5    1  0.1047411E-009  0.9118800E+02  0.7815553E-02  0.1125453E+00
         25   -1    0    0    0    0  0.00000000000E+00  0.00000000000E+00  0.99999998245E-14  0.12509000000E+03  0.12509000000E+03 0.  0.
        -11    1    3    3    0    0 -0.30904890414E+02 -0.10055400854E+02 -0.15304771433E+02  0.35922964336E+02  0.51100000000E-03 0. -1.
         23    2    1    0    0    0  0.16744646981E+02 -0.14703881077E+02  0.19792240095E+02  0.95285300887E+02  0.90503969393E+02 0.  0.
         11    1    3    3    0    0  0.47649537395E+02 -0.46484802232E+01  0.35097011528E+02  0.59362336551E+02  0.51100000000E-03 0.  1.
         22    1    1    0    0    0 -0.16744646981E+02  0.14703881077E+02 -0.19792240095E+02  0.29804699113E+02  0.00000000000E+00 0.  1.
</event>
<event>
 5    1  0.1047411E-009  0.9118800E+02  0.7815553E-02  0.1125453E+00
         25   -1    0    0    0    0  0.00000000000E+00  0.00000000000E+00  0.99999998245E-14  0.12509000000E+03  0.12509000000E+03 0.  0.
        -11    1    3    3    0    0 -0.18500949957E+01  0.55556810106E+02 -0.26019607030E+02  0.61375906925E+02  0.51100000000E-03 0.  1.
         23    2    1    0    0    0 -0.49812760895E+01  0.26740155432E+02 -0.44012852905E+01  0.97536046814E+02  0.93563134256E+02 0.  0.
         11    1    3    3    0    0 -0.31311810937E+01 -0.28816654674E+02  0.21618321740E+02  0.36160139888E+02  0.51100000000E-03 0. -1.
         22    1    1    0    0    0  0.49812760895E+01 -0.26740155432E+02  0.44012852905E+01  0.27553953186E+02  0.00000000000E+00 0.  1.
</event>
<event>
 5    1  0.1047411E-009  0.9118800E+02  0.7815553E-02  0.1125453E+00
         25   -1    0    0    0    0  0.00000000000E+00  0.00000000000E+00  0.99999998245E-14  0.12509000000E+03  0.12509000000E+03 0.  0.
        -11    1    3    3    0    0 -0.17595862926E+02  0.34022719617E+02  0.42586279207E+01  0.38539534951E+02  0.51100000000E-03 0. -1.
         23    2    1    0    0    0 -0.21993762299E+02 -0.15557658257E+02 -0.17608105542E+02  0.92905971487E+02  0.87153358207E+02 0.  0.
         11    1    3    3    0    0 -0.43978993734E+01 -0.49580377874E+02 -0.21866733463E+02  0.54366436536E+02  0.51100000000E-03 0.  1.
         22    1    1    0    0    0  0.21993762299E+02  0.15557658257E+02  0.17608105542E+02  0.32184028513E+02  0.00000000000E+00 0.  1.
</event>
<event>
 5    1  0.1047411E-009  0.9118800E+02  0.7815553E-02  0.1125453E+00
         25   -1    0    0    0    0  0.00000000000E+00  0.00000000000E+00  0.99999998245E-14  0.12509000000E+03  0.12509000000E+03 0.  0.
        -11    1    3    3    0    0  0.95257334608E+01 -0.55589866637E+01 -0.59823809636E+02  0.60831982791E+02  0.51100000000E-03 0.  1.
         23    2    1    0    0    0 -0.60998683294E+01 -0.48533185514E+01 -0.21159648501E+02  0.10254019248E+03  0.10002998178E+03 0.  0.
         11    1    3    3    0    0 -0.15625601790E+02  0.70566811236E+00  0.38664161135E+02  0.41708209687E+02  0.51100000000E-03 0. -1.
         22    1    1    0    0    0  0.60998683294E+01  0.48533185514E+01  0.21159648501E+02  0.22549807522E+02  0.00000000000E+00 0.  1.
</event>
<event>
 5    1  0.1047411E-009  0.9118800E+02  0.7815553E-02  0.1125453E+00
         25   -1    0    0    0    0  0.00000000000E+00  0.00000000000E+00  0.99999998245E-14  0.12509000000E+03  0.12509000000E+03 0.  0.
        -11    1    3    3    0    0 -0.11372912479E+01  0.27254171378E+02 -0.25332357958E+02  0.37226491224E+02  0.51100000000E-03 0. -1.
         23    2    1    0    0    0 -0.16013420660E+02 -0.24967654679E+02 -0.62841593405E+01  0.94769972296E+02  0.89788883326E+02 0.  0.
         11    1    3    3    0    0 -0.14876129412E+02 -0.52221826057E+02  0.19048198618E+02  0.57543481071E+02  0.51100000000E-03 0.  1.
         22    1    1    0    0    0  0.16013420660E+02  0.24967654679E+02  0.62841593405E+01  0.30320027704E+02  0.00000000000E+00 0. -1.
</event>
<event>
 5    1  0.1047411E-009  0.9118800E+02  0.7815553E-02  0.1125453E+00
         25   -1    0    0    0    0  0.00000000000E+00  0.00000000000E+00  0.99999998245E-14  0.12509000000E+03  0.12509000000E+03 0.  0.
        -11    1    3    3    0    0 -0.34991919009E+02 -0.30769449260E+02  0.97544461804E+01  0.47606119609E+02  0.51100000000E-03 0.  1.
         23    2    1    0    0    0 -0.10396521718E+02 -0.87404671632E+01 -0.25679737579E+02  0.96039486197E+02  0.91540431269E+02 0.  0.
         11    1    3    3    0    0  0.24595397291E+02  0.22028982097E+02 -0.35434183759E+02  0.48433366588E+02  0.51100000000E-03 0. -1.
         22    1    1    0    0    0  0.10396521718E+02  0.87404671632E+01  0.25679737579E+02  0.29050513803E+02  0.00000000000E+00 0.  1.
</event>
<event>
 5    1  0.1047411E-009  0.9118800E+02  0.7815553E-02  0.1125453E+00
         25   -1    0    0    0    0  0.00000000000E+00  0.00000000000E+00  0.99999998245E-14  0.12509000000E+03  0.12509000000E+03 0.  0.
        -11    1    3    3    0    0  0.50140359018E+02  0.25044366978E+02  0.16330683613E+02  0.58377796698E+02  0.51100000000E-03 0. -1.
         23    2    1    0    0    0  0.29194302219E+02 -0.20501437393E+00 -0.17605734941E+01  0.95841941398E+02  0.91270087098E+02 0.  0.
         11    1    3    3    0    0 -0.20946056799E+02 -0.25249381352E+02 -0.18091257108E+02  0.37464144699E+02  0.51100000000E-03 0.  1.
         22    1    1    0    0    0 -0.29194302219E+02  0.20501437393E+00  0.17605734941E+01  0.29248058602E+02  0.00000000000E+00 0. -1.
</event>
<event>
 5    1  0.1047411E-009  0.9118800E+02  0.7815553E-02  0.1125453E+00
         25   -1    0    0    0    0  0.00000000000E+00  0.00000000000E+00  0.99999998245E-14  0.12509000000E+03  0.12509000000E+03 0.  0.
        -11    1    3    3    0    0  0.15353587413E+01 -0.41044755977E+02  0.39599476417E+02  0.57053903043E+02  0.51100000000E-03 0. -1.
         23    2    1    0    0    0  0.90602575276E+01 -0.50773659860E+01  0.27424943008E+02  0.95764321647E+02  0.91163643465E+02 0.  0.
         11    1    3    3    0    0  0.75248987862E+01  0.35967389991E+02 -0.12174533409E+02  0.38710418604E+02  0.51100000000E-03 0.  1.
         22    1    1    0    0    0 -0.90602575276E+01  0.50773659860E+01 -0.27424943008E+02  0.29325678353E+02  0.00000000000E+00 0. -1.
</event>
<event>
 5    1  0.1047411E-009  0.9118800E+02  0.7815553E-02  0.1125453E+00
         25   -1    0    0    0    0  0.00000000000E+00  0.00000000000E+00  0.99999998245E-14  0.12509000000E+03  0.12509000000E+03 0.  0.
        -11    1    3    3    0    0  0.99064036380E+01  0.36854108306E+02  0.23537186171E+01  0.38234828673E+02  0.51100000000E-03 0.  1.
         23    2    1    0    0    0 -0.14144004198E+02 -0.84242472121E+01 -0.24082220217E+02  0.95918539179E+02  0.91375007699E+02 0.  0.
         11    1    3    3    0    0 -0.24050407836E+02 -0.45278355518E+02 -0.26435938834E+02  0.57683710506E+02  0.51100000000E-03 0. -1.
         22    1    1    0    0    0  0.14144004198E+02  0.84242472121E+01  0.24082220217E+02  0.29171460821E+02  0.00000000000E+00 0. -1.
</event>
<event>
 5    1  0.1047411E-009  0.9118800E+02  0.7815553E-02  0.1125453E+00
         25   -1    0    0    0    0  0.00000000000E+00  0.00000000000E+00  0.99999998245E-14  0.12509000000E+03  0.12509000000E+03 0.  0.
        -11    1    3    3    0    0 -0.24202240492E+02  0.43162772287E+02 -0.27234255618E+02  0.56484316723E+02  0.51100000000E-03 0.  1.
         23    2    1    0    0    0 -0.15481595000E+02  0.58152682148E+01 -0.25273551334E+02  0.94886531239E+02  0.89951121646E+02 0.  0.
         11    1    3    3    0    0  0.87206454922E+01 -0.37347504072E+02  0.19607042836E+01  0.38402214516E+02  0.51100000000E-03 0. -1.
         22    1    1    0    0    0  0.15481595000E+02 -0.58152682148E+01  0.25273551334E+02  0.30203468761E+02  0.00000000000E+00 0.  1.
</event>
<event>
 5    1  0.1047411E-009  0.9118800E+02  0.7815553E-02  0.1125453E+00
         25   -1    0    0    0    0  0.00000000000E+00  0.00000000000E+00  0.99999998245E-14  0.12509000000E+03  0.12509000000E+03 0.  0.
        -11    1    3    3    0    0 -0.26829702138E+02  0.34873865412E+02  0.61616594563E+00  0.44004534611E+02  0.51100000000E-03 0.  1.
         23    2    1    0    0    0  0.18961953001E+00 -0.21136221509E+01  0.27760423842E+02  0.97248583261E+02  0.93178014897E+02 0.  0.
         11    1    3    3    0    0  0.27019321668E+02 -0.36987487563E+02  0.27144257896E+02  0.53244048650E+02  0.51100000000E-03 0. -1.
         22    1    1    0    0    0 -0.18961953001E+00  0.21136221509E+01 -0.27760423842E+02  0.27841416739E+02  0.00000000000E+00 0. -1.
</event>
<event>
 5    1  0.1047411E-009  0.9118800E+02  0.7815553E-02  0.1125453E+00
         25   -1    0    0    0    0  0.00000000000E+00  0.00000000000E+00  0.99999998245E-14  0.12509000000E+03  0.12509000000E+03 0.  0.
        -11    1    3    3    0    0 -0.15522641268E+02  0.33936190739E+02 -0.31456687832E-01  0.37317803038E+02  0.51100000000E-03 0. -1.
         23    2    1    0    0    0 -0.13878158483E+02 -0.21869405033E+02  0.15030332147E+02  0.95143630540E+02  0.90307947537E+02 0.  0.
         11    1    3    3    0    0  0.16444827851E+01 -0.55805595772E+02  0.15061788835E+02  0.57825827502E+02  0.51100000000E-03 0.  1.
         22    1    1    0    0    0  0.13878158483E+02  0.21869405033E+02 -0.15030332147E+02  0.29946369460E+02  0.00000000000E+00 0.  1.
</event>
<event>
 5    1  0.1047411E-009  0.9118800E+02  0.7815553E-02  0.1125453E+00
         25   -1    0    0    0    0  0.00000000000E+00  0.00000000000E+00  0.99999998245E-14  0.12509000000E+03  0.12509000000E+03 0.  0.
        -11    1    3    3    0    0  0.44118168439E+02 -0.15932045890E+02  0.26837862111E+02  0.54041777502E+02  0.51100000000E-03 0. -1.
         23    2    1    0    0    0  0.10669935591E+02 -0.27557725533E+02  0.66623303220E+01  0.94797056805E+02  0.89826608372E+02 0.  0.
         11    1    3    3    0    0 -0.33448232848E+02 -0.11625679643E+02 -0.20175531789E+02  0.40755279303E+02  0.51100000000E-03 0.  1.
         22    1    1    0    0    0 -0.10669935591E+02  0.27557725533E+02 -0.66623303220E+01  0.30292943195E+02  0.00000000000E+00 0. -1.
</event>
<event>
 5    1  0.1047411E-009  0.9118800E+02  0.7815553E-02  0.1125453E+00
         25   -1    0    0    0    0  0.00000000000E+00  0.00000000000E+00  0.99999998245E-14  0.12509000000E+03  0.12509000000E+03 0.  0.
        -11    1    3    3    0    0 -0.84632407303E+01 -0.33938972138E+02 -0.14356878993E+02  0.37810054855E+02  0.51100000000E-03 0. -1.
         23    2    1    0    0    0  0.20374579137E+02  0.17568783335E+02 -0.69461539346E+01  0.97304487996E+02  0.93253035912E+02 0.  0.
         11    1    3    3    0    0  0.28837819867E+02  0.51507755473E+02  0.74107250585E+01  0.59494433140E+02  0.51100000000E-03 0.  1.
         22    1    1    0    0    0 -0.20374579137E+02 -0.17568783335E+02  0.69461539346E+01  0.27785512004E+02  0.00000000000E+00 0.  1.
</event>
<event>
 5    1  0.1047411E-009  0.9118800E+02  0.7815553E-02  0.1125453E+00
         25   -1    0    0    0    0  0.00000000000E+00  0.00000000000E+00  0.99999998245E-14  0.12509000000E+03  0.12509000000E+03 0.  0.
        -11    1    3    3    0    0 -0.21364594313E+02 -0.40001064730E+02  0.27804115552E+02  0.53193983792E+02  0.51100000000E-03 0.  1.
         23    2    1    0    0    0 -0.32178440810E+02 -0.12100069200E+02  0.60638524515E+01  0.90181060827E+02  0.83150404074E+02 0.  0.
         11    1    3    3    0    0 -0.10813846497E+02  0.27900995530E+02 -0.21740263101E+02  0.36987077035E+02  0.51100000000E-03 0. -1.
         22    1    1    0    0    0  0.32178440810E+02  0.12100069200E+02 -0.60638524515E+01  0.34908939173E+02  0.00000000000E+00 0.  1.
</event>
<event>
 5    1  0.1047411E-009  0.9118800E+02  0.7815553E-02  0.1125453E+00
         25   -1    0    0    0    0  0.00000000000E+00  0.00000000000E+00  0.99999998245E-14  0.12509000000E+03  0.12509000000E+03 0.  0.
        -11    1    3    3    0    0  0.10701698587E+02 -0.93237359521E+01 -0.49438290799E+02  0.51435425556E+02  0.51100000000E-03 0. -1.
         23    2    1    0    0    0  0.23569919424E+01  0.22027515665E+02 -0.19828818109E+02  0.95358722110E+02  0.90605391658E+02 0.  0.
         11    1    3    3    0    0 -0.83447066449E+01  0.31351251617E+02  0.29609472690E+02  0.43923296554E+02  0.51100000000E-03 0.  1.
         22    1    1    0    0    0 -0.23569919424E+01 -0.22027515665E+02  0.19828818109E+02  0.29731277890E+02  0.00000000000E+00 0. -1.
</event>
<event>
 5    1  0.1047411E-009  0.9118800E+02  0.7815553E-02  0.1125453E+00
         25   -1    0    0    0    0  0.00000000000E+00  0.00000000000E+00  0.99999998245E-14  0.12509000000E+03  0.12509000000E+03 0.  0.
        -11    1    3    3    0    0  0.31252470237E+02 -0.22312155206E+02 -0.27414162803E+01  0.38497591215E+02  0.51100000000E-03 0. -1.
         23    2    1    0    0    0  0.10067940491E+02  0.29104717142E+02  0.13971661061E+01  0.94261440858E+02  0.89077601976E+02 0.  0.
         11    1    3    3    0    0 -0.21184529746E+02  0.51416872348E+02  0.41385823864E+01  0.55763849643E+02  0.51100000000E-03 0.  1.
         22    1    1    0    0    0 -0.10067940491E+02 -0.29104717142E+02 -0.13971661061E+01  0.30828559142E+02  0.00000000000E+00 0.  1.
</event>
<event>
 5    1  0.1047411E-009  0.9118800E+02  0.7815553E-02  0.1125453E+00
         25   -1    0    0    0    0  0.00000000000E+00  0.00000000000E+00  0.99999998245E-14  0.12509000000E+03  0.12509000000E+03 0.  0.
        -11    1    3    3    0    0 -0.25471957364E+02 -0.27997120278E+02  0.17806497956E+02  0.41829782757E+02  0.51100000000E-03 0.  1.
         23    2    1    0    0    0 -0.19195293171E+02  0.14260773392E+02 -0.16007475807E+02  0.96313825491E+02  0.91914551413E+02 0.  0.
         11    1    3    3    0    0  0.62766641932E+01  0.42257893669E+02 -0.33813973763E+02  0.54484042734E+02  0.51100000000E-03 0. -1.
         22    1    1    0    0    0  0.19195293171E+02 -0.14260773392E+02  0.16007475807E+02  0.28776174509E+02  0.00000000000E+00 0. -1.
</event>
<event>
 5    1  0.1047411E-009  0.9118800E+02  0.7815553E-02  0.1125453E+00
         25   -1    0    0    0    0  0.00000000000E+00  0.00000000000E+00  0.99999998245E-14  0.12509000000E+03  0.12509000000E+03 0.  0.
        -11    1    3    3    0    0  0.21813935556E+02 -0.83911560245E+01  0.28842305599E+02  0.37123279440E+02  0.51100000000E-03 0.  1.
         23    2    1    0    0    0 -0.17343151144E+02 -0.13587558806E+02 -0.16725716852E+02  0.97428542155E+02  0.93419294454E+02 0.  0.
         11    1    3    3    0    0 -0.39157086700E+02 -0.51964027818E+01 -0.45568022451E+02  0.60305262714E+02  0.51100000000E-03 0. -1.
         22    1    1    0    0    0  0.17343151144E+02  0.13587558806E+02  0.16725716852E+02  0.27661457845E+02  0.00000000000E+00 0. -1.
</event>
<event>
 5    1  0.1047411E-009  0.9118800E+02  0.7815553E-02  0.1125453E+00
         25   -1    0    0    0    0  0.00000000000E+00  0.00000000000E+00  0.99999998245E-14  0.12509000000E+03  0.12509000000E+03 0.  0.
        -11    1    3    3    0    0  0.92256800482E+01 -0.32766308476E+02  0.47189519502E+01  0.34365864623E+02  0.51100000000E-03 0.  1.
         23    2    1    0    0    0 -0.21709761339E+02  0.19350717411E+02  0.75673040398E+01  0.95039574177E+02  0.90163698724E+02 0.  0.
         11    1    3    3    0    0 -0.30935441387E+02  0.52117025887E+02  0.28483520896E+01  0.60673709554E+02  0.51100000000E-03 0. -1.
         22    1    1    0    0    0  0.21709761339E+02 -0.19350717411E+02 -0.75673040398E+01  0.30050425823E+02  0.00000000000E+00 0. -1.
</event>
<event>
 5    1  0.1047411E-009  0.9118800E+02  0.7815553E-02  0.1125453E+00
         25   -1    0    0    0    0  0.00000000000E+00  0.00000000000E+00  0.99999998245E-14  0.12509000000E+03  0.12509000000E+03 0.  0.
        -11    1    3    3    0    0 -0.29813869180E+02 -0.19722972725E+02  0.30628434846E+02  0.47074021179E+02  0.51100000000E-03 0.  1.
         23    2    1    0    0    0  0.15790396449E+02 -0.67988059360E+01  0.24917702179E+02  0.94817037408E+02  0.89854428487E+02 0.  0.
         11    1    3    3    0    0  0.45604265629E+02  0.12924166789E+02 -0.57107326668E+01  0.47743016229E+02  0.51100000000E-03 0. -1.
         22    1    1    0    0    0 -0.15790396449E+02  0.67988059360E+01 -0.24917702179E+02  0.30272962592E+02  0.00000000000E+00 0. -1.
</event>
<event>
 5    1  0.1047411E-009  0.9118800E+02  0.7815553E-02  0.1125453E+00
         25   -1    0    0    0    0  0.00000000000E+00  0.00000000000E+00  0.99999998245E-14  0.12509000000E+03  0.12509000000E+03 0.  0.
        -11    1    3    3    0    0 -0.18943221787E+02  0.50958609258E+02  0.13988555322E+02  0.56136487149E+02  0.51100000000E-03 0. -1.
         23    2    1    0    0    0 -0.15223391842E+02  0.21257781480E+02  0.25839171507E+02  0.88329862395E+02  0.80317226508E+02 0.  0.
         11    1    3    3    0    0  0.37198299453E+01 -0.29700827778E+02  0.11850616184E+02  0.32193375246E+02  0.51100000000E-03 0.  1.
         22    1    1    0    0    0  0.15223391842E+02 -0.21257781480E+02 -0.25839171507E+02  0.36760137605E+02  0.00000000000E+00 0. -1.
</event>
<event>
 5    1  0.1047411E-009  0.9118800E+02  0.7815553E-02  0.1125453E+00
         25   -1    0    0    0    0  0.00000000000E+00  0.00000000000E+00  0.99999998245E-14  0.12509000000E+03  0.12509000000E+03 0.  0.
        -11    1    3    3    0    0  0.19627835235E+02  0.33742585813E+02 -0.38855205401E+00  0.39037994138E+02  0.51100000000E-03 0.  1.
         23    2    1    0    0    0  0.10781401991E+02 -0.24105142088E+02  0.63094643694E+01  0.97940306731E+02  0.94102060753E+02 0.  0.
         11    1    3    3    0    0 -0.88464332436E+01 -0.57847727901E+02  0.66980164234E+01  0.58902312592E+02  0.51100000000E-03 0. -1.
         22    1    1    0    0    0 -0.10781401991E+02  0.24105142088E+02 -0.63094643694E+01  0.27149693269E+02  0.00000000000E+00 0. -1.
</event>
<event>
 5    1  0.1047411E-009  0.9118800E+02  0.7815553E-02  0.1125453E+00
         25   -1    0    0    0    0  0.00000000000E+00  0.00000000000E+00  0.99999998245E-14  0.12509000000E+03  0.12509000000E+03 0.  0.
        -11    1    3    3    0    0 -0.20551977656E+02 -0.22936464305E+02 -0.11387810981E+02  0.32835155239E+02  0.51100000000E-03 0. -1.
         23    2    1    0    0    0 -0.69950466975E+01 -0.14674689858E+02  0.37490225976E+02  0.84226884058E+02  0.73650347954E+02 0.  0.
         11    1    3    3    0    0  0.13556930959E+02  0.82617744472E+01  0.48878036956E+02  0.51391728819E+02  0.51100000000E-03 0.  1.
         22    1    1    0    0    0  0.69950466975E+01  0.14674689858E+02 -0.37490225976E+02  0.40863115942E+02  0.00000000000E+00 0.  1.
</event>
<event>
 5    1  0.1047411E-009  0.9118800E+02  0.7815553E-02  0.1125453E+00
         25   -1    0    0    0    0  0.00000000000E+00  0.00000000000E+00  0.99999998245E-14  0.12509000000E+03  0.12509000000E+03 0.  0.
        -11    1    3    3    0    0  0.26003077782E+02  0.22358160981E+02 -0.17933829939E+02  0.38699737378E+02  0.51100000000E-03 0.  1.
         23    2    1    0    0    0 -0.56168914993E+01 -0.26038758069E+02 -0.41506356532E+01  0.98130879684E+02  0.94355049570E+02 0.  0.
         11    1    3    3    0    0 -0.31619969281E+02 -0.48396919049E+02  0.13783194286E+02  0.59431142306E+02  0.51100000000E-03 0. -1.
         22    1    1    0    0    0  0.56168914993E+01  0.26038758069E+02  0.41506356532E+01  0.26959120316E+02  0.00000000000E+00 0. -1.
</event>
<event>
 5    1  0.1047411E-009  0.9118800E+02  0.7815553E-02  0.1125453E+00
         25   -1    0    0    0    0  0.00000000000E+00  0.00000000000E+00  0.99999998245E-14  0.12509000000E+03  0.12509000000E+03 0.  0.
        -11    1    3    3    0    0  0.30770376528E+02  0.13555285261E+02 -0.64172272776E+01  0.34230726495E+02  0.51100000000E-03 0.  1.
         23    2    1    0    0    0 -0.26671102958E+02  0.35440386047E+01  0.12352047568E+02  0.95484577832E+02  0.90778982050E+02 0.  0.
         11    1    3    3    0    0 -0.57441479486E+02 -0.10011246656E+02  0.18769274845E+02  0.61253851337E+02  0.51100000000E-03 0. -1.
         22    1    1    0    0    0  0.26671102958E+02 -0.35440386047E+01 -0.12352047568E+02  0.29605422168E+02  0.00000000000E+00 0. -1.
</event>
<event>
 5    1  0.1047411E-009  0.9118800E+02  0.7815553E-02  0.1125453E+00
         25   -1    0    0    0    0  0.00000000000E+00  0.00000000000E+00  0.99999998245E-14  0.12509000000E+03  0.12509000000E+03 0.  0.
        -11    1    3    3    0    0 -0.19637335200E+02 -0.58903028613E+02  0.41512926859E+01  0.62228811211E+02  0.51100000000E-03 0.  1.
         23    2    1    0    0    0 -0.12214291175E+02 -0.25415298961E+02  0.45239949151E+01  0.96531413547E+02  0.92210199768E+02 0.  0.
         11    1    3    3    0    0  0.74230440250E+01  0.33487729652E+02  0.37270222915E+00  0.34302602336E+02  0.51100000000E-03 0. -1.
         22    1    1    0    0    0  0.12214291175E+02  0.25415298961E+02 -0.45239949151E+01  0.28558586453E+02  0.00000000000E+00 0.  1.
</event>
<event>
 5    1  0.1047411E-009  0.9118800E+02  0.7815553E-02  0.1125453E+00
         25   -1    0    0    0    0  0.00000000000E+00  0.00000000000E+00  0.99999998245E-14  0.12509000000E+03  0.12509000000E+03 0.  0.
        -11    1    3    3    0    0 -0.91474023315E+01 -0.34800249530E+02 -0.30406539491E+02  0.47109340696E+02  0.51100000000E-03 0. -1.
         23    2    1    0    0    0  0.13608169667E+02 -0.24708718795E+02  0.10496945486E+02  0.94992011184E+02  0.90097687307E+02 0.  0.
         11    1    3    3    0    0  0.22755571999E+02  0.10091530734E+02  0.40903484977E+02  0.47882670489E+02  0.51100000000E-03 0.  1.
         22    1    1    0    0    0 -0.13608169667E+02  0.24708718795E+02 -0.10496945486E+02  0.30097988816E+02  0.00000000000E+00 0. -1.
</event>
<event>
 5    1  0.1047411E-009  0.9118800E+02  0.7815553E-02  0.1125453E+00
         25   -1    0    0    0    0  0.00000000000E+00  0.00000000000E+00  0.99999998245E-14  0.12509000000E+03  0.12509000000E+03 0.  0.
        -11    1    3    3    0    0 -0.52145693257E+02 -0.20360836374E+02  0.16924601294E+01  0.56005369427E+02  0.51100000000E-03 0. -1.
         23    2    1    0    0    0 -0.20432384126E+02 -0.10182078329E+02 -0.19147228338E+02  0.95294473604E+02  0.90516646570E+02 0.  0.
         11    1    3    3    0    0  0.31713309130E+02  0.10178758046E+02 -0.20839688467E+02  0.39289104177E+02  0.51100000000E-03 0.  1.
         22    1    1    0    0    0  0.20432384126E+02  0.10182078329E+02  0.19147228338E+02  0.29795526396E+02  0.00000000000E+00 0.  1.
</event>
<event>
 5    1  0.1047411E-009  0.9118800E+02  0.7815553E-02  0.1125453E+00
         25   -1    0    0    0    0  0.00000000000E+00  0.00000000000E+00  0.99999998245E-14  0.12509000000E+03  0.12509000000E+03 0.  0.
        -11    1    3    3    0    0  0.25417816946E+02  0.48305714689E+02  0.24477071000E+02  0.59821689169E+02  0.51100000000E-03 0. -1.
         23    2    1    0    0    0  0.16082729419E+02  0.13572261108E+02  0.19986940114E+02  0.96066936202E+02  0.91577934017E+02 0.  0.
         11    1    3    3    0    0 -0.93350875274E+01 -0.34733453581E+02 -0.44901308866E+01  0.36245247033E+02  0.51100000000E-03 0.  1.
         22    1    1    0    0    0 -0.16082729419E+02 -0.13572261108E+02 -0.19986940114E+02  0.29023063798E+02  0.00000000000E+00 0. -1.
</event>
<event>
 5    1  0.1047411E-009  0.9118800E+02  0.7815553E-02  0.1125453E+00
         25   -1    0    0    0    0  0.00000000000E+00  0.00000000000E+00  0.99999998245E-14  0.12509000000E+03  0.12509000000E+03 0.  0.
        -11    1    3    3    0    0 -0.16950679861E+02  0.31766717060E+02 -0.50160311462E+01  0.36353960296E+02  0.51100000000E-03 0.  1.
         23    2    1    0    0    0 -0.53085417820E+01 -0.27399399557E+02  0.22486492305E+01  0.97090640448E+02  0.92965737384E+02 0.  0.
         11    1    3    3    0    0  0.11642138079E+02 -0.59166116617E+02  0.72646803768E+01  0.60736680152E+02  0.51100000000E-03 0. -1.
         22    1    1    0    0    0  0.53085417820E+01  0.27399399557E+02 -0.22486492305E+01  0.27999359552E+02  0.00000000000E+00 0. -1.
</event>
<event>
 5    1  0.1047411E-009  0.9118800E+02  0.7815553E-02  0.1125453E+00
         25   -1    0    0    0    0  0.00000000000E+00  0.00000000000E+00  0.99999998245E-14  0.12509000000E+03  0.12509000000E+03 0.  0.
        -11    1    3    3    0    0 -0.40563910155E+02  0.24715765660E+02  0.12450106157E+02  0.49105040707E+02  0.51100000000E-03 0.  1.
         23    2    1    0    0    0 -0.14190363617E+02 -0.12384383732E+02  0.22527518594E+02  0.95726272819E+02  0.91111419887E+02 0.  0.
         11    1    3    3    0    0  0.26373546539E+02 -0.37100149392E+02  0.10077412437E+02  0.46621232112E+02  0.51100000000E-03 0. -1.
         22    1    1    0    0    0  0.14190363617E+02  0.12384383732E+02 -0.22527518594E+02  0.29363727181E+02  0.00000000000E+00 0. -1.
</event>
<event>
 5    1  0.1047411E-009  0.9118800E+02  0.7815553E-02  0.1125453E+00
         25   -1    0    0    0    0  0.00000000000E+00  0.00000000000E+00  0.99999998245E-14  0.12509000000E+03  0.12509000000E+03 0.  0.
        -11    1    3    3    0    0  0.49961037404E+01  0.16062249782E+02  0.34580417826E+02  0.38454677452E+02  0.51100000000E-03 0.  1.
         23    2    1    0    0    0  0.20302535495E+02 -0.23554569335E+02 -0.11728133259E+01  0.93971096176E+02  0.88668938989E+02 0.  0.
         11    1    3    3    0    0  0.15306431754E+02 -0.39616819117E+02 -0.35753231152E+02  0.55516418725E+02  0.51100000000E-03 0. -1.
         22    1    1    0    0    0 -0.20302535495E+02  0.23554569335E+02  0.11728133259E+01  0.31118903824E+02  0.00000000000E+00 0. -1.
</event>
<event>
 5    1  0.1047411E-009  0.9118800E+02  0.7815553E-02  0.1125453E+00
         25   -1    0    0    0    0  0.00000000000E+00  0.00000000000E+00  0.99999998245E-14  0.12509000000E+03  0.12509000000E+03 0.  0.
        -11    1    3    3    0    0  0.27400055283E+02 -0.89234854506E+01 -0.30755245598E+02  0.42145898426E+02  0.51100000000E-03 0. -1.
         23    2    1    0    0    0 -0.23454174750E+02 -0.74979126445E+00 -0.18799154498E+02  0.95022264635E+02  0.90139680865E+02 0.  0.
         11    1    3    3    0    0 -0.50854230032E+02  0.81736941861E+01  0.11956091100E+02  0.52876366209E+02  0.51100000000E-03 0.  1.
         22    1    1    0    0    0  0.23454174750E+02  0.74979126445E+00  0.18799154498E+02  0.30067735365E+02  0.00000000000E+00 0.  1.
</event>
<event>
 5    1  0.1047411E-009  0.9118800E+02  0.7815553E-02  0.1125453E+00
         25   -1    0    0    0    0  0.00000000000E+00  0.00000000000E+00  0.99999998245E-14  0.12509000000E+03  0.12509000000E+03 0.  0.
        -11    1    3    3    0    0  0.88489964536E+00 -0.23943279658E+02 -0.54642999293E+02  0.59665074039E+02  0.51100000000E-03 0.  1.
         23    2    1    0    0    0  0.10805378116E+02 -0.20614061965E+01 -0.24668803609E+02  0.98079715602E+02  0.94287195044E+02 0.  0.
         11    1    3    3    0    0  0.99204784708E+01  0.21881873462E+02  0.29974195683E+02  0.38414641563E+02  0.51100000000E-03 0. -1.
         22    1    1    0    0    0 -0.10805378116E+02  0.20614061965E+01  0.24668803609E+02  0.27010284398E+02  0.00000000000E+00 0.  1.
</event>
<event>
 5    1  0.1047411E-009  0.9118800E+02  0.7815553E-02  0.1125453E+00
         25   -1    0    0    0    0  0.00000000000E+00  0.00000000000E+00  0.99999998245E-14  0.12509000000E+03  0.12509000000E+03 0.  0.
        -11    1    3    3    0    0 -0.25767647314E+02  0.50035146151E+02  0.93850799217E+01  0.57057578146E+02  0.51100000000E-03 0. -1.
         23    2    1    0    0    0 -0.18552186425E+01  0.28115519738E+02 -0.10401545688E+02  0.95054746729E+02  0.90184746142E+02 0.  0.
         11    1    3    3    0    0  0.23912428672E+02 -0.21919626413E+02 -0.19786625610E+02  0.37997168583E+02  0.51100000000E-03 0.  1.
         22    1    1    0    0    0  0.18552186425E+01 -0.28115519738E+02  0.10401545688E+02  0.30035253271E+02  0.00000000000E+00 0. -1.
</event>
<event>
 5    1  0.1047411E-009  0.9118800E+02  0.7815553E-02  0.1125453E+00
         25   -1    0    0    0    0  0.00000000000E+00  0.00000000000E+00  0.99999998245E-14  0.12509000000E+03  0.12509000000E+03 0.  0.
        -11    1    3    3    0    0  0.15558946343E+02  0.52390550636E+02 -0.70941353531E+01  0.55110592121E+02  0.51100000000E-03 0.  1.
         23    2    1    0    0    0  0.24234929813E+02  0.36968928247E+02 -0.19555867153E+02  0.76753001552E+02  0.59620112616E+02 0.  0.
         11    1    3    3    0    0  0.86759834702E+01 -0.15421622389E+02 -0.12461731800E+02  0.21642409431E+02  0.51100000000E-03 0. -1.
         22    1    1    0    0    0 -0.24234929813E+02 -0.36968928247E+02  0.19555867153E+02  0.48336998448E+02  0.00000000000E+00 0.  1.
</event>
<event>
 4    1  0.1047411E-009  0.9118800E+02  0.7815553E-02  0.1125453E+00
         25   -1    0    0    0    0  0.00000000000E+00  0.00000000000E+00  0.99999998245E-14  0.12509000000E+03  0.12509000000E+03 0.  0.
        -11    1    1    0    0    0 -0.50783854785E+02  0.73051064026E+01 -0.15181211380E+02  0.53505454540E+02  0.51100000000E-03 0.  1.
         11    1    1    0    0    0 -0.20255010638E+01 -0.15758272472E+02 -0.35545008828E+00  0.15891889469E+02  0.51100000000E-03 0. -1.
         22    1    1    0    0    0  0.52809355849E+02  0.84531660692E+01  0.15536661468E+02  0.55692655991E+02  0.00000000000E+00 0.  1.
</event>
<event>
 5    1  0.1047411E-009  0.9118800E+02  0.7815553E-02  0.1125453E+00
         25   -1    0    0    0    0  0.00000000000E+00  0.00000000000E+00  0.99999998245E-14  0.12509000000E+03  0.12509000000E+03 0.  0.
        -11    1    3    3    0    0 -0.29250060430E+02 -0.33855899549E+02  0.12513383372E+01  0.44758840661E+02  0.51100000000E-03 0. -1.
         23    2    1    0    0    0  0.69945210479E+01 -0.10250414903E+02 -0.26277330524E+02  0.96029848076E+02  0.91527259829E+02 0.  0.
         11    1    3    3    0    0  0.36244581478E+02  0.23605484646E+02 -0.27528668861E+02  0.51271007416E+02  0.51100000000E-03 0.  1.
         22    1    1    0    0    0 -0.69945210479E+01  0.10250414903E+02  0.26277330524E+02  0.29060151924E+02  0.00000000000E+00 0.  1.
</event>
<event>
 5    1  0.1047411E-009  0.9118800E+02  0.7815553E-02  0.1125453E+00
         25   -1    0    0    0    0  0.00000000000E+00  0.00000000000E+00  0.99999998245E-14  0.12509000000E+03  0.12509000000E+03 0.  0.
        -11    1    3    3    0    0  0.19018688026E+02 -0.44828258455E+02 -0.19694030789E+02  0.52527498506E+02  0.51100000000E-03 0.  1.
         23    2    1    0    0    0 -0.96680577013E+01 -0.24604798227E+02  0.82553334527E+01  0.97394910798E+02  0.93374250645E+02 0.  0.
         11    1    3    3    0    0 -0.28686745727E+02  0.20223460228E+02  0.27949364242E+02  0.44867412292E+02  0.51100000000E-03 0. -1.
         22    1    1    0    0    0  0.96680577013E+01  0.24604798227E+02 -0.82553334527E+01  0.27695089202E+02  0.00000000000E+00 0. -1.
</event>
<event>
 5    1  0.1047411E-009  0.9118800E+02  0.7815553E-02  0.1125453E+00
         25   -1    0    0    0    0  0.00000000000E+00  0.00000000000E+00  0.99999998245E-14  0.12509000000E+03  0.12509000000E+03 0.  0.
        -11    1    3    3    0    0  0.31579233199E+01 -0.26490455408E+02  0.29719061864E+02  0.39936691723E+02  0.51100000000E-03 0.  1.
         23    2    1    0    0    0  0.27161590123E+02  0.12541732309E+01 -0.11893268695E+02  0.95412150200E+02  0.90679124593E+02 0.  0.
         11    1    3    3    0    0  0.24003666803E+02  0.27744628639E+02 -0.41612330559E+02  0.55475458477E+02  0.51100000000E-03 0. -1.
         22    1    1    0    0    0 -0.27161590123E+02 -0.12541732309E+01  0.11893268695E+02  0.29677849800E+02  0.00000000000E+00 0. -1.
</event>
<event>
 5    1  0.1047411E-009  0.9118800E+02  0.7815553E-02  0.1125453E+00
         25   -1    0    0    0    0  0.00000000000E+00  0.00000000000E+00  0.99999998245E-14  0.12509000000E+03  0.12509000000E+03 0.  0.
        -11    1    3    3    0    0 -0.22040243452E+02  0.16573662934E+02  0.21731707816E+02  0.35110194521E+02  0.51100000000E-03 0.  1.
         23    2    1    0    0    0 -0.27739824930E+01 -0.26861108453E+02 -0.14104043130E+02  0.94624640019E+02  0.89586183867E+02 0.  0.
         11    1    3    3    0    0  0.19266260959E+02 -0.43434771387E+02 -0.35835750946E+02  0.59514445497E+02  0.51100000000E-03 0. -1.
         22    1    1    0    0    0  0.27739824930E+01  0.26861108453E+02  0.14104043130E+02  0.30465359981E+02  0.00000000000E+00 0. -1.
</event>
<event>
 5    1  0.1047411E-009  0.9118800E+02  0.7815553E-02  0.1125453E+00
         25   -1    0    0    0    0  0.00000000000E+00  0.00000000000E+00  0.99999998245E-14  0.12509000000E+03  0.12509000000E+03 0.  0.
        -11    1    3    3    0    0 -0.75909502542E+01  0.39662119856E+02 -0.39087633982E+02  0.56200973370E+02  0.51100000000E-03 0.  1.
         23    2    1    0    0    0 -0.21157994818E+02  0.16822668831E+02 -0.84119273596E+01  0.96780576601E+02  0.92547590752E+02 0.  0.
         11    1    3    3    0    0 -0.13567044563E+02 -0.22839451025E+02  0.30675706622E+02  0.40579603230E+02  0.51100000000E-03 0. -1.
         22    1    1    0    0    0  0.21157994818E+02 -0.16822668831E+02  0.84119273596E+01  0.28309423399E+02  0.00000000000E+00 0.  1.
</event>
<event>
 5    1  0.1047411E-009  0.9118800E+02  0.7815553E-02  0.1125453E+00
         25   -1    0    0    0    0  0.00000000000E+00  0.00000000000E+00  0.99999998245E-14  0.12509000000E+03  0.12509000000E+03 0.  0.
        -11    1    3    3    0    0  0.55020822304E+02 -0.10181821387E+01 -0.26212345778E+02  0.60954201277E+02  0.51100000000E-03 0.  1.
         23    2    1    0    0    0  0.29062303274E+02  0.76860669177E+01 -0.75304514275E+01  0.94099666104E+02  0.88850134305E+02 0.  0.
         11    1    3    3    0    0 -0.25958519030E+02  0.87042490563E+01  0.18681894350E+02  0.33145464827E+02  0.51100000000E-03 0. -1.
         22    1    1    0    0    0 -0.29062303274E+02 -0.76860669177E+01  0.75304514275E+01  0.30990333896E+02  0.00000000000E+00 0.  1.
</event>
<event>
 5    1  0.1047411E-009  0.9118800E+02  0.7815553E-02  0.1125453E+00
         25   -1    0    0    0    0  0.00000000000E+00  0.00000000000E+00  0.99999998245E-14  0.12509000000E+03  0.12509000000E+03 0.  0.
        -11    1    3    3    0    0 -0.47627985961E+02 -0.12758390332E+02 -0.32198880458E+02  0.58889468274E+02  0.51100000000E-03 0.  1.
         23    2    1    0    0    0 -0.12429655184E+02 -0.19594687121E+00 -0.25309878598E+02  0.96892044793E+02  0.92698131947E+02 0.  0.
         11    1    3    3    0    0  0.35198330777E+02  0.12562443461E+02  0.68890018594E+01  0.38002576519E+02  0.51100000000E-03 0. -1.
         22    1    1    0    0    0  0.12429655184E+02  0.19594687121E+00  0.25309878598E+02  0.28197955207E+02  0.00000000000E+00 0.  1.
</event>
<event>
 5    1  0.1047411E-009  0.9118800E+02  0.7815553E-02  0.1125453E+00
         25   -1    0    0    0    0  0.00000000000E+00  0.00000000000E+00  0.99999998245E-14  0.12509000000E+03  0.12509000000E+03 0.  0.
        -11    1    3    3    0    0 -0.12121684407E+01 -0.30523891409E+02 -0.22397004889E+02  0.37878795220E+02  0.51100000000E-03 0.  1.
         23    2    1    0    0    0 -0.17408681380E+02  0.14014541382E+01  0.23326753590E+02  0.95949586583E+02  0.91417500902E+02 0.  0.
         11    1    3    3    0    0 -0.16196512940E+02  0.31925345547E+02  0.45723758479E+02  0.58070791362E+02  0.51100000000E-03 0. -1.
         22    1    1    0    0    0  0.17408681380E+02 -0.14014541382E+01 -0.23326753590E+02  0.29140413417E+02  0.00000000000E+00 0. -1.
</event>
<event>
 5    1  0.1047411E-009  0.9118800E+02  0.7815553E-02  0.1125453E+00
         25   -1    0    0    0    0  0.00000000000E+00  0.00000000000E+00  0.99999998245E-14  0.12509000000E+03  0.12509000000E+03 0.  0.
        -11    1    3    3    0    0  0.43687810495E+02 -0.22937049233E+02 -0.23021680928E+02  0.54449341652E+02  0.51100000000E-03 0.  1.
         23    2    1    0    0    0  0.10405688191E+02 -0.81561484927E+01 -0.30697689957E+02  0.91666216945E+02  0.85355410229E+02 0.  0.
         11    1    3    3    0    0 -0.33282122304E+02  0.14780900740E+02 -0.76760090289E+01  0.37216875293E+02  0.51100000000E-03 0. -1.
         22    1    1    0    0    0 -0.10405688191E+02  0.81561484927E+01  0.30697689957E+02  0.33423783055E+02  0.00000000000E+00 0.  1.
</event>
<event>
 5    1  0.1047411E-009  0.9118800E+02  0.7815553E-02  0.1125453E+00
         25   -1    0    0    0    0  0.00000000000E+00  0.00000000000E+00  0.99999998245E-14  0.12509000000E+03  0.12509000000E+03 0.  0.
        -11    1    3    3    0    0 -0.28907281315E+02  0.27524458578E+02  0.14947627155E+02  0.42622274586E+02  0.51100000000E-03 0. -1.
         23    2    1    0    0    0 -0.16850364156E+02 -0.23295893946E+02  0.74551626983E+01  0.95387931086E+02  0.90645708664E+02 0.  0.
         11    1    3    3    0    0  0.12056917160E+02 -0.50820352524E+02 -0.74924644567E+01  0.52765656500E+02  0.51100000000E-03 0.  1.
         22    1    1    0    0    0  0.16850364156E+02  0.23295893946E+02 -0.74551626983E+01  0.29702068914E+02  0.00000000000E+00 0.  1.
</event>
<event>
 5    1  0.1047411E-009  0.9118800E+02  0.7815553E-02  0.1125453E+00
         25   -1    0    0    0    0  0.00000000000E+00  0.00000000000E+00  0.99999998245E-14  0.12509000000E+03  0.12509000000E+03 0.  0.
        -11    1    3    3    0    0 -0.30265042161E+02 -0.38958031569E+02  0.38336272913E+02  0.62476962329E+02  0.51100000000E-03 0. -1.
         23    2    1    0    0    0 -0.14179171499E+02 -0.19394604136E+02  0.16212521708E+02  0.96106462706E+02  0.91631908960E+02 0.  0.
         11    1    3    3    0    0  0.16085870662E+02  0.19563427433E+02 -0.22123751206E+02  0.33629500376E+02  0.51100000000E-03 0.  1.
         22    1    1    0    0    0  0.14179171499E+02  0.19394604136E+02 -0.16212521708E+02  0.28983537294E+02  0.00000000000E+00 0. -1.
</event>
<event>
 5    1  0.1047411E-009  0.9118800E+02  0.7815553E-02  0.1125453E+00
         25   -1    0    0    0    0  0.00000000000E+00  0.00000000000E+00  0.99999998245E-14  0.12509000000E+03  0.12509000000E+03 0.  0.
        -11    1    3    3    0    0  0.10933181563E+02 -0.57028973467E+01 -0.32280464681E+02  0.34555548000E+02  0.51100000000E-03 0. -1.
         23    2    1    0    0    0  0.63069437555E+00  0.11696977797E+01  0.28486936151E+02  0.96572084586E+02  0.92265356563E+02 0.  0.
         11    1    3    3    0    0 -0.10302487187E+02  0.68725951264E+01  0.60767400832E+02  0.62016536587E+02  0.51100000000E-03 0.  1.
         22    1    1    0    0    0 -0.63069437555E+00 -0.11696977797E+01 -0.28486936151E+02  0.28517915414E+02  0.00000000000E+00 0.  1.
</event>
<event>
 5    1  0.1047411E-009  0.9118800E+02  0.7815553E-02  0.1125453E+00
         25   -1    0    0    0    0  0.00000000000E+00  0.00000000000E+00  0.99999998245E-14  0.12509000000E+03  0.12509000000E+03 0.  0.
        -11    1    3    3    0    0 -0.36562927182E+02  0.15138502736E+02  0.29121413998E+02  0.49133274496E+02  0.51100000000E-03 0. -1.
         23    2    1    0    0    0 -0.22056644419E+02 -0.19120670420E+02  0.25169759631E+02  0.86546357201E+02  0.77489738318E+02 0.  0.
         11    1    3    3    0    0  0.14506282763E+02 -0.34259173156E+02 -0.39516543677E+01  0.37413082705E+02  0.51100000000E-03 0.  1.
         22    1    1    0    0    0  0.22056644419E+02  0.19120670420E+02 -0.25169759631E+02  0.38543642799E+02  0.00000000000E+00 0. -1.
</event>
<event>
 5    1  0.1047411E-009  0.9118800E+02  0.7815553E-02  0.1125453E+00
         25   -1    0    0    0    0  0.00000000000E+00  0.00000000000E+00  0.99999998245E-14  0.12509000000E+03  0.12509000000E+03 0.  0.
        -11    1    3    3    0    0 -0.36726868192E+02 -0.64309799273E+01 -0.18186840952E+02  0.41484714463E+02  0.51100000000E-03 0.  1.
         23    2    1    0    0    0 -0.98202254529E+01  0.16218014758E+02  0.22763509910E+02  0.95465040691E+02  0.90752056616E+02 0.  0.
         11    1    3    3    0    0  0.26906642739E+02  0.22648994685E+02  0.40950350862E+02  0.53980326228E+02  0.51100000000E-03 0. -1.
         22    1    1    0    0    0  0.98202254529E+01 -0.16218014758E+02 -0.22763509910E+02  0.29624959309E+02  0.00000000000E+00 0.  1.
</event>
<event>
 5    1  0.1047411E-009  0.9118800E+02  0.7815553E-02  0.1125453E+00
         25   -1    0    0    0    0  0.00000000000E+00  0.00000000000E+00  0.99999998245E-14  0.12509000000E+03  0.12509000000E+03 0.  0.
        -11    1    3    3    0    0 -0.14581136833E+02 -0.61753006887E+00  0.55911708161E+02  0.57785032702E+02  0.51100000000E-03 0.  1.
         23    2    1    0    0    0  0.80442972676E+01 -0.90882506112E+01  0.27174887098E+02  0.95327918310E+02  0.90562853880E+02 0.  0.
         11    1    3    3    0    0  0.22625434100E+02 -0.84707205423E+01 -0.28736821062E+02  0.37542885608E+02  0.51100000000E-03 0. -1.
         22    1    1    0    0    0 -0.80442972676E+01  0.90882506112E+01 -0.27174887098E+02  0.29762081690E+02  0.00000000000E+00 0.  1.
</event>
<event>
 5    1  0.1047411E-009  0.9118800E+02  0.7815553E-02  0.1125453E+00
         25   -1    0    0    0    0  0.00000000000E+00  0.00000000000E+00  0.99999998245E-14  0.12509000000E+03  0.12509000000E+03 0.  0.
        -11    1    3    3    0    0  0.13987425956E+02  0.36942245729E+02 -0.59745981639E+01  0.39950887698E+02  0.51100000000E-03 0. -1.
         23    2    1    0    0    0 -0.27494971001E+02 -0.22241285539E+01  0.13626977276E+01  0.97471580001E+02  0.93476905086E+02 0.  0.
         11    1    3    3    0    0 -0.41482396957E+02 -0.39166374283E+02  0.73372958915E+01  0.57520692303E+02  0.51100000000E-03 0.  1.
         22    1    1    0    0    0  0.27494971001E+02  0.22241285539E+01 -0.13626977276E+01  0.27618419999E+02  0.00000000000E+00 0.  1.
</event>
<event>
 5    1  0.1047411E-009  0.9118800E+02  0.7815553E-02  0.1125453E+00
         25   -1    0    0    0    0  0.00000000000E+00  0.00000000000E+00  0.99999998245E-14  0.12509000000E+03  0.12509000000E+03 0.  0.
        -11    1    3    3    0    0  0.28081997459E+02  0.16850177830E+02  0.10534321342E+02  0.34402020298E+02  0.51100000000E-03 0. -1.
         23    2    1    0    0    0 -0.86098522118E+01 -0.25827640175E+02 -0.12395675044E+02  0.95175967976E+02  0.90352728616E+02 0.  0.
         11    1    3    3    0    0 -0.36691849671E+02 -0.42677818005E+02 -0.22929996386E+02  0.60773947679E+02  0.51100000000E-03 0.  1.
         22    1    1    0    0    0  0.86098522118E+01  0.25827640175E+02  0.12395675044E+02  0.29914032024E+02  0.00000000000E+00 0.  1.
</event>
<event>
 5    1  0.1047411E-009  0.9118800E+02  0.7815553E-02  0.1125453E+00
         25   -1    0    0    0    0  0.00000000000E+00  0.00000000000E+00  0.99999998245E-14  0.12509000000E+03  0.12509000000E+03 0.  0.
        -11    1    3    3    0    0  0.23360653178E+02 -0.19417344270E+02 -0.18903409743E+02  0.35778377207E+02  0.51100000000E-03 0.  1.
         23    2    1    0    0    0 -0.13713339138E+02 -0.79062044957E+01  0.25698229425E+02  0.94907840776E+02  0.89980750748E+02 0.  0.
         11    1    3    3    0    0 -0.37073992316E+02  0.11511139774E+02  0.44601639168E+02  0.59129463569E+02  0.51100000000E-03 0. -1.
         22    1    1    0    0    0  0.13713339138E+02  0.79062044957E+01 -0.25698229425E+02  0.30182159224E+02  0.00000000000E+00 0. -1.
</event>
<event>
 5    1  0.1047411E-009  0.9118800E+02  0.7815553E-02  0.1125453E+00
         25   -1    0    0    0    0  0.00000000000E+00  0.00000000000E+00  0.99999998245E-14  0.12509000000E+03  0.12509000000E+03 0.  0.
        -11    1    3    3    0    0 -0.29315698987E+02 -0.15830224599E+02 -0.26610465079E+02  0.42639454382E+02  0.51100000000E-03 0.  1.
         23    2    1    0    0    0 -0.80870514189E+01 -0.20344775174E+02  0.20868819387E+02  0.94844043243E+02  0.89892016545E+02 0.  0.
         11    1    3    3    0    0  0.21228647568E+02 -0.45145505749E+01  0.47479284467E+02  0.52204588862E+02  0.51100000000E-03 0. -1.
         22    1    1    0    0    0  0.80870514189E+01  0.20344775174E+02 -0.20868819387E+02  0.30245956757E+02  0.00000000000E+00 0. -1.
</event>
<event>
 5    1  0.1047411E-009  0.9118800E+02  0.7815553E-02  0.1125453E+00
         25   -1    0    0    0    0  0.00000000000E+00  0.00000000000E+00  0.99999998245E-14  0.12509000000E+03  0.12509000000E+03 0.  0.
        -11    1    3    3    0    0 -0.33737603506E+02  0.46697306422E+02  0.22316533754E+02  0.61781000287E+02  0.51100000000E-03 0. -1.
         23    2    1    0    0    0 -0.16847865939E+02  0.22706866164E+02  0.35876138214E+01  0.96588713527E+02  0.92287898720E+02 0.  0.
         11    1    3    3    0    0  0.16889737567E+02 -0.23990440258E+02 -0.18728919933E+02  0.34807713239E+02  0.51100000000E-03 0.  1.
         22    1    1    0    0    0  0.16847865939E+02 -0.22706866164E+02 -0.35876138214E+01  0.28501286473E+02  0.00000000000E+00 0. -1.
</event>
<event>
 5    1  0.1047411E-009  0.9118800E+02  0.7815553E-02  0.1125453E+00
         25   -1    0    0    0    0  0.00000000000E+00  0.00000000000E+00  0.99999998245E-14  0.12509000000E+03  0.12509000000E+03 0.  0.
        -11    1    3    3    0    0 -0.44772390585E+01 -0.25614588892E+02 -0.23507119190E+02  0.35053352002E+02  0.51100000000E-03 0. -1.
         23    2    1    0    0    0  0.17281312985E+02  0.19428053615E+02  0.12055900373E+02  0.96429264148E+02  0.92071522224E+02 0.  0.
         11    1    3    3    0    0  0.21758552044E+02  0.45042642507E+02  0.35563019563E+02  0.61375912146E+02  0.51100000000E-03 0.  1.
         22    1    1    0    0    0 -0.17281312985E+02 -0.19428053615E+02 -0.12055900373E+02  0.28660735852E+02  0.00000000000E+00 0.  1.
</event>
<event>
 5    1  0.1047411E-009  0.9118800E+02  0.7815553E-02  0.1125453E+00
         25   -1    0    0    0    0  0.00000000000E+00  0.00000000000E+00  0.99999998245E-14  0.12509000000E+03  0.12509000000E+03 0.  0.
        -11    1    3    3    0    0  0.14300898665E+02 -0.10002073469E+02  0.43574184447E+02  0.46938968105E+02  0.51100000000E-03 0. -1.
         23    2    1    0    0    0 -0.24785793989E+02 -0.42404724941E+01  0.13838341879E+02  0.96387789343E+02  0.92015156566E+02 0.  0.
         11    1    3    3    0    0 -0.39086692654E+02  0.57616009749E+01 -0.29735842568E+02  0.49448821239E+02  0.51100000000E-03 0.  1.
         22    1    1    0    0    0  0.24785793989E+02  0.42404724941E+01 -0.13838341879E+02  0.28702210657E+02  0.00000000000E+00 0. -1.
</event>
<event>
 5    1  0.1047411E-009  0.9118800E+02  0.7815553E-02  0.1125453E+00
         25   -1    0    0    0    0  0.00000000000E+00  0.00000000000E+00  0.99999998245E-14  0.12509000000E+03  0.12509000000E+03 0.  0.
        -11    1    3    3    0    0  0.80443536827E+01 -0.33317252758E+02  0.65997212000E+01  0.34904258733E+02  0.51100000000E-03 0. -1.
         23    2    1    0    0    0 -0.20002817450E+02  0.17033584876E+02 -0.12994452684E+02  0.95779395772E+02  0.91184325047E+02 0.  0.
         11    1    3    3    0    0 -0.28047171133E+02  0.50350837634E+02 -0.19594173884E+02  0.60875137039E+02  0.51100000000E-03 0.  1.
         22    1    1    0    0    0  0.20002817450E+02 -0.17033584876E+02  0.12994452684E+02  0.29310604228E+02  0.00000000000E+00 0.  1.
</event>
<event>
 5    1  0.1047411E-009  0.9118800E+02  0.7815553E-02  0.1125453E+00
         25   -1    0    0    0    0  0.00000000000E+00  0.00000000000E+00  0.99999998245E-14  0.12509000000E+03  0.12509000000E+03 0.  0.
        -11    1    3    3    0    0  0.26088560908E+02 -0.20131903692E+02 -0.12407202949E+02  0.35211436236E+02  0.51100000000E-03 0.  1.
         23    2    1    0    0    0 -0.27021938054E+02  0.76816275423E+01  0.21793630604E+01  0.96913020721E+02  0.92726433254E+02 0.  0.
         11    1    3    3    0    0 -0.53110498963E+02  0.27813531234E+02  0.14586566010E+02  0.61701584485E+02  0.51100000000E-03 0. -1.
         22    1    1    0    0    0  0.27021938054E+02 -0.76816275423E+01 -0.21793630604E+01  0.28176979279E+02  0.00000000000E+00 0. -1.
</event>
<event>
 5    1  0.1047411E-009  0.9118800E+02  0.7815553E-02  0.1125453E+00
         25   -1    0    0    0    0  0.00000000000E+00  0.00000000000E+00  0.99999998245E-14  0.12509000000E+03  0.12509000000E+03 0.  0.
        -11    1    3    3    0    0  0.32054108327E+02  0.25670007015E+02 -0.42446136270E+02  0.59060050841E+02  0.51100000000E-03 0.  1.
         23    2    1    0    0    0  0.20068542821E+02 -0.17095771473E+01 -0.21943025890E+02  0.95304677269E+02  0.90530746485E+02 0.  0.
         11    1    3    3    0    0 -0.11985565506E+02 -0.27379584163E+02  0.20503110380E+02  0.36244626428E+02  0.51100000000E-03 0. -1.
         22    1    1    0    0    0 -0.20068542821E+02  0.17095771473E+01  0.21943025890E+02  0.29785322731E+02  0.00000000000E+00 0.  1.
</event>
<event>
 5    1  0.1047411E-009  0.9118800E+02  0.7815553E-02  0.1125453E+00
         25   -1    0    0    0    0  0.00000000000E+00  0.00000000000E+00  0.99999998245E-14  0.12509000000E+03  0.12509000000E+03 0.  0.
        -11    1    3    3    0    0  0.18907225147E+02 -0.14789992705E+02 -0.30281448455E+02  0.38641857716E+02  0.51100000000E-03 0. -1.
         23    2    1    0    0    0 -0.20442192022E+02  0.19885799725E+02 -0.11087978388E+02  0.94491445948E+02  0.89400010331E+02 0.  0.
         11    1    3    3    0    0 -0.39349417169E+02  0.34675792429E+02  0.19193470066E+02  0.55849588232E+02  0.51100000000E-03 0.  1.
         22    1    1    0    0    0  0.20442192022E+02 -0.19885799725E+02  0.11087978388E+02  0.30598554052E+02  0.00000000000E+00 0.  1.
</event>
<event>
 5    1  0.1047411E-009  0.9118800E+02  0.7815553E-02  0.1125453E+00
         25   -1    0    0    0    0  0.00000000000E+00  0.00000000000E+00  0.99999998245E-14  0.12509000000E+03  0.12509000000E+03 0.  0.
        -11    1    3    3    0    0 -0.27315337763E+01 -0.52362730560E+02  0.33495091426E+02  0.62219273367E+02  0.51100000000E-03 0.  1.
         23    2    1    0    0    0  0.26273439794E+01 -0.23957433458E+02  0.12542977073E+02  0.97920387781E+02  0.94075578738E+02 0.  0.
         11    1    3    3    0    0  0.53588777557E+01  0.28405297102E+02 -0.20952114353E+02  0.35701114413E+02  0.51100000000E-03 0. -1.
         22    1    1    0    0    0 -0.26273439794E+01  0.23957433458E+02 -0.12542977073E+02  0.27169612219E+02  0.00000000000E+00 0.  1.
</event>
<event>
 5    1  0.1047411E-009  0.9118800E+02  0.7815553E-02  0.1125453E+00
         25   -1    0    0    0    0  0.00000000000E+00  0.00000000000E+00  0.99999998245E-14  0.12509000000E+03  0.12509000000E+03 0.  0.
        -11    1    3    3    0    0 -0.33227671053E+02 -0.22777963862E+02  0.32798499320E+02  0.51948583419E+02  0.51100000000E-03 0.  1.
         23    2    1    0    0    0 -0.99695278617E+01 -0.24756787307E+02  0.40550943598E+02  0.76544464364E+02  0.59180959730E+02 0.  0.
         11    1    3    3    0    0  0.23258143191E+02 -0.19788234446E+01  0.77524442777E+01  0.24595880945E+02  0.51100000000E-03 0. -1.
         22    1    1    0    0    0  0.99695278617E+01  0.24756787307E+02 -0.40550943598E+02  0.48545535636E+02  0.00000000000E+00 0.  1.
</event>
<event>
 5    1  0.1047411E-009  0.9118800E+02  0.7815553E-02  0.1125453E+00
         25   -1    0    0    0    0  0.00000000000E+00  0.00000000000E+00  0.99999998245E-14  0.12509000000E+03  0.12509000000E+03 0.  0.
        -11    1    3    3    0    0 -0.44754903519E+02 -0.74884520408E+01 -0.43684525623E+01  0.45586858643E+02  0.51100000000E-03 0. -1.
         23    2    1    0    0    0 -0.54778715756E+01  0.16911366661E+02  0.20391678040E+02  0.98037792463E+02  0.94231559567E+02 0.  0.
         11    1    3    3    0    0  0.39277031943E+02  0.24399818701E+02  0.24760130602E+02  0.52450933820E+02  0.51100000000E-03 0.  1.
         22    1    1    0    0    0  0.54778715756E+01 -0.16911366661E+02 -0.20391678040E+02  0.27052207537E+02  0.00000000000E+00 0.  1.
</event>
<event>
 5    1  0.1047411E-009  0.9118800E+02  0.7815553E-02  0.1125453E+00
         25   -1    0    0    0    0  0.00000000000E+00  0.00000000000E+00  0.99999998245E-14  0.12509000000E+03  0.12509000000E+03 0.  0.
        -11    1    3    3    0    0 -0.21920913329E+02  0.40205784776E+01  0.34956811188E+02  0.41456846735E+02  0.51100000000E-03 0. -1.
         23    2    1    0    0    0 -0.11406541519E+02 -0.31061922433E+02  0.12512650763E+00  0.91999701251E+02  0.85842746689E+02 0.  0.
         11    1    3    3    0    0  0.10514371811E+02 -0.35082500910E+02 -0.34831684681E+02  0.50542854516E+02  0.51100000000E-03 0.  1.
         22    1    1    0    0    0  0.11406541519E+02  0.31061922433E+02 -0.12512650763E+00  0.33090298749E+02  0.00000000000E+00 0.  1.
</event>
<event>
 5    1  0.1047411E-009  0.9118800E+02  0.7815553E-02  0.1125453E+00
         25   -1    0    0    0    0  0.00000000000E+00  0.00000000000E+00  0.99999998245E-14  0.12509000000E+03  0.12509000000E+03 0.  0.
        -11    1    3    3    0    0 -0.30751394661E+02 -0.48517936581E+02 -0.20471139679E+02  0.60981193853E+02  0.51100000000E-03 0. -1.
         23    2    1    0    0    0 -0.54720706813E+01 -0.25738241951E+02 -0.12633203010E+02  0.95900987092E+02  0.91350976188E+02 0.  0.
         11    1    3    3    0    0  0.25279323980E+02  0.22779694630E+02  0.78379366688E+01  0.34919793238E+02  0.51100000000E-03 0.  1.
         22    1    1    0    0    0  0.54720706813E+01  0.25738241951E+02  0.12633203010E+02  0.29189012908E+02  0.00000000000E+00 0. -1.
</event>
<event>
 5    1  0.1047411E-009  0.9118800E+02  0.7815553E-02  0.1125453E+00
         25   -1    0    0    0    0  0.00000000000E+00  0.00000000000E+00  0.99999998245E-14  0.12509000000E+03  0.12509000000E+03 0.  0.
        -11    1    3    3    0    0  0.91200330109E+01 -0.32711361302E+02  0.98542482173E+01  0.35359784622E+02  0.51100000000E-03 0. -1.
         23    2    1    0    0    0 -0.21094612227E+02  0.15242648441E+02 -0.12412983487E+02  0.96255937582E+02  0.91835735769E+02 0.  0.
         11    1    3    3    0    0 -0.30214645237E+02  0.47954009743E+02 -0.22267231704E+02  0.60896152960E+02  0.51100000000E-03 0.  1.
         22    1    1    0    0    0  0.21094612227E+02 -0.15242648441E+02  0.12412983487E+02  0.28834062418E+02  0.00000000000E+00 0.  1.
</event>
<event>
 5    1  0.1047411E-009  0.9118800E+02  0.7815553E-02  0.1125453E+00
         25   -1    0    0    0    0  0.00000000000E+00  0.00000000000E+00  0.99999998245E-14  0.12509000000E+03  0.12509000000E+03 0.  0.
        -11    1    3    3    0    0 -0.24811864982E+02 -0.12290718857E+02 -0.28959647144E+02  0.40066838867E+02  0.51100000000E-03 0. -1.
         23    2    1    0    0    0  0.25089220602E+01  0.28868108024E+02 -0.27695512254E+01  0.95981019173E+02  0.91460501183E+02 0.  0.
         11    1    3    3    0    0  0.27320787042E+02  0.41158826881E+02  0.26190095918E+02  0.55914180306E+02  0.51100000000E-03 0.  1.
         22    1    1    0    0    0 -0.25089220602E+01 -0.28868108024E+02  0.27695512254E+01  0.29108980827E+02  0.00000000000E+00 0.  1.
</event>
<event>
 5    1  0.1047411E-009  0.9118800E+02  0.7815553E-02  0.1125453E+00
         25   -1    0    0    0    0  0.00000000000E+00  0.00000000000E+00  0.99999998245E-14  0.12509000000E+03  0.12509000000E+03 0.  0.
        -11    1    3    3    0    0 -0.34313783969E+02  0.46005682330E+02 -0.22925705711E+02  0.61802480205E+02  0.51100000000E-03 0.  1.
         23    2    1    0    0    0 -0.12390421303E+02  0.25810428576E+02 -0.69208687203E+01  0.95634963297E+02  0.90985971543E+02 0.  0.
         11    1    3    3    0    0  0.21923362666E+02 -0.20195253755E+02  0.16004836991E+02  0.33832483092E+02  0.51100000000E-03 0. -1.
         22    1    1    0    0    0  0.12390421303E+02 -0.25810428576E+02  0.69208687203E+01  0.29455036703E+02  0.00000000000E+00 0.  1.
</event>
<event>
 5    1  0.1047411E-009  0.9118800E+02  0.7815553E-02  0.1125453E+00
         25   -1    0    0    0    0  0.00000000000E+00  0.00000000000E+00  0.99999998245E-14  0.12509000000E+03  0.12509000000E+03 0.  0.
        -11    1    3    3    0    0 -0.23607836068E+02 -0.40919391859E+02 -0.40565086013E+02  0.62267589944E+02  0.51100000000E-03 0. -1.
         23    2    1    0    0    0 -0.99487310439E+01 -0.24830367678E+02 -0.20498660366E+02  0.91389562537E+02  0.84949000320E+02 0.  0.
         11    1    3    3    0    0  0.13659105024E+02  0.16089024181E+02  0.20066425647E+02  0.29121972592E+02  0.51100000000E-03 0.  1.
         22    1    1    0    0    0  0.99487310439E+01  0.24830367678E+02  0.20498660366E+02  0.33700437463E+02  0.00000000000E+00 0. -1.
</event>
<event>
 5    1  0.1047411E-009  0.9118800E+02  0.7815553E-02  0.1125453E+00
         25   -1    0    0    0    0  0.00000000000E+00  0.00000000000E+00  0.99999998245E-14  0.12509000000E+03  0.12509000000E+03 0.  0.
        -11    1    3    3    0    0 -0.13496715599E+02  0.34275267706E+02 -0.44903795077E+02  0.58080169773E+02  0.51100000000E-03 0. -1.
         23    2    1    0    0    0 -0.21540650401E+02  0.10008966265E+02 -0.17289757281E+02  0.95711185657E+02  0.91090703849E+02 0.  0.
         11    1    3    3    0    0 -0.80439348016E+01 -0.24266301442E+02  0.27614037796E+02  0.37631015884E+02  0.51100000000E-03 0.  1.
         22    1    1    0    0    0  0.21540650401E+02 -0.10008966265E+02  0.17289757281E+02  0.29378814343E+02  0.00000000000E+00 0. -1.
</event>
<event>
 5    1  0.1047411E-009  0.9118800E+02  0.7815553E-02  0.1125453E+00
         25   -1    0    0    0    0  0.00000000000E+00  0.00000000000E+00  0.99999998245E-14  0.12509000000E+03  0.12509000000E+03 0.  0.
        -11    1    3    3    0    0 -0.35228022527E+01  0.54149430627E+02  0.25992265353E+02  0.60167838846E+02  0.51100000000E-03 0.  1.
         23    2    1    0    0    0  0.67814243422E+01  0.20148105453E+02  0.19414730090E+02  0.96299973707E+02  0.91895698061E+02 0.  0.
         11    1    3    3    0    0  0.10304226595E+02 -0.34001325173E+02 -0.65775352631E+01  0.36132134862E+02  0.51100000000E-03 0. -1.
         22    1    1    0    0    0 -0.67814243422E+01 -0.20148105453E+02 -0.19414730090E+02  0.28790026293E+02  0.00000000000E+00 0.  1.
</event>
<event>
 5    1  0.1047411E-009  0.9118800E+02  0.7815553E-02  0.1125453E+00
         25   -1    0    0    0    0  0.00000000000E+00  0.00000000000E+00  0.99999998245E-14  0.12509000000E+03  0.12509000000E+03 0.  0.
        -11    1    3    3    0    0 -0.33073121787E+02  0.64294982212E+01  0.41884164413E+02  0.53753633002E+02  0.51100000000E-03 0.  1.
         23    2    1    0    0    0 -0.29887359676E+02  0.63299451886E+01  0.12484311375E+01  0.94514175321E+02  0.89431807998E+02 0.  0.
         11    1    3    3    0    0  0.31857621102E+01 -0.99553032595E-01 -0.40635733275E+02  0.40760542319E+02  0.51100000000E-03 0. -1.
         22    1    1    0    0    0  0.29887359676E+02 -0.63299451886E+01 -0.12484311375E+01  0.30575824679E+02  0.00000000000E+00 0.  1.
</event>
<event>
 5    1  0.1047411E-009  0.9118800E+02  0.7815553E-02  0.1125453E+00
         25   -1    0    0    0    0  0.00000000000E+00  0.00000000000E+00  0.99999998245E-14  0.12509000000E+03  0.12509000000E+03 0.  0.
        -11    1    3    3    0    0  0.23116355839E+02 -0.22419720141E+02 -0.48933690486E+02  0.58579141538E+02  0.51100000000E-03 0. -1.
         23    2    1    0    0    0  0.12899792857E+02 -0.21012516181E+02 -0.10642276263E+02  0.98235046340E+02  0.94493046270E+02 0.  0.
         11    1    3    3    0    0 -0.10216562982E+02  0.14072039604E+01  0.38291414224E+02  0.39655904802E+02  0.51100000000E-03 0.  1.
         22    1    1    0    0    0 -0.12899792857E+02  0.21012516181E+02  0.10642276263E+02  0.26854953660E+02  0.00000000000E+00 0. -1.
</event>
<event>
 5    1  0.1047411E-009  0.9118800E+02  0.7815553E-02  0.1125453E+00
         25   -1    0    0    0    0  0.00000000000E+00  0.00000000000E+00  0.99999998245E-14  0.12509000000E+03  0.12509000000E+03 0.  0.
        -11    1    3    3    0    0  0.14128274788E+02  0.43685416714E+02  0.38387006815E+02  0.59846353894E+02  0.51100000000E-03 0. -1.
         23    2    1    0    0    0  0.16944091605E+02  0.23147743295E+02  0.10613873538E+02  0.94502836492E+02  0.89415946752E+02 0.  0.
         11    1    3    3    0    0  0.28158168165E+01 -0.20537673419E+02 -0.27773133277E+02  0.34656482598E+02  0.51100000000E-03 0.  1.
         22    1    1    0    0    0 -0.16944091605E+02 -0.23147743295E+02 -0.10613873538E+02  0.30587163508E+02  0.00000000000E+00 0. -1.
</event>
<event>
 5    1  0.1047411E-009  0.9118800E+02  0.7815553E-02  0.1125453E+00
         25   -1    0    0    0    0  0.00000000000E+00  0.00000000000E+00  0.99999998245E-14  0.12509000000E+03  0.12509000000E+03 0.  0.
        -11    1    3    3    0    0 -0.12996205350E+02 -0.28813763134E+02 -0.14366646657E+02  0.34720812719E+02  0.51100000000E-03 0.  1.
         23    2    1    0    0    0  0.82358258097E+01  0.27348493487E+02  0.29561861924E+00  0.96526801419E+02  0.92203942861E+02 0.  0.
         11    1    3    3    0    0  0.21232031159E+02  0.56162256621E+02  0.14662265276E+02  0.61805988700E+02  0.51100000000E-03 0. -1.
         22    1    1    0    0    0 -0.82358258097E+01 -0.27348493487E+02 -0.29561861924E+00  0.28563198581E+02  0.00000000000E+00 0. -1.
</event>
<event>
 5    1  0.1047411E-009  0.9118800E+02  0.7815553E-02  0.1125453E+00
         25   -1    0    0    0    0  0.00000000000E+00  0.00000000000E+00  0.99999998245E-14  0.12509000000E+03  0.12509000000E+03 0.  0.
        -11    1    3    3    0    0 -0.23105001322E+02 -0.30283251197E+02 -0.74456258268E+01  0.38811773128E+02  0.51100000000E-03 0. -1.
         23    2    1    0    0    0  0.23565359357E+02  0.74742723705E+01 -0.87717363593E+01  0.98857686571E+02  0.95313734196E+02 0.  0.
         11    1    3    3    0    0  0.46670360679E+02  0.37757523567E+02 -0.13261105325E+01  0.60045913443E+02  0.51100000000E-03 0.  1.
         22    1    1    0    0    0 -0.23565359357E+02 -0.74742723705E+01  0.87717363593E+01  0.26232313429E+02  0.00000000000E+00 0.  1.
</event>
<event>
 5    1  0.1047411E-009  0.9118800E+02  0.7815553E-02  0.1125453E+00
         25   -1    0    0    0    0  0.00000000000E+00  0.00000000000E+00  0.99999998245E-14  0.12509000000E+03  0.12509000000E+03 0.  0.
        -11    1    3    3    0    0  0.51330911773E+02  0.19338920582E+01  0.57118506536E+01  0.51683920905E+02  0.51100000000E-03 0. -1.
         23    2    1    0    0    0  0.60895113204E+01  0.29774558320E+01 -0.20166923577E+02  0.10381437550E+03  0.10161088703E+03 0.  0.
         11    1    3    3    0    0 -0.45241400452E+02  0.10435637737E+01 -0.25878774231E+02  0.52130454594E+02  0.51100000000E-03 0.  1.
         22    1    1    0    0    0 -0.60895113204E+01 -0.29774558320E+01  0.20166923577E+02  0.21275624501E+02  0.00000000000E+00 0.  1.
</event>
<event>
 5    1  0.1047411E-009  0.9118800E+02  0.7815553E-02  0.1125453E+00
         25   -1    0    0    0    0  0.00000000000E+00  0.00000000000E+00  0.99999998245E-14  0.12509000000E+03  0.12509000000E+03 0.  0.
        -11    1    3    3    0    0  0.30512978587E+02 -0.31605968298E+02  0.60450605432E+01  0.44345482876E+02  0.51100000000E-03 0.  1.
         23    2    1    0    0    0  0.54781890091E+01  0.61079031889E+01 -0.24697981731E+02  0.99064871033E+02  0.95585256891E+02 0.  0.
         11    1    3    3    0    0 -0.25034789578E+02  0.37713871487E+02 -0.30743042274E+02  0.54719388157E+02  0.51100000000E-03 0. -1.
         22    1    1    0    0    0 -0.54781890091E+01 -0.61079031889E+01  0.24697981731E+02  0.26025128967E+02  0.00000000000E+00 0. -1.
</event>
<event>
 5    1  0.1047411E-009  0.9118800E+02  0.7815553E-02  0.1125453E+00
         25   -1    0    0    0    0  0.00000000000E+00  0.00000000000E+00  0.99999998245E-14  0.12509000000E+03  0.12509000000E+03 0.  0.
        -11    1    3    3    0    0 -0.21762777829E+02 -0.14296281381E+02 -0.22655876305E+02  0.34515082089E+02  0.51100000000E-03 0.  1.
         23    2    1    0    0    0 -0.17857086056E+00  0.15666880640E+02  0.25476428046E+02  0.95181281831E+02  0.90360085151E+02 0.  0.
         11    1    3    3    0    0  0.21584206969E+02  0.29963162021E+02  0.48132304351E+02  0.60666199742E+02  0.51100000000E-03 0. -1.
         22    1    1    0    0    0  0.17857086056E+00 -0.15666880640E+02 -0.25476428046E+02  0.29908718169E+02  0.00000000000E+00 0. -1.
</event>
<event>
 5    1  0.1047411E-009  0.9118800E+02  0.7815553E-02  0.1125453E+00
         25   -1    0    0    0    0  0.00000000000E+00  0.00000000000E+00  0.99999998245E-14  0.12509000000E+03  0.12509000000E+03 0.  0.
        -11    1    3    3    0    0 -0.60369018339E+02  0.83617056559E+01 -0.72333153873E+00  0.60949648936E+02  0.51100000000E-03 0.  1.
         23    2    1    0    0    0 -0.28192564405E+02 -0.60415302313E+01 -0.15926339356E+01  0.96213413323E+02  0.91777794946E+02 0.  0.
         11    1    3    3    0    0  0.32176453934E+02 -0.14403235887E+02 -0.86930239690E+00  0.35263764386E+02  0.51100000000E-03 0. -1.
         22    1    1    0    0    0  0.28192564405E+02  0.60415302313E+01  0.15926339356E+01  0.28876586677E+02  0.00000000000E+00 0.  1.
</event>
<event>
 5    1  0.1047411E-009  0.9118800E+02  0.7815553E-02  0.1125453E+00
         25   -1    0    0    0    0  0.00000000000E+00  0.00000000000E+00  0.99999998245E-14  0.12509000000E+03  0.12509000000E+03 0.  0.
        -11    1    3    3    0    0  0.43417358483E+02  0.19755247674E+02 -0.24505757961E+02  0.53627129345E+02  0.51100000000E-03 0.  1.
         23    2    1    0    0    0  0.25234669366E+02 -0.83996882300E+01  0.46992771203E+01  0.98082102899E+02  0.94290362197E+02 0.  0.
         11    1    3    3    0    0 -0.18182689117E+02 -0.28154935904E+02  0.29205035081E+02  0.44454973554E+02  0.51100000000E-03 0. -1.
         22    1    1    0    0    0 -0.25234669366E+02  0.83996882300E+01 -0.46992771203E+01  0.27007897101E+02  0.00000000000E+00 0.  1.
</event>
<event>
 5    1  0.1047411E-009  0.9118800E+02  0.7815553E-02  0.1125453E+00
         25   -1    0    0    0    0  0.00000000000E+00  0.00000000000E+00  0.99999998245E-14  0.12509000000E+03  0.12509000000E+03 0.  0.
        -11    1    3    3    0    0  0.16580481355E+02  0.34675421963E+02 -0.27332270853E+02  0.47163018145E+02  0.51100000000E-03 0.  1.
         23    2    1    0    0    0 -0.13051466039E+02  0.22736746741E+02  0.10649057322E+02  0.96793306907E+02  0.92564795803E+02 0.  0.
         11    1    3    3    0    0 -0.29631947394E+02 -0.11938675222E+02  0.37981328176E+02  0.49630288762E+02  0.51100000000E-03 0. -1.
         22    1    1    0    0    0  0.13051466039E+02 -0.22736746741E+02 -0.10649057322E+02  0.28296693093E+02  0.00000000000E+00 0. -1.
</event>
<event>
 5    1  0.1047411E-009  0.9118800E+02  0.7815553E-02  0.1125453E+00
         25   -1    0    0    0    0  0.00000000000E+00  0.00000000000E+00  0.99999998245E-14  0.12509000000E+03  0.12509000000E+03 0.  0.
        -11    1    3    3    0    0  0.13964882900E+02 -0.42196382581E+02 -0.29461276441E+02  0.53324660966E+02  0.51100000000E-03 0.  1.
         23    2    1    0    0    0  0.20124793880E+01 -0.36729120192E+02  0.28386984772E+01  0.88196415837E+02  0.80109120667E+02 0.  0.
         11    1    3    3    0    0 -0.11952403512E+02  0.54672623893E+01  0.32299974918E+02  0.34871754870E+02  0.51100000000E-03 0. -1.
         22    1    1    0    0    0 -0.20124793880E+01  0.36729120192E+02 -0.28386984772E+01  0.36893584163E+02  0.00000000000E+00 0.  1.
</event>
<event>
 5    1  0.1047411E-009  0.9118800E+02  0.7815553E-02  0.1125453E+00
         25   -1    0    0    0    0  0.00000000000E+00  0.00000000000E+00  0.99999998245E-14  0.12509000000E+03  0.12509000000E+03 0.  0.
        -11    1    3    3    0    0 -0.23192406841E+02 -0.16561511211E+02  0.51911413228E+02  0.59219643804E+02  0.51100000000E-03 0. -1.
         23    2    1    0    0    0 -0.65243119222E+01  0.54722075087E+01  0.28215504247E+02  0.95617531814E+02  0.90962003107E+02 0.  0.
         11    1    3    3    0    0  0.16668094919E+02  0.22033718720E+02 -0.23695908982E+02  0.36397888010E+02  0.51100000000E-03 0.  1.
         22    1    1    0    0    0  0.65243119222E+01 -0.54722075087E+01 -0.28215504247E+02  0.29472468186E+02  0.00000000000E+00 0. -1.
</event>
<event>
 5    1  0.1047411E-009  0.9118800E+02  0.7815553E-02  0.1125453E+00
         25   -1    0    0    0    0  0.00000000000E+00  0.00000000000E+00  0.99999998245E-14  0.12509000000E+03  0.12509000000E+03 0.  0.
        -11    1    3    3    0    0 -0.44476188161E+01  0.41852121695E+01 -0.55097952900E+02  0.55435383358E+02  0.51100000000E-03 0.  1.
         23    2    1    0    0    0 -0.82501856786E+01  0.21211428472E+02 -0.19335626431E+02  0.95226029885E+02  0.90422010908E+02 0.  0.
         11    1    3    3    0    0 -0.38025668626E+01  0.17026216303E+02  0.35762326469E+02  0.39790646527E+02  0.51100000000E-03 0. -1.
         22    1    1    0    0    0  0.82501856786E+01 -0.21211428472E+02  0.19335626431E+02  0.29863970115E+02  0.00000000000E+00 0.  1.
</event>
<event>
 5    1  0.1047411E-009  0.9118800E+02  0.7815553E-02  0.1125453E+00
         25   -1    0    0    0    0  0.00000000000E+00  0.00000000000E+00  0.99999998245E-14  0.12509000000E+03  0.12509000000E+03 0.  0.
        -11    1    3    3    0    0 -0.45249200590E+02  0.68613346718E+01  0.36329554652E+02  0.58432906901E+02  0.51100000000E-03 0.  1.
         23    2    1    0    0    0 -0.26928634183E+02  0.13016721756E+02  0.57125431555E+01  0.94639720305E+02  0.89607238133E+02 0.  0.
         11    1    3    3    0    0  0.18320566407E+02  0.61553870838E+01 -0.30617011496E+02  0.36206813404E+02  0.51100000000E-03 0. -1.
         22    1    1    0    0    0  0.26928634183E+02 -0.13016721756E+02 -0.57125431555E+01  0.30450279695E+02  0.00000000000E+00 0.  1.
</event>
<event>
 5    1  0.1047411E-009  0.9118800E+02  0.7815553E-02  0.1125453E+00
         25   -1    0    0    0    0  0.00000000000E+00  0.00000000000E+00  0.99999998245E-14  0.12509000000E+03  0.12509000000E+03 0.  0.
        -11    1    3    3    0    0  0.99901379707E+01  0.49770720296E+02  0.29917548669E+02  0.58923570615E+02  0.51100000000E-03 0.  1.
         23    2    1    0    0    0 -0.10270717624E+02  0.24586471689E+02  0.14853630019E+02  0.94584057048E+02  0.89529499564E+02 0.  0.
         11    1    3    3    0    0 -0.20260855595E+02 -0.25184248606E+02 -0.15063918649E+02  0.35660486433E+02  0.51100000000E-03 0. -1.
         22    1    1    0    0    0  0.10270717624E+02 -0.24586471689E+02 -0.14853630019E+02  0.30505942952E+02  0.00000000000E+00 0.  1.
</event>
<event>
 5    1  0.1047411E-009  0.9118800E+02  0.7815553E-02  0.1125453E+00
         25   -1    0    0    0    0  0.00000000000E+00  0.00000000000E+00  0.99999998245E-14  0.12509000000E+03  0.12509000000E+03 0.  0.
        -11    1    3    3    0    0 -0.38772423377E+02  0.20218482612E+01 -0.15891534918E+02  0.41951514481E+02  0.51100000000E-03 0.  1.
         23    2    1    0    0    0 -0.88339971049E+01 -0.14903175482E+02  0.24552261482E+02  0.95040745630E+02  0.90165323943E+02 0.  0.
         11    1    3    3    0    0  0.29938426272E+02 -0.16925023743E+02  0.40443796401E+02  0.53089231149E+02  0.51100000000E-03 0. -1.
         22    1    1    0    0    0  0.88339971049E+01  0.14903175482E+02 -0.24552261482E+02  0.30049254370E+02  0.00000000000E+00 0. -1.
</event>
<event>
 5    1  0.1047411E-009  0.9118800E+02  0.7815553E-02  0.1125453E+00
         25   -1    0    0    0    0  0.00000000000E+00  0.00000000000E+00  0.99999998245E-14  0.12509000000E+03  0.12509000000E+03 0.  0.
        -11    1    3    3    0    0 -0.19994071490E+01  0.13881168794E+01 -0.48037334561E+02  0.48098960586E+02  0.51100000000E-03 0. -1.
         23    2    1    0    0    0 -0.13590381280E+02 -0.24892352033E+02 -0.11717035962E+02  0.94404228300E+02  0.89277890523E+02 0.  0.
         11    1    3    3    0    0 -0.11590974131E+02 -0.26280468912E+02  0.36320298599E+02  0.46305267715E+02  0.51100000000E-03 0.  1.
         22    1    1    0    0    0  0.13590381280E+02  0.24892352033E+02  0.11717035962E+02  0.30685771700E+02  0.00000000000E+00 0.  1.
</event>
<event>
 5    1  0.1047411E-009  0.9118800E+02  0.7815553E-02  0.1125453E+00
         25   -1    0    0    0    0  0.00000000000E+00  0.00000000000E+00  0.99999998245E-14  0.12509000000E+03  0.12509000000E+03 0.  0.
        -11    1    3    3    0    0  0.35841723495E+02  0.31347272303E+02  0.11616086924E+01  0.47630137088E+02  0.51100000000E-03 0.  1.
         23    2    1    0    0    0  0.96771841715E+01 -0.30300884382E+01  0.25803456329E+02  0.97365503828E+02  0.93334846910E+02 0.  0.
         11    1    3    3    0    0 -0.26164539324E+02 -0.34377360742E+02  0.24641847637E+02  0.49735366741E+02  0.51100000000E-03 0. -1.
         22    1    1    0    0    0 -0.96771841715E+01  0.30300884382E+01 -0.25803456329E+02  0.27724496172E+02  0.00000000000E+00 0. -1.
</event>
<event>
 5    1  0.1047411E-009  0.9118800E+02  0.7815553E-02  0.1125453E+00
         25   -1    0    0    0    0  0.00000000000E+00  0.00000000000E+00  0.99999998245E-14  0.12509000000E+03  0.12509000000E+03 0.  0.
        -11    1    3    3    0    0  0.19422541272E+02 -0.29158945262E+02 -0.10022860836E+02  0.36440869060E+02  0.51100000000E-03 0. -1.
         23    2    1    0    0    0  0.53350725100E+01  0.21563668801E+02  0.18381027234E+02  0.96257432077E+02  0.91837771408E+02 0.  0.
         11    1    3    3    0    0 -0.14087468762E+02  0.50722614063E+02  0.28403888069E+02  0.59816563018E+02  0.51100000000E-03 0.  1.
         22    1    1    0    0    0 -0.53350725100E+01 -0.21563668801E+02 -0.18381027234E+02  0.28832567923E+02  0.00000000000E+00 0.  1.
</event>
<event>
 5    1  0.1047411E-009  0.9118800E+02  0.7815553E-02  0.1125453E+00
         25   -1    0    0    0    0  0.00000000000E+00  0.00000000000E+00  0.99999998245E-14  0.12509000000E+03  0.12509000000E+03 0.  0.
        -11    1    3    3    0    0 -0.97414359757E+01  0.85224883035E+01  0.21601820214E+02  0.25182672983E+02  0.51100000000E-03 0.  1.
         23    2    1    0    0    0  0.30917399428E+02 -0.16867673151E+02 -0.16289980452E+02  0.86285780538E+02  0.77067947132E+02 0.  0.
         11    1    3    3    0    0  0.40658835404E+02 -0.25390161454E+02 -0.37891800665E+02  0.61103107556E+02  0.51100000000E-03 0. -1.
         22    1    1    0    0    0 -0.30917399428E+02  0.16867673151E+02  0.16289980452E+02  0.38804219462E+02  0.00000000000E+00 0. -1.
</event>
<event>
 5    1  0.1047411E-009  0.9118800E+02  0.7815553E-02  0.1125453E+00
         25   -1    0    0    0    0  0.00000000000E+00  0.00000000000E+00  0.99999998245E-14  0.12509000000E+03  0.12509000000E+03 0.  0.
        -11    1    3    3    0    0 -0.32350141795E+01  0.47104864295E+02 -0.18330689432E+02  0.50649261912E+02  0.51100000000E-03 0. -1.
         23    2    1    0    0    0  0.11552946374E+02  0.65926444261E+01 -0.27320807154E+02  0.94703160184E+02  0.89695755278E+02 0.  0.
         11    1    3    3    0    0  0.14787960554E+02 -0.40512219868E+02 -0.89901177215E+01  0.44053898272E+02  0.51100000000E-03 0.  1.
         22    1    1    0    0    0 -0.11552946374E+02 -0.65926444261E+01  0.27320807154E+02  0.30386839816E+02  0.00000000000E+00 0.  1.
</event>
<event>
 5    1  0.1047411E-009  0.9118800E+02  0.7815553E-02  0.1125453E+00
         25   -1    0    0    0    0  0.00000000000E+00  0.00000000000E+00  0.99999998245E-14  0.12509000000E+03  0.12509000000E+03 0.  0.
        -11    1    3    3    0    0 -0.46325029774E+01 -0.10849674817E+02  0.34180265285E+02  0.36158900187E+02  0.51100000000E-03 0. -1.
         23    2    1    0    0    0  0.34746300653E+01  0.17178217395E+02 -0.20489592105E+02  0.98127292577E+02  0.94350293888E+02 0.  0.
         11    1    3    3    0    0  0.81071330428E+01  0.28027892212E+02 -0.54669857391E+02  0.61968392390E+02  0.51100000000E-03 0.  1.
         22    1    1    0    0    0 -0.34746300653E+01 -0.17178217395E+02  0.20489592105E+02  0.26962707423E+02  0.00000000000E+00 0.  1.
</event>
<event>
 5    1  0.1047411E-009  0.9118800E+02  0.7815553E-02  0.1125453E+00
         25   -1    0    0    0    0  0.00000000000E+00  0.00000000000E+00  0.99999998245E-14  0.12509000000E+03  0.12509000000E+03 0.  0.
        -11    1    3    3    0    0 -0.68421543724E+01  0.41083549362E+02  0.38937227205E+02  0.57015618626E+02  0.51100000000E-03 0.  1.
         23    2    1    0    0    0 -0.32350182680E+01  0.30514518387E+01  0.27980132057E+02  0.96758665907E+02  0.92517970885E+02 0.  0.
         11    1    3    3    0    0  0.36071361044E+01 -0.38032097523E+02 -0.10957095148E+02  0.39743047281E+02  0.51100000000E-03 0. -1.
         22    1    1    0    0    0  0.32350182680E+01 -0.30514518387E+01 -0.27980132057E+02  0.28331334093E+02  0.00000000000E+00 0.  1.
</event>
<event>
 5    1  0.1047411E-009  0.9118800E+02  0.7815553E-02  0.1125453E+00
         25   -1    0    0    0    0  0.00000000000E+00  0.00000000000E+00  0.99999998245E-14  0.12509000000E+03  0.12509000000E+03 0.  0.
        -11    1    3    3    0    0  0.24357514250E+02 -0.91123665530E+01 -0.17344946020E+02  0.31259732522E+02  0.51100000000E-03 0.  1.
         23    2    1    0    0    0 -0.23613564147E+02  0.13778438062E+02  0.15421975804E+02  0.93700780436E+02  0.88286766559E+02 0.  0.
         11    1    3    3    0    0 -0.47971078397E+02  0.22890804615E+02  0.32766921824E+02  0.62441047914E+02  0.51100000000E-03 0. -1.
         22    1    1    0    0    0  0.23613564147E+02 -0.13778438062E+02 -0.15421975804E+02  0.31389219564E+02  0.00000000000E+00 0. -1.
</event>
<event>
 5    1  0.1047411E-009  0.9118800E+02  0.7815553E-02  0.1125453E+00
         25   -1    0    0    0    0  0.00000000000E+00  0.00000000000E+00  0.99999998245E-14  0.12509000000E+03  0.12509000000E+03 0.  0.
        -11    1    3    3    0    0  0.12823966930E+02  0.18796940314E+02  0.29311487888E+02  0.37107174717E+02  0.51100000000E-03 0.  1.
         23    2    1    0    0    0 -0.33785039431E+01 -0.60030181414E+01 -0.25100978812E+02  0.99060984402E+02  0.95580170420E+02 0.  0.
         11    1    3    3    0    0 -0.16202470873E+02 -0.24799958456E+02 -0.54412466700E+02  0.61953809685E+02  0.51100000000E-03 0. -1.
         22    1    1    0    0    0  0.33785039431E+01  0.60030181414E+01  0.25100978812E+02  0.26029015598E+02  0.00000000000E+00 0. -1.
</event>
<event>
 5    1  0.1047411E-009  0.9118800E+02  0.7815553E-02  0.1125453E+00
         25   -1    0    0    0    0  0.00000000000E+00  0.00000000000E+00  0.99999998245E-14  0.12509000000E+03  0.12509000000E+03 0.  0.
        -11    1    3    3    0    0  0.68435143618E+01  0.26899613594E+02  0.26769427673E+02  0.38561965180E+02  0.51100000000E-03 0.  1.
         23    2    1    0    0    0  0.20822404114E+02 -0.22074497397E+02  0.35428276419E+01  0.94538280308E+02  0.89465517757E+02 0.  0.
         11    1    3    3    0    0  0.13978889752E+02 -0.48974110991E+02 -0.23226600031E+02  0.55976315128E+02  0.51100000000E-03 0. -1.
         22    1    1    0    0    0 -0.20822404114E+02  0.22074497397E+02 -0.35428276419E+01  0.30551719692E+02  0.00000000000E+00 0. -1.
</event>
<event>
 5    1  0.1047411E-009  0.9118800E+02  0.7815553E-02  0.1125453E+00
         25   -1    0    0    0    0  0.00000000000E+00  0.00000000000E+00  0.99999998245E-14  0.12509000000E+03  0.12509000000E+03 0.  0.
        -11    1    3    3    0    0  0.30379940063E+02  0.38376982220E+02 -0.10133872960E+02  0.49984286571E+02  0.51100000000E-03 0.  1.
         23    2    1    0    0    0 -0.13003146498E+02  0.24070289433E+02 -0.10818432559E+02  0.95670633329E+02  0.91034998470E+02 0.  0.
         11    1    3    3    0    0 -0.43383086561E+02 -0.14306692787E+02 -0.68455959921E+00  0.45686346759E+02  0.51100000000E-03 0. -1.
         22    1    1    0    0    0  0.13003146498E+02 -0.24070289433E+02  0.10818432559E+02  0.29419366671E+02  0.00000000000E+00 0.  1.
</event>
<event>
 5    1  0.1047411E-009  0.9118800E+02  0.7815553E-02  0.1125453E+00
         25   -1    0    0    0    0  0.00000000000E+00  0.00000000000E+00  0.99999998245E-14  0.12509000000E+03  0.12509000000E+03 0.  0.
        -11    1    3    3    0    0 -0.34574121882E+02  0.41369391187E+02 -0.30724046890E+02  0.62054520292E+02  0.51100000000E-03 0.  1.
         23    2    1    0    0    0 -0.13057617276E+02  0.22896677338E+02 -0.11393458982E+02  0.96374671173E+02  0.91997321342E+02 0.  0.
         11    1    3    3    0    0  0.21516504606E+02 -0.18472713849E+02  0.19330587908E+02  0.34320150881E+02  0.51100000000E-03 0. -1.
         22    1    1    0    0    0  0.13057617276E+02 -0.22896677338E+02  0.11393458982E+02  0.28715328827E+02  0.00000000000E+00 0.  1.
</event>
<event>
 5    1  0.1047411E-009  0.9118800E+02  0.7815553E-02  0.1125453E+00
         25   -1    0    0    0    0  0.00000000000E+00  0.00000000000E+00  0.99999998245E-14  0.12509000000E+03  0.12509000000E+03 0.  0.
        -11    1    3    3    0    0 -0.28616969121E+02 -0.42781563275E+02 -0.11644690059E+02  0.52771127378E+02  0.51100000000E-03 0. -1.
         23    2    1    0    0    0 -0.20391330840E+02  0.23879480000E+01  0.84499781297E+01  0.10288840547E+03  0.10046448717E+03 0.  0.
         11    1    3    3    0    0  0.82256382813E+01  0.45169511275E+02  0.20094668189E+02  0.50117278097E+02  0.51100000000E-03 0.  1.
         22    1    1    0    0    0  0.20391330840E+02 -0.23879480000E+01 -0.84499781297E+01  0.22201594525E+02  0.00000000000E+00 0. -1.
</event>
<event>
 5    1  0.1047411E-009  0.9118800E+02  0.7815553E-02  0.1125453E+00
         25   -1    0    0    0    0  0.00000000000E+00  0.00000000000E+00  0.99999998245E-14  0.12509000000E+03  0.12509000000E+03 0.  0.
        -11    1    3    3    0    0  0.29984048066E+02  0.32631644520E+02  0.42754413763E+02  0.61577652269E+02  0.51100000000E-03 0.  1.
         23    2    1    0    0    0  0.81038767067E+01  0.20276372666E+02  0.20258434776E+02  0.95303958206E+02  0.90529752921E+02 0.  0.
         11    1    3    3    0    0 -0.21880171359E+02 -0.12355271854E+02 -0.22495978987E+02  0.33726305937E+02  0.51100000000E-03 0. -1.
         22    1    1    0    0    0 -0.81038767067E+01 -0.20276372666E+02 -0.20258434776E+02  0.29786041794E+02  0.00000000000E+00 0.  1.
</event>
<event>
 5    1  0.1047411E-009  0.9118800E+02  0.7815553E-02  0.1125453E+00
         25   -1    0    0    0    0  0.00000000000E+00  0.00000000000E+00  0.99999998245E-14  0.12509000000E+03  0.12509000000E+03 0.  0.
        -11    1    3    3    0    0 -0.21685748740E+01  0.19917720851E+01  0.35776441479E+02  0.35897404338E+02  0.51100000000E-03 0. -1.
         23    2    1    0    0    0 -0.17429293835E+02 -0.19804224702E+02 -0.16088905337E+02  0.94189506888E+02  0.88976529114E+02 0.  0.
         11    1    3    3    0    0 -0.15260718961E+02 -0.21795996788E+02 -0.51865346816E+02  0.58292102550E+02  0.51100000000E-03 0.  1.
         22    1    1    0    0    0  0.17429293835E+02  0.19804224702E+02  0.16088905337E+02  0.30900493112E+02  0.00000000000E+00 0.  1.
</event>
<event>
 5    1  0.1047411E-009  0.9118800E+02  0.7815553E-02  0.1125453E+00
         25   -1    0    0    0    0  0.00000000000E+00  0.00000000000E+00  0.99999998245E-14  0.12509000000E+03  0.12509000000E+03 0.  0.
        -11    1    3    3    0    0  0.11968410583E+00  0.34736294152E+02  0.32967204558E+01  0.34892589783E+02  0.51100000000E-03 0.  1.
         23    2    1    0    0    0  0.18807003874E+02 -0.22795410649E+02  0.30203960924E+01  0.95383823303E+02  0.90640039795E+02 0.  0.
         11    1    3    3    0    0  0.18687319769E+02 -0.57531704801E+02 -0.27632436334E+00  0.60491233521E+02  0.51100000000E-03 0. -1.
         22    1    1    0    0    0 -0.18807003874E+02  0.22795410649E+02 -0.30203960924E+01  0.29706176697E+02  0.00000000000E+00 0. -1.
</event>
<event>
 5    1  0.1047411E-009  0.9118800E+02  0.7815553E-02  0.1125453E+00
         25   -1    0    0    0    0  0.00000000000E+00  0.00000000000E+00  0.99999998245E-14  0.12509000000E+03  0.12509000000E+03 0.  0.
        -11    1    3    3    0    0  0.19285642820E+02 -0.25788815768E+01  0.46003145546E+02  0.49948734214E+02  0.51100000000E-03 0. -1.
         23    2    1    0    0    0  0.10230892283E+02  0.24562996628E+02  0.84257729377E+01  0.97179328030E+02  0.93084994422E+02 0.  0.
         11    1    3    3    0    0 -0.90547505369E+01  0.27141878204E+02 -0.37577372609E+02  0.47230593816E+02  0.51100000000E-03 0.  1.
         22    1    1    0    0    0 -0.10230892283E+02 -0.24562996628E+02 -0.84257729377E+01  0.27910671970E+02  0.00000000000E+00 0. -1.
</event>
<event>
 5    1  0.1047411E-009  0.9118800E+02  0.7815553E-02  0.1125453E+00
         25   -1    0    0    0    0  0.00000000000E+00  0.00000000000E+00  0.99999998245E-14  0.12509000000E+03  0.12509000000E+03 0.  0.
        -11    1    3    3    0    0 -0.34838177182E+02  0.13372746304E+02  0.99517801273E+01  0.38620808653E+02  0.51100000000E-03 0.  1.
         23    2    1    0    0    0  0.18277501959E+02  0.20690890925E+02 -0.98498137990E+01  0.95777905619E+02  0.91182280777E+02 0.  0.
         11    1    3    3    0    0  0.53115679141E+02  0.73181446207E+01 -0.19801593926E+02  0.57157096966E+02  0.51100000000E-03 0. -1.
         22    1    1    0    0    0 -0.18277501959E+02 -0.20690890925E+02  0.98498137990E+01  0.29312094381E+02  0.00000000000E+00 0. -1.
</event>
<event>
 5    1  0.1047411E-009  0.9118800E+02  0.7815553E-02  0.1125453E+00
         25   -1    0    0    0    0  0.00000000000E+00  0.00000000000E+00  0.99999998245E-14  0.12509000000E+03  0.12509000000E+03 0.  0.
        -11    1    3    3    0    0 -0.19932730447E+02 -0.60170575478E+01 -0.37977324972E+02  0.43310459902E+02  0.51100000000E-03 0.  1.
         23    2    1    0    0    0  0.23699113645E+02  0.86303665980E+01 -0.20665076174E+02  0.92483611232E+02  0.86545027345E+02 0.  0.
         11    1    3    3    0    0  0.43631844093E+02  0.14647424146E+02  0.17312248798E+02  0.49173151330E+02  0.51100000000E-03 0. -1.
         22    1    1    0    0    0 -0.23699113645E+02 -0.86303665980E+01  0.20665076174E+02  0.32606388768E+02  0.00000000000E+00 0.  1.
</event>
<event>
 5    1  0.1047411E-009  0.9118800E+02  0.7815553E-02  0.1125453E+00
         25   -1    0    0    0    0  0.00000000000E+00  0.00000000000E+00  0.99999998245E-14  0.12509000000E+03  0.12509000000E+03 0.  0.
        -11    1    3    3    0    0  0.52682617173E+02  0.30780795466E+02 -0.32495208666E+01  0.61102167784E+02  0.51100000000E-03 0.  1.
         23    2    1    0    0    0  0.29872824068E+02  0.76095322107E+01 -0.58218550720E+01  0.93718283523E+02  0.88311562503E+02 0.  0.
         11    1    3    3    0    0 -0.22809793106E+02 -0.23171263256E+02 -0.25723342054E+01  0.32616115739E+02  0.51100000000E-03 0. -1.
         22    1    1    0    0    0 -0.29872824068E+02 -0.76095322107E+01  0.58218550720E+01  0.31371716477E+02  0.00000000000E+00 0.  1.
</event>
<event>
 5    1  0.1047411E-009  0.9118800E+02  0.7815553E-02  0.1125453E+00
         25   -1    0    0    0    0  0.00000000000E+00  0.00000000000E+00  0.99999998245E-14  0.12509000000E+03  0.12509000000E+03 0.  0.
        -11    1    3    3    0    0  0.32416418170E+02  0.43305691574E+02 -0.37050191731E+01  0.54221160602E+02  0.51100000000E-03 0. -1.
         23    2    1    0    0    0  0.45347285008E+01  0.18691116997E+02 -0.22165797912E+02  0.95743037393E+02  0.91134433641E+02 0.  0.
         11    1    3    3    0    0 -0.27881689669E+02 -0.24614574577E+02 -0.18460778739E+02  0.41521876792E+02  0.51100000000E-03 0.  1.
         22    1    1    0    0    0 -0.45347285008E+01 -0.18691116997E+02  0.22165797912E+02  0.29346962607E+02  0.00000000000E+00 0. -1.
</event>
<event>
 5    1  0.1047411E-009  0.9118800E+02  0.7815553E-02  0.1125453E+00
         25   -1    0    0    0    0  0.00000000000E+00  0.00000000000E+00  0.99999998245E-14  0.12509000000E+03  0.12509000000E+03 0.  0.
        -11    1    3    3    0    0 -0.24771006158E+02 -0.24073969775E+02  0.23914976627E+02  0.42012913183E+02  0.51100000000E-03 0.  1.
         23    2    1    0    0    0 -0.91749960045E+01 -0.88814086694E+01 -0.25808990974E+02  0.96294792295E+02  0.91888644764E+02 0.  0.
         11    1    3    3    0    0  0.15596010154E+02  0.15192561105E+02 -0.49723967602E+02  0.54281879112E+02  0.51100000000E-03 0. -1.
         22    1    1    0    0    0  0.91749960045E+01  0.88814086694E+01  0.25808990974E+02  0.28795207705E+02  0.00000000000E+00 0. -1.
</event>
<event>
 5    1  0.1047411E-009  0.9118800E+02  0.7815553E-02  0.1125453E+00
         25   -1    0    0    0    0  0.00000000000E+00  0.00000000000E+00  0.99999998245E-14  0.12509000000E+03  0.12509000000E+03 0.  0.
        -11    1    3    3    0    0 -0.52855126008E+02 -0.34814071626E+01 -0.59271952916E+01  0.53300245642E+02  0.51100000000E-03 0.  1.
         23    2    1    0    0    0 -0.18788549563E+02  0.19237205852E+02 -0.13594109566E+02  0.94958961210E+02  0.90051789629E+02 0.  0.
         11    1    3    3    0    0  0.34066576445E+02  0.22718613015E+02 -0.76669142749E+01  0.41658715568E+02  0.51100000000E-03 0. -1.
         22    1    1    0    0    0  0.18788549563E+02 -0.19237205852E+02  0.13594109566E+02  0.30131038790E+02  0.00000000000E+00 0.  1.
</event>
<event>
 5    1  0.1047411E-009  0.9118800E+02  0.7815553E-02  0.1125453E+00
         25   -1    0    0    0    0  0.00000000000E+00  0.00000000000E+00  0.99999998245E-14  0.12509000000E+03  0.12509000000E+03 0.  0.
        -11    1    3    3    0    0  0.32934506397E+02  0.46706987356E+02  0.11824534528E+02  0.58361322779E+02  0.51100000000E-03 0. -1.
         23    2    1    0    0    0  0.58903055213E+01  0.27088632646E+02 -0.67089111897E+01  0.96568092505E+02  0.92259944087E+02 0.  0.
         11    1    3    3    0    0 -0.27044200875E+02 -0.19618354709E+02 -0.18533445718E+02  0.38206769726E+02  0.51100000000E-03 0.  1.
         22    1    1    0    0    0 -0.58903055213E+01 -0.27088632646E+02  0.67089111897E+01  0.28521907495E+02  0.00000000000E+00 0. -1.
</event>
<event>
 5    1  0.1047411E-009  0.9118800E+02  0.7815553E-02  0.1125453E+00
         25   -1    0    0    0    0  0.00000000000E+00  0.00000000000E+00  0.99999998245E-14  0.12509000000E+03  0.12509000000E+03 0.  0.
        -11    1    3    3    0    0  0.10752898613E+02  0.87845754167E+01 -0.60076703388E+02  0.61660391534E+02  0.51100000000E-03 0.  1.
         23    2    1    0    0    0 -0.37279271262E+00  0.90118058146E+01 -0.31390882357E+02  0.92429027670E+02  0.86466097647E+02 0.  0.
         11    1    3    3    0    0 -0.11125691326E+02  0.22723039787E+00  0.28685821032E+02  0.30768636136E+02  0.51100000000E-03 0. -1.
         22    1    1    0    0    0  0.37279271262E+00 -0.90118058146E+01  0.31390882357E+02  0.32660972330E+02  0.00000000000E+00 0.  1.
</event>
<event>
 5    1  0.1047411E-009  0.9118800E+02  0.7815553E-02  0.1125453E+00
         25   -1    0    0    0    0  0.00000000000E+00  0.00000000000E+00  0.99999998245E-14  0.12509000000E+03  0.12509000000E+03 0.  0.
        -11    1    3    3    0    0  0.75860100990E+01 -0.29258748193E+02 -0.15717433764E+02  0.34068454902E+02  0.51100000000E-03 0. -1.
         23    2    1    0    0    0 -0.99305660524E+01  0.21952938925E+02  0.15394114484E+02  0.96497580894E+02  0.92164291828E+02 0.  0.
         11    1    3    3    0    0 -0.17516576151E+02  0.51211687118E+02  0.31111548248E+02  0.62429125992E+02  0.51100000000E-03 0.  1.
         22    1    1    0    0    0  0.99305660524E+01 -0.21952938925E+02 -0.15394114484E+02  0.28592419106E+02  0.00000000000E+00 0.  1.
</event>
<event>
 5    1  0.1047411E-009  0.9118800E+02  0.7815553E-02  0.1125453E+00
         25   -1    0    0    0    0  0.00000000000E+00  0.00000000000E+00  0.99999998245E-14  0.12509000000E+03  0.12509000000E+03 0.  0.
        -11    1    3    3    0    0  0.46121742932E+02 -0.94216080889E+01  0.10973708395E+02  0.48336364637E+02  0.51100000000E-03 0.  1.
         23    2    1    0    0    0  0.17438531202E+02  0.24272947798E+02  0.12690695747E+02  0.92619519193E+02  0.86741242853E+02 0.  0.
         11    1    3    3    0    0 -0.28683211730E+02  0.33694555887E+02  0.17169873522E+01  0.44283154556E+02  0.51100000000E-03 0. -1.
         22    1    1    0    0    0 -0.17438531202E+02 -0.24272947798E+02 -0.12690695747E+02  0.32470480807E+02  0.00000000000E+00 0.  1.
</event>
<event>
 5    1  0.1047411E-009  0.9118800E+02  0.7815553E-02  0.1125453E+00
         25   -1    0    0    0    0  0.00000000000E+00  0.00000000000E+00  0.99999998245E-14  0.12509000000E+03  0.12509000000E+03 0.  0.
        -11    1    3    3    0    0  0.69171291601E+01  0.33475280304E+02  0.20857188448E+02  0.40043268815E+02  0.51100000000E-03 0. -1.
         23    2    1    0    0    0  0.44321996447E+01 -0.22403307497E+02  0.17932243600E+02  0.96053506736E+02  0.91559588331E+02 0.  0.
         11    1    3    3    0    0 -0.24849295154E+01 -0.55878587801E+02 -0.29249448476E+01  0.56010237921E+02  0.51100000000E-03 0.  1.
         22    1    1    0    0    0 -0.44321996447E+01  0.22403307497E+02 -0.17932243600E+02  0.29036493264E+02  0.00000000000E+00 0.  1.
</event>
<event>
 5    1  0.1047411E-009  0.9118800E+02  0.7815553E-02  0.1125453E+00
         25   -1    0    0    0    0  0.00000000000E+00  0.00000000000E+00  0.99999998245E-14  0.12509000000E+03  0.12509000000E+03 0.  0.
        -11    1    3    3    0    0  0.97886839213E+01 -0.13992138947E+01  0.38494567236E+02  0.39744280587E+02  0.51100000000E-03 0.  1.
         23    2    1    0    0    0 -0.28108466588E+02 -0.83831074317E+01 -0.20579062034E+01  0.95685963507E+02  0.91056061029E+02 0.  0.
         11    1    3    3    0    0 -0.37897150509E+02 -0.69838935371E+01 -0.40552473439E+02  0.55941682920E+02  0.51100000000E-03 0. -1.
         22    1    1    0    0    0  0.28108466588E+02  0.83831074317E+01  0.20579062034E+01  0.29404036493E+02  0.00000000000E+00 0. -1.
</event>
<event>
 5    1  0.1047411E-009  0.9118800E+02  0.7815553E-02  0.1125453E+00
         25   -1    0    0    0    0  0.00000000000E+00  0.00000000000E+00  0.99999998245E-14  0.12509000000E+03  0.12509000000E+03 0.  0.
        -11    1    3    3    0    0 -0.58750009818E+02 -0.18180405594E+02 -0.82201601546E+01  0.62045643154E+02  0.51100000000E-03 0.  1.
         23    2    1    0    0    0 -0.28854196239E+02 -0.32502641832E+01 -0.51155284968E+01  0.95606148663E+02  0.90946347769E+02 0.  0.
         11    1    3    3    0    0  0.29895813578E+02  0.14930141410E+02  0.31046316578E+01  0.33560505509E+02  0.51100000000E-03 0. -1.
         22    1    1    0    0    0  0.28854196239E+02  0.32502641832E+01  0.51155284968E+01  0.29483851337E+02  0.00000000000E+00 0.  1.
</event>
<event>
 5    1  0.1047411E-009  0.9118800E+02  0.7815553E-02  0.1125453E+00
         25   -1    0    0    0    0  0.00000000000E+00  0.00000000000E+00  0.99999998245E-14  0.12509000000E+03  0.12509000000E+03 0.  0.
        -11    1    3    3    0    0  0.26089545411E+02 -0.22014452664E+02  0.38684826976E+01  0.34354994753E+02  0.51100000000E-03 0.  1.
         23    2    1    0    0    0 -0.19372683683E+02  0.20538598534E+02  0.36168945726E+01  0.96625692014E+02  0.92338006952E+02 0.  0.
         11    1    3    3    0    0 -0.45462229094E+02  0.42553051198E+02 -0.25158812491E+00  0.62270697260E+02  0.51100000000E-03 0. -1.
         22    1    1    0    0    0  0.19372683683E+02 -0.20538598534E+02 -0.36168945726E+01  0.28464307986E+02  0.00000000000E+00 0. -1.
</event>
<event>
 5    1  0.1047411E-009  0.9118800E+02  0.7815553E-02  0.1125453E+00
         25   -1    0    0    0    0  0.00000000000E+00  0.00000000000E+00  0.99999998245E-14  0.12509000000E+03  0.12509000000E+03 0.  0.
        -11    1    3    3    0    0  0.28946969102E+02 -0.22077661595E+01  0.25272592300E+02  0.38490325713E+02  0.51100000000E-03 0. -1.
         23    2    1    0    0    0  0.42737570638E+01  0.61560248687E+01 -0.27093571728E+02  0.96979089830E+02  0.92815519142E+02 0.  0.
         11    1    3    3    0    0 -0.24673212038E+02  0.83637910282E+01 -0.52366164028E+02  0.58488764117E+02  0.51100000000E-03 0.  1.
         22    1    1    0    0    0 -0.42737570638E+01 -0.61560248687E+01  0.27093571728E+02  0.28110910170E+02  0.00000000000E+00 0.  1.
</event>
<event>
 5    1  0.1047411E-009  0.9118800E+02  0.7815553E-02  0.1125453E+00
         25   -1    0    0    0    0  0.00000000000E+00  0.00000000000E+00  0.99999998245E-14  0.12509000000E+03  0.12509000000E+03 0.  0.
        -11    1    3    3    0    0 -0.19063353992E+02 -0.21173825838E+02 -0.21697696169E+02  0.35812461314E+02  0.51100000000E-03 0.  1.
         23    2    1    0    0    0  0.22865896262E+02 -0.10377835569E+02  0.17713412591E+02  0.94360312911E+02  0.89216338101E+02 0.  0.
         11    1    3    3    0    0  0.41929250254E+02  0.10795990269E+02  0.39411108760E+02  0.58547851598E+02  0.51100000000E-03 0. -1.
         22    1    1    0    0    0 -0.22865896262E+02  0.10377835569E+02 -0.17713412591E+02  0.30729687089E+02  0.00000000000E+00 0. -1.
</event>
<event>
 5    1  0.1047411E-009  0.9118800E+02  0.7815553E-02  0.1125453E+00
         25   -1    0    0    0    0  0.00000000000E+00  0.00000000000E+00  0.99999998245E-14  0.12509000000E+03  0.12509000000E+03 0.  0.
        -11    1    3    3    0    0 -0.39202808372E+01  0.21036514448E+02  0.54725401828E+02  0.58760302480E+02  0.51100000000E-03 0.  1.
         23    2    1    0    0    0 -0.51275076364E+01  0.22045325632E+02  0.16348646603E+02  0.97169291511E+02  0.93071506114E+02 0.  0.
         11    1    3    3    0    0 -0.12072267991E+01  0.10088111838E+01 -0.38376755225E+02  0.38408989032E+02  0.51100000000E-03 0. -1.
         22    1    1    0    0    0  0.51275076364E+01 -0.22045325632E+02 -0.16348646603E+02  0.27920708489E+02  0.00000000000E+00 0.  1.
</event>
<event>
 5    1  0.1047411E-009  0.9118800E+02  0.7815553E-02  0.1125453E+00
         25   -1    0    0    0    0  0.00000000000E+00  0.00000000000E+00  0.99999998245E-14  0.12509000000E+03  0.12509000000E+03 0.  0.
        -11    1    3    3    0    0  0.11022440961E+02 -0.41444887637E+02 -0.44001158440E+02  0.61443265378E+02  0.51100000000E-03 0.  1.
         23    2    1    0    0    0 -0.10622412539E+01 -0.24661857715E+02 -0.18697090858E+02  0.94123618407E+02  0.88883849787E+02 0.  0.
         11    1    3    3    0    0 -0.12084682215E+02  0.16783029922E+02  0.25304067582E+02  0.32680353029E+02  0.51100000000E-03 0. -1.
         22    1    1    0    0    0  0.10622412539E+01  0.24661857715E+02  0.18697090858E+02  0.30966381593E+02  0.00000000000E+00 0.  1.
</event>
<event>
 5    1  0.1047411E-009  0.9118800E+02  0.7815553E-02  0.1125453E+00
         25   -1    0    0    0    0  0.00000000000E+00  0.00000000000E+00  0.99999998245E-14  0.12509000000E+03  0.12509000000E+03 0.  0.
        -11    1    3    3    0    0 -0.84682163089E+01 -0.23630081019E+02 -0.20061285785E+02  0.32133263203E+02  0.51100000000E-03 0. -1.
         23    2    1    0    0    0  0.54561407378E+01 -0.24975581793E+02  0.30903401290E+02  0.84983025931E+02  0.74923596600E+02 0.  0.
         11    1    3    3    0    0  0.13924357047E+02 -0.13455007735E+01  0.50964687076E+02  0.52849762729E+02  0.51100000000E-03 0.  1.
         22    1    1    0    0    0 -0.54561407378E+01  0.24975581793E+02 -0.30903401290E+02  0.40106974069E+02  0.00000000000E+00 0.  1.
</event>
<event>
 5    1  0.1047411E-009  0.9118800E+02  0.7815553E-02  0.1125453E+00
         25   -1    0    0    0    0  0.00000000000E+00  0.00000000000E+00  0.99999998245E-14  0.12509000000E+03  0.12509000000E+03 0.  0.
        -11    1    3    3    0    0 -0.77834347466E+01  0.18134401375E+02  0.42612193478E+02  0.46959955313E+02  0.51100000000E-03 0. -1.
         23    2    1    0    0    0 -0.20838318124E+02  0.16957798588E+02 -0.62134662810E+01  0.97514474649E+02  0.93534288727E+02 0.  0.
         11    1    3    3    0    0 -0.13054883377E+02 -0.11766027870E+01 -0.48825659759E+02  0.50554519336E+02  0.51100000000E-03 0.  1.
         22    1    1    0    0    0  0.20838318124E+02 -0.16957798588E+02  0.62134662810E+01  0.27575525351E+02  0.00000000000E+00 0. -1.
</event>
<event>
 5    1  0.1047411E-009  0.9118800E+02  0.7815553E-02  0.1125453E+00
         25   -1    0    0    0    0  0.00000000000E+00  0.00000000000E+00  0.99999998245E-14  0.12509000000E+03  0.12509000000E+03 0.  0.
        -11    1    3    3    0    0  0.50030634114E+02  0.14406865623E+02 -0.12655144859E+02  0.53579611968E+02  0.51100000000E-03 0. -1.
         23    2    1    0    0    0  0.10566794594E+02  0.17310688453E+02 -0.22945503587E+02  0.94466263821E+02  0.89364768128E+02 0.  0.
         11    1    3    3    0    0 -0.39463839520E+02  0.29038228306E+01 -0.10290358728E+02  0.40886651853E+02  0.51100000000E-03 0.  1.
         22    1    1    0    0    0 -0.10566794594E+02 -0.17310688453E+02  0.22945503587E+02  0.30623736179E+02  0.00000000000E+00 0. -1.
</event>
<event>
 5    1  0.1047411E-009  0.9118800E+02  0.7815553E-02  0.1125453E+00
         25   -1    0    0    0    0  0.00000000000E+00  0.00000000000E+00  0.99999998245E-14  0.12509000000E+03  0.12509000000E+03 0.  0.
        -11    1    3    3    0    0  0.15994900698E+02 -0.10246815845E+02 -0.29708942657E+02  0.35262662369E+02  0.51100000000E-03 0. -1.
         23    2    1    0    0    0 -0.29999996913E+02  0.50541492461E+01  0.41432001424E+01  0.94386411500E+02  0.89252923364E+02 0.  0.
         11    1    3    3    0    0 -0.45994897610E+02  0.15300965091E+02  0.33852142800E+02  0.59123749131E+02  0.51100000000E-03 0.  1.
         22    1    1    0    0    0  0.29999996913E+02 -0.50541492461E+01 -0.41432001424E+01  0.30703588500E+02  0.00000000000E+00 0.  1.
</event>
<event>
 5    1  0.1047411E-009  0.9118800E+02  0.7815553E-02  0.1125453E+00
         25   -1    0    0    0    0  0.00000000000E+00  0.00000000000E+00  0.99999998245E-14  0.12509000000E+03  0.12509000000E+03 0.  0.
        -11    1    3    3    0    0  0.52628869756E+02 -0.41223110602E+01 -0.82721341969E+01  0.53434254788E+02  0.51100000000E-03 0.  1.
         23    2    1    0    0    0  0.98604144260E-01 -0.64458587651E+01  0.13332048268E+02  0.11028114019E+03  0.10928232955E+03 0.  0.
         11    1    3    3    0    0 -0.52530265612E+02 -0.23235477049E+01  0.21604182465E+02  0.56846885398E+02  0.51100000000E-03 0. -1.
         22    1    1    0    0    0 -0.98604144260E-01  0.64458587651E+01 -0.13332048268E+02  0.14808859815E+02  0.00000000000E+00 0. -1.
</event>
<event>
 5    1  0.1047411E-009  0.9118800E+02  0.7815553E-02  0.1125453E+00
         25   -1    0    0    0    0  0.00000000000E+00  0.00000000000E+00  0.99999998245E-14  0.12509000000E+03  0.12509000000E+03 0.  0.
        -11    1    3    3    0    0 -0.16471121965E+02  0.25567277440E+02 -0.12160542339E+02  0.32754577157E+02  0.51100000000E-03 0.  1.
         23    2    1    0    0    0  0.79191090044E+01 -0.14371132052E+02  0.26812597797E+02  0.93655033410E+02  0.88221925611E+02 0.  0.
         11    1    3    3    0    0  0.24390230970E+02 -0.39938409492E+02  0.38973140137E+02  0.60900456253E+02  0.51100000000E-03 0. -1.
         22    1    1    0    0    0 -0.79191090044E+01  0.14371132052E+02 -0.26812597797E+02  0.31434966590E+02  0.00000000000E+00 0. -1.
</event>
<event>
 5    1  0.1047411E-009  0.9118800E+02  0.7815553E-02  0.1125453E+00
         25   -1    0    0    0    0  0.00000000000E+00  0.00000000000E+00  0.99999998245E-14  0.12509000000E+03  0.12509000000E+03 0.  0.
        -11    1    3    3    0    0 -0.37912979660E+01 -0.32266143773E+02  0.49645195562E+02  0.59330627983E+02  0.51100000000E-03 0.  1.
         23    2    1    0    0    0  0.65556206950E+00 -0.26029869655E+02  0.14528589783E+02  0.95272827147E+02  0.90486727179E+02 0.  0.
         11    1    3    3    0    0  0.44468600355E+01  0.62362741179E+01 -0.35116605779E+02  0.35942199164E+02  0.51100000000E-03 0. -1.
         22    1    1    0    0    0 -0.65556206950E+00  0.26029869655E+02 -0.14528589783E+02  0.29817172853E+02  0.00000000000E+00 0.  1.
</event>
<event>
 5    1  0.1047411E-009  0.9118800E+02  0.7815553E-02  0.1125453E+00
         25   -1    0    0    0    0  0.00000000000E+00  0.00000000000E+00  0.99999998245E-14  0.12509000000E+03  0.12509000000E+03 0.  0.
        -11    1    3    3    0    0  0.39003198101E+02  0.18826841132E+02  0.10134654016E+02  0.44479328023E+02  0.51100000000E-03 0.  1.
         23    2    1    0    0    0  0.15824862962E+01  0.17105391665E+02 -0.24279526690E+02  0.95347873257E+02  0.90590412470E+02 0.  0.
         11    1    3    3    0    0 -0.37420711805E+02 -0.17214494672E+01 -0.34414180707E+02  0.50868545234E+02  0.51100000000E-03 0. -1.
         22    1    1    0    0    0 -0.15824862962E+01 -0.17105391665E+02  0.24279526690E+02  0.29742126743E+02  0.00000000000E+00 0. -1.
</event>
<event>
 5    1  0.1047411E-009  0.9118800E+02  0.7815553E-02  0.1125453E+00
         25   -1    0    0    0    0  0.00000000000E+00  0.00000000000E+00  0.99999998245E-14  0.12509000000E+03  0.12509000000E+03 0.  0.
        -11    1    3    3    0    0  0.13296761921E+02 -0.31024095859E+01 -0.35001814902E+02  0.37570678321E+02  0.51100000000E-03 0.  1.
         23    2    1    0    0    0  0.15841637277E+02  0.73425455789E+01  0.22804780030E+02  0.96368432504E+02  0.91988838148E+02 0.  0.
         11    1    3    3    0    0  0.25448753563E+01  0.10444955165E+02  0.57806594932E+02  0.58797754183E+02  0.51100000000E-03 0. -1.
         22    1    1    0    0    0 -0.15841637277E+02 -0.73425455789E+01 -0.22804780030E+02  0.28721567496E+02  0.00000000000E+00 0. -1.
</event>
<event>
 5    1  0.1047411E-009  0.9118800E+02  0.7815553E-02  0.1125453E+00
         25   -1    0    0    0    0  0.00000000000E+00  0.00000000000E+00  0.99999998245E-14  0.12509000000E+03  0.12509000000E+03 0.  0.
        -11    1    3    3    0    0  0.33527585953E+02 -0.10884183235E+02 -0.24611789023E+02  0.42991913469E+02  0.51100000000E-03 0.  1.
         23    2    1    0    0    0  0.15891570980E+02  0.21337808536E+02  0.12924911057E+02  0.95511334933E+02  0.90815844838E+02 0.  0.
         11    1    3    3    0    0 -0.17636014974E+02  0.32221991771E+02  0.37536700079E+02  0.52519421464E+02  0.51100000000E-03 0. -1.
         22    1    1    0    0    0 -0.15891570980E+02 -0.21337808536E+02 -0.12924911057E+02  0.29578665067E+02  0.00000000000E+00 0.  1.
</event>
<event>
 5    1  0.1047411E-009  0.9118800E+02  0.7815553E-02  0.1125453E+00
         25   -1    0    0    0    0  0.00000000000E+00  0.00000000000E+00  0.99999998245E-14  0.12509000000E+03  0.12509000000E+03 0.  0.
        -11    1    3    3    0    0  0.28031717556E+01 -0.15317344396E+01  0.36965058183E+02  0.37102823465E+02  0.51100000000E-03 0.  1.
         23    2    1    0    0    0 -0.21787220571E+02 -0.19168914328E+02 -0.11198992194E+02  0.93984571488E+02  0.88687947293E+02 0.  0.
         11    1    3    3    0    0 -0.24590392327E+02 -0.17637179889E+02 -0.48164050378E+02  0.56881748024E+02  0.51100000000E-03 0. -1.
         22    1    1    0    0    0  0.21787220571E+02  0.19168914328E+02  0.11198992194E+02  0.31105428512E+02  0.00000000000E+00 0. -1.
</event>
<event>
 5    1  0.1047411E-009  0.9118800E+02  0.7815553E-02  0.1125453E+00
         25   -1    0    0    0    0  0.00000000000E+00  0.00000000000E+00  0.99999998245E-14  0.12509000000E+03  0.12509000000E+03 0.  0.
        -11    1    3    3    0    0  0.64806463885E+01  0.35525112183E+02  0.32933358365E+02  0.48873699131E+02  0.51100000000E-03 0. -1.
         23    2    1    0    0    0  0.15225293040E+01  0.25723488304E+02 -0.13088338507E+02  0.96188087418E+02  0.91743270109E+02 0.  0.
         11    1    3    3    0    0 -0.49581170844E+01 -0.98016238791E+01 -0.46021696873E+02  0.47314388287E+02  0.51100000000E-03 0.  1.
         22    1    1    0    0    0 -0.15225293040E+01 -0.25723488304E+02  0.13088338507E+02  0.28901912582E+02  0.00000000000E+00 0. -1.
</event>
<event>
 5    1  0.1047411E-009  0.9118800E+02  0.7815553E-02  0.1125453E+00
         25   -1    0    0    0    0  0.00000000000E+00  0.00000000000E+00  0.99999998245E-14  0.12509000000E+03  0.12509000000E+03 0.  0.
        -11    1    3    3    0    0  0.24363312774E+02  0.54279267299E+02 -0.45213840317E+01  0.59667853839E+02  0.51100000000E-03 0.  1.
         23    2    1    0    0    0  0.75355479874E+01  0.23844915640E+02 -0.14925095280E+02  0.95967449383E+02  0.91441939976E+02 0.  0.
         11    1    3    3    0    0 -0.16827764787E+02 -0.30434351660E+02 -0.10403711248E+02  0.36299595544E+02  0.51100000000E-03 0. -1.
         22    1    1    0    0    0 -0.75355479874E+01 -0.23844915640E+02  0.14925095280E+02  0.29122550617E+02  0.00000000000E+00 0.  1.
</event>
<event>
 5    1  0.1047411E-009  0.9118800E+02  0.7815553E-02  0.1125453E+00
         25   -1    0    0    0    0  0.00000000000E+00  0.00000000000E+00  0.99999998245E-14  0.12509000000E+03  0.12509000000E+03 0.  0.
        -11    1    3    3    0    0  0.19792649678E+02  0.33208093748E+02  0.38445968197E+02  0.54521729086E+02  0.51100000000E-03 0. -1.
         23    2    1    0    0    0  0.10415185981E+02  0.26976965585E+02 -0.16076160836E+01  0.96127658922E+02  0.91660840108E+02 0.  0.
         11    1    3    3    0    0 -0.93774636963E+01 -0.62311281629E+01 -0.40053584281E+02  0.41605929836E+02  0.51100000000E-03 0.  1.
         22    1    1    0    0    0 -0.10415185981E+02 -0.26976965585E+02  0.16076160836E+01  0.28962341078E+02  0.00000000000E+00 0. -1.
</event>
<event>
 5    1  0.1047411E-009  0.9118800E+02  0.7815553E-02  0.1125453E+00
         25   -1    0    0    0    0  0.00000000000E+00  0.00000000000E+00  0.99999998245E-14  0.12509000000E+03  0.12509000000E+03 0.  0.
        -11    1    3    3    0    0  0.30460801036E+02  0.31079231157E+02 -0.25110157146E+02  0.50242402423E+02  0.51100000000E-03 0.  1.
         23    2    1    0    0    0  0.57755415166E+00  0.34566790793E+02  0.16099940736E+01  0.90480916287E+02  0.83600284310E+02 0.  0.
         11    1    3    3    0    0 -0.29883246884E+02  0.34875596356E+01  0.26720151220E+02  0.40238513864E+02  0.51100000000E-03 0. -1.
         22    1    1    0    0    0 -0.57755415166E+00 -0.34566790793E+02 -0.16099940736E+01  0.34609083713E+02  0.00000000000E+00 0.  1.
</event>
<event>
 5    1  0.1047411E-009  0.9118800E+02  0.7815553E-02  0.1125453E+00
         25   -1    0    0    0    0  0.00000000000E+00  0.00000000000E+00  0.99999998245E-14  0.12509000000E+03  0.12509000000E+03 0.  0.
        -11    1    3    3    0    0  0.22563048323E+02  0.34328664974E+02  0.24583368673E+02  0.47873692192E+02  0.51100000000E-03 0.  1.
         23    2    1    0    0    0  0.14500674540E+02  0.59695613088E+01 -0.18976202857E+02  0.10047290230E+03  0.97410485047E+02 0.  0.
         11    1    3    3    0    0 -0.80623737834E+01 -0.28359103665E+02 -0.43559571531E+02  0.52599210107E+02  0.51100000000E-03 0. -1.
         22    1    1    0    0    0 -0.14500674540E+02 -0.59695613088E+01  0.18976202857E+02  0.24617097701E+02  0.00000000000E+00 0.  1.
</event>
<event>
 5    1  0.1047411E-009  0.9118800E+02  0.7815553E-02  0.1125453E+00
         25   -1    0    0    0    0  0.00000000000E+00  0.00000000000E+00  0.99999998245E-14  0.12509000000E+03  0.12509000000E+03 0.  0.
        -11    1    3    3    0    0 -0.18767031600E+02  0.41340811522E+02 -0.19963277748E+02  0.49596336871E+02  0.51100000000E-03 0.  1.
         23    2    1    0    0    0 -0.26205821452E+02  0.40896088066E+01  0.86920280398E+01  0.97179046423E+02  0.93084615990E+02 0.  0.
         11    1    3    3    0    0 -0.74387898521E+01 -0.37251202715E+02  0.28655305788E+02  0.47582709551E+02  0.51100000000E-03 0. -1.
         22    1    1    0    0    0  0.26205821452E+02 -0.40896088066E+01 -0.86920280398E+01  0.27910953577E+02  0.00000000000E+00 0.  1.
</event>
<event>
 5    1  0.1047411E-009  0.9118800E+02  0.7815553E-02  0.1125453E+00
         25   -1    0    0    0    0  0.00000000000E+00  0.00000000000E+00  0.99999998245E-14  0.12509000000E+03  0.12509000000E+03 0.  0.
        -11    1    3    3    0    0 -0.49240204021E+02  0.20345917445E+02  0.28549231194E+02  0.60445120983E+02  0.51100000000E-03 0.  1.
         23    2    1    0    0    0 -0.13723175472E+02  0.10014482378E+02  0.20793862809E+02  0.98238554362E+02  0.94497690079E+02 0.  0.
         11    1    3    3    0    0  0.35517028549E+02 -0.10331435066E+02 -0.77553683844E+01  0.37793433378E+02  0.51100000000E-03 0. -1.
         22    1    1    0    0    0  0.13723175472E+02 -0.10014482378E+02 -0.20793862809E+02  0.26851445638E+02  0.00000000000E+00 0.  1.
</event>
<event>
 5    1  0.1047411E-009  0.9118800E+02  0.7815553E-02  0.1125453E+00
         25   -1    0    0    0    0  0.00000000000E+00  0.00000000000E+00  0.99999998245E-14  0.12509000000E+03  0.12509000000E+03 0.  0.
        -11    1    3    3    0    0  0.23453440697E+02  0.36681907836E+02 -0.12551064027E+02  0.45311758424E+02  0.51100000000E-03 0. -1.
         23    2    1    0    0    0  0.19101934549E+02 -0.13806001333E+01  0.21307817357E+02  0.96440165083E+02  0.92086331236E+02 0.  0.
         11    1    3    3    0    0 -0.43515061487E+01 -0.38062507969E+02  0.33858881384E+02  0.51128406659E+02  0.51100000000E-03 0.  1.
         22    1    1    0    0    0 -0.19101934549E+02  0.13806001333E+01 -0.21307817357E+02  0.28649834917E+02  0.00000000000E+00 0.  1.
</event>
<event>
 5    1  0.1047411E-009  0.9118800E+02  0.7815553E-02  0.1125453E+00
         25   -1    0    0    0    0  0.00000000000E+00  0.00000000000E+00  0.99999998245E-14  0.12509000000E+03  0.12509000000E+03 0.  0.
        -11    1    3    3    0    0 -0.25721555185E+02 -0.26652180371E+02 -0.49042859447E+02  0.61458434593E+02  0.51100000000E-03 0. -1.
         23    2    1    0    0    0 -0.18626541650E+02 -0.11393952963E+02 -0.17904005344E+02  0.96853080456E+02  0.92645537229E+02 0.  0.
         11    1    3    3    0    0  0.70950135344E+01  0.15258227408E+02  0.31138854103E+02  0.35394645863E+02  0.51100000000E-03 0.  1.
         22    1    1    0    0    0  0.18626541650E+02  0.11393952963E+02  0.17904005344E+02  0.28236919544E+02  0.00000000000E+00 0. -1.
</event>
<event>
 5    1  0.1047411E-009  0.9118800E+02  0.7815553E-02  0.1125453E+00
         25   -1    0    0    0    0  0.00000000000E+00  0.00000000000E+00  0.99999998245E-14  0.12509000000E+03  0.12509000000E+03 0.  0.
        -11    1    3    3    0    0 -0.28592688044E+02 -0.17683799648E+02 -0.11833284314E+02  0.35641060555E+02  0.51100000000E-03 0.  1.
         23    2    1    0    0    0  0.17794163068E+02  0.38791005293E+01  0.21665058259E+02  0.96787095386E+02  0.92556401312E+02 0.  0.
         11    1    3    3    0    0  0.46386851112E+02  0.21562900178E+02  0.33498342572E+02  0.61146034831E+02  0.51100000000E-03 0. -1.
         22    1    1    0    0    0 -0.17794163068E+02 -0.38791005293E+01 -0.21665058259E+02  0.28302904614E+02  0.00000000000E+00 0. -1.
</event>
<event>
 5    1  0.1047411E-009  0.9118800E+02  0.7815553E-02  0.1125453E+00
         25   -1    0    0    0    0  0.00000000000E+00  0.00000000000E+00  0.99999998245E-14  0.12509000000E+03  0.12509000000E+03 0.  0.
        -11    1    3    3    0    0 -0.49393306380E+02 -0.16337881186E+02  0.61217619675E+01  0.52384167900E+02  0.51100000000E-03 0.  1.
         23    2    1    0    0    0 -0.12212515724E+02  0.33473756588E+01  0.23888889240E+02  0.98052442913E+02  0.94251005660E+02 0.  0.
         11    1    3    3    0    0  0.37180790655E+02  0.19685256845E+02  0.17767127273E+02  0.45668275012E+02  0.51100000000E-03 0. -1.
         22    1    1    0    0    0  0.12212515724E+02 -0.33473756588E+01 -0.23888889240E+02  0.27037557087E+02  0.00000000000E+00 0. -1.
</event>
<event>
 5    1  0.1047411E-009  0.9118800E+02  0.7815553E-02  0.1125453E+00
         25   -1    0    0    0    0  0.00000000000E+00  0.00000000000E+00  0.99999998245E-14  0.12509000000E+03  0.12509000000E+03 0.  0.
        -11    1    3    3    0    0  0.34915691651E+02  0.17989197679E+02 -0.11431438687E+02  0.40907145431E+02  0.51100000000E-03 0.  1.
         23    2    1    0    0    0  0.48799833587E+01 -0.27630888437E+02 -0.91594937996E+01  0.95574299770E+02  0.90902531409E+02 0.  0.
         11    1    3    3    0    0 -0.30035708292E+02 -0.45620086115E+02  0.22719448877E+01  0.54667154340E+02  0.51100000000E-03 0. -1.
         22    1    1    0    0    0 -0.48799833587E+01  0.27630888437E+02  0.91594937996E+01  0.29515700230E+02  0.00000000000E+00 0. -1.
</event>
<event>
 5    1  0.1047411E-009  0.9118800E+02  0.7815553E-02  0.1125453E+00
         25   -1    0    0    0    0  0.00000000000E+00  0.00000000000E+00  0.99999998245E-14  0.12509000000E+03  0.12509000000E+03 0.  0.
        -11    1    3    3    0    0 -0.29477519301E+02  0.17055466461E+02  0.42411229994E+01  0.34319093882E+02  0.51100000000E-03 0.  1.
         23    2    1    0    0    0  0.16885533996E+02 -0.21668188442E+02 -0.90418444862E+01  0.96169650756E+02  0.91718128666E+02 0.  0.
         11    1    3    3    0    0  0.46363053296E+02 -0.38723654904E+02 -0.13282967486E+02  0.61850556874E+02  0.51100000000E-03 0. -1.
         22    1    1    0    0    0 -0.16885533996E+02  0.21668188442E+02  0.90418444862E+01  0.28920349244E+02  0.00000000000E+00 0. -1.
</event>
<event>
 5    1  0.1047411E-009  0.9118800E+02  0.7815553E-02  0.1125453E+00
         25   -1    0    0    0    0  0.00000000000E+00  0.00000000000E+00  0.99999998245E-14  0.12509000000E+03  0.12509000000E+03 0.  0.
        -11    1    3    3    0    0  0.18200739790E+02 -0.31514365787E+02  0.13817061707E+02  0.38927283162E+02  0.51100000000E-03 0. -1.
         23    2    1    0    0    0 -0.23242682317E+02 -0.83001529638E+01 -0.16611913692E+02  0.95339865597E+02  0.90579354574E+02 0.  0.
         11    1    3    3    0    0 -0.41443422107E+02  0.23214212824E+02 -0.30428975399E+02  0.56412582435E+02  0.51100000000E-03 0.  1.
         22    1    1    0    0    0  0.23242682317E+02  0.83001529638E+01  0.16611913692E+02  0.29750134403E+02  0.00000000000E+00 0.  1.
</event>
<event>
 5    1  0.1047411E-009  0.9118800E+02  0.7815553E-02  0.1125453E+00
         25   -1    0    0    0    0  0.00000000000E+00  0.00000000000E+00  0.99999998245E-14  0.12509000000E+03  0.12509000000E+03 0.  0.
        -11    1    3    3    0    0 -0.23877637525E+02 -0.15491225027E+02 -0.25131078710E+02  0.37969602895E+02  0.51100000000E-03 0. -1.
         23    2    1    0    0    0 -0.12928802721E+02  0.13902335388E+02  0.22905156315E+02  0.95339788994E+02  0.90579248786E+02 0.  0.
         11    1    3    3    0    0  0.10948834803E+02  0.29393560415E+02  0.48036235025E+02  0.57370186100E+02  0.51100000000E-03 0.  1.
         22    1    1    0    0    0  0.12928802721E+02 -0.13902335388E+02 -0.22905156315E+02  0.29750211006E+02  0.00000000000E+00 0.  1.
</event>
<event>
 5    1  0.1047411E-009  0.9118800E+02  0.7815553E-02  0.1125453E+00
         25   -1    0    0    0    0  0.00000000000E+00  0.00000000000E+00  0.99999998245E-14  0.12509000000E+03  0.12509000000E+03 0.  0.
        -11    1    3    3    0    0 -0.48125975935E+02  0.16732241025E+02  0.68844200068E+01  0.51414712763E+02  0.51100000000E-03 0.  1.
         23    2    1    0    0    0 -0.21826566254E+02 -0.11414470057E+02 -0.15519503981E+02  0.95977388902E+02  0.91455535948E+02 0.  0.
         11    1    3    3    0    0  0.26299409681E+02 -0.28146711083E+02 -0.22403923988E+02  0.44562676139E+02  0.51100000000E-03 0. -1.
         22    1    1    0    0    0  0.21826566254E+02  0.11414470057E+02  0.15519503981E+02  0.29112611098E+02  0.00000000000E+00 0.  1.
</event>
<event>
 5    1  0.1047411E-009  0.9118800E+02  0.7815553E-02  0.1125453E+00
         25   -1    0    0    0    0  0.00000000000E+00  0.00000000000E+00  0.99999998245E-14  0.12509000000E+03  0.12509000000E+03 0.  0.
        -11    1    3    3    0    0 -0.20089158727E+02  0.16475663542E+02  0.28666964200E+02  0.38688714430E+02  0.51100000000E-03 0.  1.
         23    2    1    0    0    0  0.23634883901E+01 -0.28693699322E+02  0.86268270813E+00  0.96286203730E+02  0.91876952219E+02 0.  0.
         11    1    3    3    0    0  0.22452647117E+02 -0.45169362864E+02 -0.27804281492E+02  0.57597489300E+02  0.51100000000E-03 0. -1.
         22    1    1    0    0    0 -0.23634883901E+01  0.28693699322E+02 -0.86268270813E+00  0.28803796270E+02  0.00000000000E+00 0. -1.
</event>
<event>
 5    1  0.1047411E-009  0.9118800E+02  0.7815553E-02  0.1125453E+00
         25   -1    0    0    0    0  0.00000000000E+00  0.00000000000E+00  0.99999998245E-14  0.12509000000E+03  0.12509000000E+03 0.  0.
        -11    1    3    3    0    0 -0.54752670006E+01  0.85342601098E+01  0.39819727287E+02  0.41090422556E+02  0.51100000000E-03 0.  1.
         23    2    1    0    0    0 -0.91386768187E+01  0.24969170248E+02 -0.12249827032E+02  0.95814871662E+02  0.91232979193E+02 0.  0.
         11    1    3    3    0    0 -0.36634098181E+01  0.16434910138E+02 -0.52069554319E+02  0.54724449107E+02  0.51100000000E-03 0. -1.
         22    1    1    0    0    0  0.91386768187E+01 -0.24969170248E+02  0.12249827032E+02  0.29275128338E+02  0.00000000000E+00 0. -1.
</event>
<event>
 5    1  0.1047411E-009  0.9118800E+02  0.7815553E-02  0.1125453E+00
         25   -1    0    0    0    0  0.00000000000E+00  0.00000000000E+00  0.99999998245E-14  0.12509000000E+03  0.12509000000E+03 0.  0.
        -11    1    3    3    0    0 -0.55821247673E+02  0.26804827576E+02 -0.65656202533E+01  0.62270521459E+02  0.51100000000E-03 0. -1.
         23    2    1    0    0    0 -0.24869857925E+02  0.11618784543E+02 -0.70461932601E+01  0.96750013639E+02  0.92506271746E+02 0.  0.
         11    1    3    3    0    0  0.30951389748E+02 -0.15186043033E+02 -0.48057300673E+00  0.34479492180E+02  0.51100000000E-03 0.  1.
         22    1    1    0    0    0  0.24869857925E+02 -0.11618784543E+02  0.70461932601E+01  0.28339986361E+02  0.00000000000E+00 0. -1.
</event>
<event>
 5    1  0.1047411E-009  0.9118800E+02  0.7815553E-02  0.1125453E+00
         25   -1    0    0    0    0  0.00000000000E+00  0.00000000000E+00  0.99999998245E-14  0.12509000000E+03  0.12509000000E+03 0.  0.
        -11    1    3    3    0    0  0.36421873764E+02 -0.99339924343E+01  0.16578183662E+02  0.41231944751E+02  0.51100000000E-03 0. -1.
         23    2    1    0    0    0 -0.15421848892E+02 -0.28107353144E+01  0.26313919419E+02  0.94460667466E+02  0.89356934184E+02 0.  0.
         11    1    3    3    0    0 -0.51843722656E+02  0.71232571199E+01  0.97357357569E+01  0.53228722715E+02  0.51100000000E-03 0.  1.
         22    1    1    0    0    0  0.15421848892E+02  0.28107353144E+01 -0.26313919419E+02  0.30629332534E+02  0.00000000000E+00 0.  1.
</event>
<event>
 5    1  0.1047411E-009  0.9118800E+02  0.7815553E-02  0.1125453E+00
         25   -1    0    0    0    0  0.00000000000E+00  0.00000000000E+00  0.99999998245E-14  0.12509000000E+03  0.12509000000E+03 0.  0.
        -11    1    3    3    0    0  0.50769440259E+02  0.12234233300E+02 -0.58265359989E+01  0.52546751095E+02  0.51100000000E-03 0. -1.
         23    2    1    0    0    0  0.10946182613E+02  0.27132732603E+02  0.19361314122E+01  0.95768460185E+02  0.91169321973E+02 0.  0.
         11    1    3    3    0    0 -0.39823257646E+02  0.14898499303E+02  0.77626674111E+01  0.43221709090E+02  0.51100000000E-03 0.  1.
         22    1    1    0    0    0 -0.10946182613E+02 -0.27132732603E+02 -0.19361314122E+01  0.29321539815E+02  0.00000000000E+00 0. -1.
</event>
<event>
 5    1  0.1047411E-009  0.9118800E+02  0.7815553E-02  0.1125453E+00
         25   -1    0    0    0    0  0.00000000000E+00  0.00000000000E+00  0.99999998245E-14  0.12509000000E+03  0.12509000000E+03 0.  0.
        -11    1    3    3    0    0 -0.51515984546E+01  0.17395269593E+02 -0.35057834121E+02  0.39473866094E+02  0.51100000000E-03 0.  1.
         23    2    1    0    0    0  0.29359764774E+02  0.12154421645E+01  0.55693777853E+01  0.95181956665E+02  0.90361019352E+02 0.  0.
         11    1    3    3    0    0  0.34511363228E+02 -0.16179827429E+02  0.40627211907E+02  0.55708090571E+02  0.51100000000E-03 0. -1.
         22    1    1    0    0    0 -0.29359764774E+02 -0.12154421645E+01 -0.55693777853E+01  0.29908043335E+02  0.00000000000E+00 0. -1.
</event>
<event>
 5    1  0.1047411E-009  0.9118800E+02  0.7815553E-02  0.1125453E+00
         25   -1    0    0    0    0  0.00000000000E+00  0.00000000000E+00  0.99999998245E-14  0.12509000000E+03  0.12509000000E+03 0.  0.
        -11    1    3    3    0    0 -0.25004313018E+02  0.12853923869E+02  0.19863692346E+02  0.34423905970E+02  0.51100000000E-03 0.  1.
         23    2    1    0    0    0  0.29705189152E+02  0.67757500832E+01 -0.38862275761E+01  0.94374990371E+02  0.89236914956E+02 0.  0.
         11    1    3    3    0    0  0.54709502170E+02 -0.60781737857E+01 -0.23749919922E+02  0.59951084401E+02  0.51100000000E-03 0. -1.
         22    1    1    0    0    0 -0.29705189152E+02 -0.67757500832E+01  0.38862275761E+01  0.30715009629E+02  0.00000000000E+00 0. -1.
</event>
<event>
 5    1  0.1047411E-009  0.9118800E+02  0.7815553E-02  0.1125453E+00
         25   -1    0    0    0    0  0.00000000000E+00  0.00000000000E+00  0.99999998245E-14  0.12509000000E+03  0.12509000000E+03 0.  0.
        -11    1    3    3    0    0  0.23000028164E+02 -0.20410156103E+02 -0.39956793505E+02  0.50419451754E+02  0.51100000000E-03 0. -1.
         23    2    1    0    0    0 -0.14879993310E+02 -0.20318010003E+02 -0.15127163088E+02  0.95712001524E+02  0.91091824228E+02 0.  0.
         11    1    3    3    0    0 -0.37880021473E+02  0.92146100102E-01  0.24829630417E+02  0.45292549770E+02  0.51100000000E-03 0.  1.
         22    1    1    0    0    0  0.14879993310E+02  0.20318010003E+02  0.15127163088E+02  0.29377998476E+02  0.00000000000E+00 0.  1.
</event>
<event>
 5    1  0.1047411E-009  0.9118800E+02  0.7815553E-02  0.1125453E+00
         25   -1    0    0    0    0  0.00000000000E+00  0.00000000000E+00  0.99999998245E-14  0.12509000000E+03  0.12509000000E+03 0.  0.
        -11    1    3    3    0    0 -0.27637492063E+01  0.22181317596E+02 -0.28947639031E+02  0.36573418840E+02  0.51100000000E-03 0.  1.
         23    2    1    0    0    0 -0.43484475173E+01 -0.27102863479E+02  0.59756972064E+01  0.96997596014E+02  0.92840457080E+02 0.  0.
         11    1    3    3    0    0 -0.15846983110E+01 -0.49284181075E+02  0.34923336237E+02  0.60424177174E+02  0.51100000000E-03 0. -1.
         22    1    1    0    0    0  0.43484475173E+01  0.27102863479E+02 -0.59756972064E+01  0.28092403986E+02  0.00000000000E+00 0. -1.
</event>
<event>
 5    1  0.1047411E-009  0.9118800E+02  0.7815553E-02  0.1125453E+00
         25   -1    0    0    0    0  0.00000000000E+00  0.00000000000E+00  0.99999998245E-14  0.12509000000E+03  0.12509000000E+03 0.  0.
        -11    1    3    3    0    0  0.13625130664E+02 -0.18300559189E+02  0.27412989090E+02  0.35665482239E+02  0.51100000000E-03 0.  1.
         23    2    1    0    0    0  0.11113701635E+02  0.13230497241E+02 -0.23691449066E+02  0.95766883178E+02  0.91167158196E+02 0.  0.
         11    1    3    3    0    0 -0.25114290281E+01  0.31531056430E+02 -0.51104438156E+02  0.60101400939E+02  0.51100000000E-03 0. -1.
         22    1    1    0    0    0 -0.11113701635E+02 -0.13230497241E+02  0.23691449066E+02  0.29323116822E+02  0.00000000000E+00 0. -1.
</event>
<event>
 5    1  0.1047411E-009  0.9118800E+02  0.7815553E-02  0.1125453E+00
         25   -1    0    0    0    0  0.00000000000E+00  0.00000000000E+00  0.99999998245E-14  0.12509000000E+03  0.12509000000E+03 0.  0.
        -11    1    3    3    0    0 -0.15486946163E+01  0.41448254170E+01  0.36461846640E+02  0.36729338320E+02  0.51100000000E-03 0. -1.
         23    2    1    0    0    0  0.65448956151E+01  0.18718472445E+02 -0.20790429372E+02  0.96359200799E+02  0.91976283660E+02 0.  0.
         11    1    3    3    0    0  0.80935902314E+01  0.14573647028E+02 -0.57252276012E+02  0.59629862479E+02  0.51100000000E-03 0.  1.
         22    1    1    0    0    0 -0.65448956151E+01 -0.18718472445E+02  0.20790429372E+02  0.28730799201E+02  0.00000000000E+00 0.  1.
</event>
<event>
 5    1  0.1047411E-009  0.9118800E+02  0.7815553E-02  0.1125453E+00
         25   -1    0    0    0    0  0.00000000000E+00  0.00000000000E+00  0.99999998245E-14  0.12509000000E+03  0.12509000000E+03 0.  0.
        -11    1    3    3    0    0  0.54310357435E+00 -0.60049022077E+02 -0.12303441520E+01  0.60064080455E+02  0.51100000000E-03 0. -1.
         23    2    1    0    0    0  0.24918528593E+01 -0.26753949311E+02 -0.12748903554E+02  0.95349158111E+02  0.90592186618E+02 0.  0.
         11    1    3    3    0    0  0.19487492849E+01  0.33295072765E+02 -0.11518559402E+02  0.35285077656E+02  0.51100000000E-03 0.  1.
         22    1    1    0    0    0 -0.24918528593E+01  0.26753949311E+02  0.12748903554E+02  0.29740841889E+02  0.00000000000E+00 0. -1.
</event>
<event>
 5    1  0.1047411E-009  0.9118800E+02  0.7815553E-02  0.1125453E+00
         25   -1    0    0    0    0  0.00000000000E+00  0.00000000000E+00  0.99999998245E-14  0.12509000000E+03  0.12509000000E+03 0.  0.
        -11    1    3    3    0    0 -0.23636760884E+02 -0.16380452257E+02 -0.32928653876E+02  0.43718553586E+02  0.51100000000E-03 0. -1.
         23    2    1    0    0    0 -0.15546270834E+02 -0.16789497778E+02  0.18428093269E+02  0.95710272398E+02  0.91089449710E+02 0.  0.
         11    1    3    3    0    0  0.80904900499E+01 -0.40904552028E+00  0.51356747145E+02  0.51991718812E+02  0.51100000000E-03 0.  1.
         22    1    1    0    0    0  0.15546270834E+02  0.16789497778E+02 -0.18428093269E+02  0.29379727602E+02  0.00000000000E+00 0.  1.
</event>
<event>
 5    1  0.1047411E-009  0.9118800E+02  0.7815553E-02  0.1125453E+00
         25   -1    0    0    0    0  0.00000000000E+00  0.00000000000E+00  0.99999998245E-14  0.12509000000E+03  0.12509000000E+03 0.  0.
        -11    1    3    3    0    0 -0.19610588793E+00  0.26424842247E+02  0.29280013026E+02  0.39441474470E+02  0.51100000000E-03 0.  1.
         23    2    1    0    0    0 -0.20470609067E+02 -0.20466881950E+02  0.62690807534E+01  0.95471754512E+02  0.90761310280E+02 0.  0.
         11    1    3    3    0    0 -0.20274503179E+02 -0.46891724197E+02 -0.23010932273E+02  0.56030280042E+02  0.51100000000E-03 0. -1.
         22    1    1    0    0    0  0.20470609067E+02  0.20466881950E+02 -0.62690807534E+01  0.29618245488E+02  0.00000000000E+00 0. -1.
</event>
<event>
 5    1  0.1047411E-009  0.9118800E+02  0.7815553E-02  0.1125453E+00
         25   -1    0    0    0    0  0.00000000000E+00  0.00000000000E+00  0.99999998245E-14  0.12509000000E+03  0.12509000000E+03 0.  0.
        -11    1    3    3    0    0  0.11142961101E+02 -0.45989577931E+02 -0.30105336716E+02  0.56085097481E+02  0.51100000000E-03 0. -1.
         23    2    1    0    0    0  0.22651367640E+02 -0.17099435503E+02 -0.45282076575E+01  0.96350135438E+02  0.91963953720E+02 0.  0.
         11    1    3    3    0    0  0.11508406538E+02  0.28890142428E+02  0.25577129058E+02  0.40265037957E+02  0.51100000000E-03 0.  1.
         22    1    1    0    0    0 -0.22651367640E+02  0.17099435503E+02  0.45282076575E+01  0.28739864562E+02  0.00000000000E+00 0. -1.
</event>
<event>
 5    1  0.1047411E-009  0.9118800E+02  0.7815553E-02  0.1125453E+00
         25   -1    0    0    0    0  0.00000000000E+00  0.00000000000E+00  0.99999998245E-14  0.12509000000E+03  0.12509000000E+03 0.  0.
        -11    1    3    3    0    0  0.12742613982E+02 -0.26192368142E+02  0.18849034481E+02  0.34694386594E+02  0.51100000000E-03 0. -1.
         23    2    1    0    0    0 -0.13924423928E+02  0.24461965471E+02  0.17481470572E+02  0.91955740542E+02  0.85778663250E+02 0.  0.
         11    1    3    3    0    0 -0.26667037910E+02  0.50654333614E+02 -0.13675639085E+01  0.57261353949E+02  0.51100000000E-03 0.  1.
         22    1    1    0    0    0  0.13924423928E+02 -0.24461965471E+02 -0.17481470572E+02  0.33134259458E+02  0.00000000000E+00 0.  1.
</event>
<event>
 5    1  0.1047411E-009  0.9118800E+02  0.7815553E-02  0.1125453E+00
         25   -1    0    0    0    0  0.00000000000E+00  0.00000000000E+00  0.99999998245E-14  0.12509000000E+03  0.12509000000E+03 0.  0.
        -11    1    3    3    0    0  0.10764964106E+02 -0.40606720065E+02  0.18866389602E+02  0.46051393286E+02  0.51100000000E-03 0. -1.
         23    2    1    0    0    0  0.21528562059E+02 -0.10504360780E+02 -0.18204552664E+02  0.95003020799E+02  0.90112971561E+02 0.  0.
         11    1    3    3    0    0  0.10763597953E+02  0.30102359286E+02 -0.37070942266E+02  0.48951627514E+02  0.51100000000E-03 0.  1.
         22    1    1    0    0    0 -0.21528562059E+02  0.10504360780E+02  0.18204552664E+02  0.30086979201E+02  0.00000000000E+00 0. -1.
</event>
<event>
 5    1  0.1047411E-009  0.9118800E+02  0.7815553E-02  0.1125453E+00
         25   -1    0    0    0    0  0.00000000000E+00  0.00000000000E+00  0.99999998245E-14  0.12509000000E+03  0.12509000000E+03 0.  0.
        -11    1    3    3    0    0 -0.27073991668E+01 -0.48423112886E+02  0.52656288094E+01  0.48783754661E+02  0.51100000000E-03 0. -1.
         23    2    1    0    0    0  0.26676941166E+02 -0.11800593201E+02  0.21123106518E+01  0.95843204515E+02  0.91271818244E+02 0.  0.
         11    1    3    3    0    0  0.29384340333E+02  0.36622519685E+02 -0.31533181577E+01  0.47059449854E+02  0.51100000000E-03 0.  1.
         22    1    1    0    0    0 -0.26676941166E+02  0.11800593201E+02 -0.21123106518E+01  0.29246795485E+02  0.00000000000E+00 0. -1.
</event>
<event>
 5    1  0.1047411E-009  0.9118800E+02  0.7815553E-02  0.1125453E+00
         25   -1    0    0    0    0  0.00000000000E+00  0.00000000000E+00  0.99999998245E-14  0.12509000000E+03  0.12509000000E+03 0.  0.
        -11    1    3    3    0    0  0.51969623102E+02 -0.86042856648E+01  0.71152614663E+01  0.53155455065E+02  0.51100000000E-03 0.  1.
         23    2    1    0    0    0  0.15361718839E+02  0.36604786356E+00  0.25674910298E+02  0.95168144852E+02  0.90341897141E+02 0.  0.
         11    1    3    3    0    0 -0.36607904263E+02  0.89703335283E+01  0.18559648831E+02  0.42012689787E+02  0.51100000000E-03 0. -1.
         22    1    1    0    0    0 -0.15361718839E+02 -0.36604786356E+00 -0.25674910298E+02  0.29921855148E+02  0.00000000000E+00 0.  1.
</event>
<event>
 5    1  0.1047411E-009  0.9118800E+02  0.7815553E-02  0.1125453E+00
         25   -1    0    0    0    0  0.00000000000E+00  0.00000000000E+00  0.99999998245E-14  0.12509000000E+03  0.12509000000E+03 0.  0.
        -11    1    3    3    0    0  0.23075057038E+02 -0.20876330978E+02 -0.17171252696E+02  0.35540559531E+02  0.51100000000E-03 0.  1.
         23    2    1    0    0    0 -0.28484274386E-01  0.14852865169E+02  0.25359849187E+02  0.95700710014E+02  0.91076317071E+02 0.  0.
         11    1    3    3    0    0 -0.23103541312E+02  0.35729196146E+02  0.42531101883E+02  0.60160150483E+02  0.51100000000E-03 0. -1.
         22    1    1    0    0    0  0.28484274386E-01 -0.14852865169E+02 -0.25359849187E+02  0.29389289986E+02  0.00000000000E+00 0. -1.
</event>
<event>
 5    1  0.1047411E-009  0.9118800E+02  0.7815553E-02  0.1125453E+00
         25   -1    0    0    0    0  0.00000000000E+00  0.00000000000E+00  0.99999998245E-14  0.12509000000E+03  0.12509000000E+03 0.  0.
        -11    1    3    3    0    0  0.46387430434E+01 -0.10076935845E+02  0.41132628314E+02  0.42602296715E+02  0.51100000000E-03 0.  1.
         23    2    1    0    0    0 -0.68195418876E+01 -0.25988152112E+02 -0.92567057095E+01  0.96672104189E+02  0.92400859985E+02 0.  0.
         11    1    3    3    0    0 -0.11458284931E+02 -0.15911216267E+02 -0.50389334024E+02  0.54069807474E+02  0.51100000000E-03 0. -1.
         22    1    1    0    0    0  0.68195418876E+01  0.25988152112E+02  0.92567057095E+01  0.28417895811E+02  0.00000000000E+00 0. -1.
</event>
<event>
 5    1  0.1047411E-009  0.9118800E+02  0.7815553E-02  0.1125453E+00
         25   -1    0    0    0    0  0.00000000000E+00  0.00000000000E+00  0.99999998245E-14  0.12509000000E+03  0.12509000000E+03 0.  0.
        -11    1    3    3    0    0  0.21321640080E+02 -0.19965291742E+01  0.35378577885E+02  0.41355075116E+02  0.51100000000E-03 0.  1.
         23    2    1    0    0    0 -0.26034988837E+02  0.32769511065E+01  0.36611226818E+01  0.98595418071E+02  0.94968908559E+02 0.  0.
         11    1    3    3    0    0 -0.47356628918E+02  0.52734802807E+01 -0.31717455203E+02  0.57240342954E+02  0.51100000000E-03 0. -1.
         22    1    1    0    0    0  0.26034988837E+02 -0.32769511065E+01 -0.36611226818E+01  0.26494581929E+02  0.00000000000E+00 0. -1.
</event>
<event>
 5    1  0.1047411E-009  0.9118800E+02  0.7815553E-02  0.1125453E+00
         25   -1    0    0    0    0  0.00000000000E+00  0.00000000000E+00  0.99999998245E-14  0.12509000000E+03  0.12509000000E+03 0.  0.
        -11    1    3    3    0    0 -0.25523078415E+02 -0.40788393026E+01 -0.34269690412E+02  0.42924074166E+02  0.51100000000E-03 0.  1.
         23    2    1    0    0    0 -0.23348255841E+02 -0.26344688387E+02  0.63715589539E+01  0.89315981208E+02  0.81838646608E+02 0.  0.
         11    1    3    3    0    0  0.21748225739E+01 -0.22265849084E+02  0.40641249366E+02  0.46391907042E+02  0.51100000000E-03 0. -1.
         22    1    1    0    0    0  0.23348255841E+02  0.26344688387E+02 -0.63715589539E+01  0.35774018792E+02  0.00000000000E+00 0. -1.
</event>
<event>
 5    1  0.1047411E-009  0.9118800E+02  0.7815553E-02  0.1125453E+00
         25   -1    0    0    0    0  0.00000000000E+00  0.00000000000E+00  0.99999998245E-14  0.12509000000E+03  0.12509000000E+03 0.  0.
        -11    1    3    3    0    0  0.68371961062E+01  0.28997436067E+02 -0.18589109030E+02  0.35116285736E+02  0.51100000000E-03 0.  1.
         23    2    1    0    0    0 -0.64893091284E+01 -0.28281761478E+02 -0.90558310938E+01  0.94693006036E+02  0.89681593150E+02 0.  0.
         11    1    3    3    0    0 -0.13326505235E+02 -0.57279197546E+02  0.95332779361E+01  0.59576720300E+02  0.51100000000E-03 0. -1.
         22    1    1    0    0    0  0.64893091284E+01  0.28281761478E+02  0.90558310938E+01  0.30396993964E+02  0.00000000000E+00 0. -1.
</event>
<event>
 5    1  0.1047411E-009  0.9118800E+02  0.7815553E-02  0.1125453E+00
         25   -1    0    0    0    0  0.00000000000E+00  0.00000000000E+00  0.99999998245E-14  0.12509000000E+03  0.12509000000E+03 0.  0.
        -11    1    3    3    0    0  0.18470598043E+02 -0.92128641141E+01  0.28360722238E+02  0.35076636432E+02  0.51100000000E-03 0.  1.
         23    2    1    0    0    0 -0.16602958014E+02 -0.13488179853E+02 -0.20558149485E+02  0.95421384920E+02  0.90691862806E+02 0.  0.
         11    1    3    3    0    0 -0.35073556057E+02 -0.42753157389E+01 -0.48918871723E+02  0.60344748488E+02  0.51100000000E-03 0. -1.
         22    1    1    0    0    0  0.16602958014E+02  0.13488179853E+02  0.20558149485E+02  0.29668615080E+02  0.00000000000E+00 0. -1.
</event>
<event>
 5    1  0.1047411E-009  0.9118800E+02  0.7815553E-02  0.1125453E+00
         25   -1    0    0    0    0  0.00000000000E+00  0.00000000000E+00  0.99999998245E-14  0.12509000000E+03  0.12509000000E+03 0.  0.
        -11    1    3    3    0    0 -0.60775710936E+02  0.96637764825E+01  0.10691694952E+01  0.61548507207E+02  0.51100000000E-03 0.  1.
         23    2    1    0    0    0 -0.17616256606E+02 -0.72614756467E+00 -0.59277509928E+01  0.10648897801E+03  0.10485182125E+03 0.  0.
         11    1    3    3    0    0  0.43159454330E+02 -0.10389924047E+02 -0.69969204880E+01  0.44940470807E+02  0.51100000000E-03 0. -1.
         22    1    1    0    0    0  0.17616256606E+02  0.72614756467E+00  0.59277509928E+01  0.18601021987E+02  0.00000000000E+00 0.  1.
</event>
<event>
 5    1  0.1047411E-009  0.9118800E+02  0.7815553E-02  0.1125453E+00
         25   -1    0    0    0    0  0.00000000000E+00  0.00000000000E+00  0.99999998245E-14  0.12509000000E+03  0.12509000000E+03 0.  0.
        -11    1    3    3    0    0 -0.30800333738E+02 -0.18680045914E+02  0.51494848202E+01  0.36388485375E+02  0.51100000000E-03 0.  1.
         23    2    1    0    0    0  0.26011522705E+02 -0.16526393518E+02 -0.41418259017E+01  0.93995374775E+02  0.88703183489E+02 0.  0.
         11    1    3    3    0    0  0.56811856442E+02  0.21536523968E+01 -0.92913107220E+01  0.57606889399E+02  0.51100000000E-03 0. -1.
         22    1    1    0    0    0 -0.26011522705E+02  0.16526393518E+02  0.41418259017E+01  0.31094625225E+02  0.00000000000E+00 0. -1.
</event>
<event>
 5    1  0.1047411E-009  0.9118800E+02  0.7815553E-02  0.1125453E+00
         25   -1    0    0    0    0  0.00000000000E+00  0.00000000000E+00  0.99999998245E-14  0.12509000000E+03  0.12509000000E+03 0.  0.
        -11    1    3    3    0    0 -0.16111403716E+02  0.22150806950E+02  0.21653638980E+02  0.34915836802E+02  0.51100000000E-03 0.  1.
         23    2    1    0    0    0 -0.46882172765E+01 -0.26169698979E+02 -0.13029887746E+02  0.95482391171E+02  0.90775968864E+02 0.  0.
         11    1    3    3    0    0  0.11423186439E+02 -0.48320505930E+02 -0.34683526726E+02  0.60566554369E+02  0.51100000000E-03 0. -1.
         22    1    1    0    0    0  0.46882172765E+01  0.26169698979E+02  0.13029887746E+02  0.29607608829E+02  0.00000000000E+00 0. -1.
</event>
<event>
 5    1  0.1047411E-009  0.9118800E+02  0.7815553E-02  0.1125453E+00
         25   -1    0    0    0    0  0.00000000000E+00  0.00000000000E+00  0.99999998245E-14  0.12509000000E+03  0.12509000000E+03 0.  0.
        -11    1    3    3    0    0 -0.27656634258E+02  0.14813349202E+02 -0.32606576255E+02  0.45249459095E+02  0.51100000000E-03 0.  1.
         23    2    1    0    0    0 -0.21139583838E+02 -0.16172231284E+02  0.85112690875E+01  0.97146042316E+02  0.93040253475E+02 0.  0.
         11    1    3    3    0    0  0.65170504196E+01 -0.30985580486E+02  0.41117845342E+02  0.51896583222E+02  0.51100000000E-03 0. -1.
         22    1    1    0    0    0  0.21139583838E+02  0.16172231284E+02 -0.85112690875E+01  0.27943957684E+02  0.00000000000E+00 0. -1.
</event>
<event>
 5    1  0.1047411E-009  0.9118800E+02  0.7815553E-02  0.1125453E+00
         25   -1    0    0    0    0  0.00000000000E+00  0.00000000000E+00  0.99999998245E-14  0.12509000000E+03  0.12509000000E+03 0.  0.
        -11    1    3    3    0    0  0.28882830216E+02 -0.31023969358E+02 -0.11305237828E+02  0.43869271234E+02  0.51100000000E-03 0.  1.
         23    2    1    0    0    0  0.21068432670E+02  0.19796069392E+02 -0.20984944885E+01  0.96104367392E+02  0.91629048528E+02 0.  0.
         11    1    3    3    0    0 -0.78143975455E+01  0.50820038750E+02  0.92067433392E+01  0.52235096158E+02  0.51100000000E-03 0. -1.
         22    1    1    0    0    0 -0.21068432670E+02 -0.19796069392E+02  0.20984944885E+01  0.28985632608E+02  0.00000000000E+00 0.  1.
</event>
<event>
 5    1  0.1047411E-009  0.9118800E+02  0.7815553E-02  0.1125453E+00
         25   -1    0    0    0    0  0.00000000000E+00  0.00000000000E+00  0.99999998245E-14  0.12509000000E+03  0.12509000000E+03 0.  0.
        -11    1    3    3    0    0 -0.44339671945E+02 -0.39505159521E+02  0.71817774341E+01  0.59818409075E+02  0.51100000000E-03 0.  1.
         23    2    1    0    0    0 -0.18810837182E+02 -0.15833542709E+02  0.16028177432E+02  0.95739512065E+02  0.91129594691E+02 0.  0.
         11    1    3    3    0    0  0.25528834763E+02  0.23671616811E+02  0.88463999979E+01  0.35921102990E+02  0.51100000000E-03 0. -1.
         22    1    1    0    0    0  0.18810837182E+02  0.15833542709E+02 -0.16028177432E+02  0.29350487935E+02  0.00000000000E+00 0.  1.
</event>
<event>
 5    1  0.1047411E-009  0.9118800E+02  0.7815553E-02  0.1125453E+00
         25   -1    0    0    0    0  0.00000000000E+00  0.00000000000E+00  0.99999998245E-14  0.12509000000E+03  0.12509000000E+03 0.  0.
        -11    1    3    3    0    0  0.73181066883E+01 -0.31183734604E+02  0.37622134742E+02  0.49410575914E+02  0.51100000000E-03 0. -1.
         23    2    1    0    0    0  0.69820964668E+01  0.13726122625E+02  0.24416065315E+02  0.96223057680E+02  0.91790938935E+02 0.  0.
         11    1    3    3    0    0 -0.33601022147E+00  0.44909857229E+02 -0.13206069427E+02  0.46812481767E+02  0.51100000000E-03 0.  1.
         22    1    1    0    0    0 -0.69820964668E+01 -0.13726122625E+02 -0.24416065315E+02  0.28866942320E+02  0.00000000000E+00 0.  1.
</event>
<event>
 5    1  0.1047411E-009  0.9118800E+02  0.7815553E-02  0.1125453E+00
         25   -1    0    0    0    0  0.00000000000E+00  0.00000000000E+00  0.99999998245E-14  0.12509000000E+03  0.12509000000E+03 0.  0.
        -11    1    3    3    0    0  0.16552094956E+02  0.17839223687E+01 -0.53483335129E+02  0.56014474587E+02  0.51100000000E-03 0.  1.
         23    2    1    0    0    0 -0.81509127506E+01 -0.11599732382E+02 -0.26847490312E+02  0.94729187988E+02  0.89732046398E+02 0.  0.
         11    1    3    3    0    0 -0.24703007707E+02 -0.13383654751E+02  0.26635844818E+02  0.38714713400E+02  0.51100000000E-03 0. -1.
         22    1    1    0    0    0  0.81509127506E+01  0.11599732382E+02  0.26847490312E+02  0.30360812012E+02  0.00000000000E+00 0.  1.
</event>
<event>
 5    1  0.1047411E-009  0.9118800E+02  0.7815553E-02  0.1125453E+00
         25   -1    0    0    0    0  0.00000000000E+00  0.00000000000E+00  0.99999998245E-14  0.12509000000E+03  0.12509000000E+03 0.  0.
        -11    1    3    3    0    0 -0.25948990079E+02  0.15306078524E+02  0.11655418750E+02  0.32302862294E+02  0.51100000000E-03 0. -1.
         23    2    1    0    0    0  0.24905247584E+02 -0.17406346855E+02  0.11005182130E+02  0.92773343277E+02  0.86962790440E+02 0.  0.
         11    1    3    3    0    0  0.50854237662E+02 -0.32712425379E+02 -0.65023661976E+00  0.60470480983E+02  0.51100000000E-03 0.  1.
         22    1    1    0    0    0 -0.24905247584E+02  0.17406346855E+02 -0.11005182130E+02  0.32316656723E+02  0.00000000000E+00 0.  1.
</event>
<event>
 5    1  0.1047411E-009  0.9118800E+02  0.7815553E-02  0.1125453E+00
         25   -1    0    0    0    0  0.00000000000E+00  0.00000000000E+00  0.99999998245E-14  0.12509000000E+03  0.12509000000E+03 0.  0.
        -11    1    3    3    0    0  0.36779386374E+01 -0.29692203992E+02  0.49424439480E+02  0.57774816561E+02  0.51100000000E-03 0.  1.
         23    2    1    0    0    0 -0.13116234823E+02 -0.22183965708E+02  0.20034781886E+02  0.92447138059E+02  0.86492293874E+02 0.  0.
         11    1    3    3    0    0 -0.16794173460E+02  0.75082382834E+01 -0.29389657594E+02  0.34672321498E+02  0.51100000000E-03 0. -1.
         22    1    1    0    0    0  0.13116234823E+02  0.22183965708E+02 -0.20034781886E+02  0.32642861941E+02  0.00000000000E+00 0.  1.
</event>
<event>
 5    1  0.1047411E-009  0.9118800E+02  0.7815553E-02  0.1125453E+00
         25   -1    0    0    0    0  0.00000000000E+00  0.00000000000E+00  0.99999998245E-14  0.12509000000E+03  0.12509000000E+03 0.  0.
        -11    1    3    3    0    0  0.29116906118E+02  0.21460688195E+02 -0.24434329789E+02  0.43650794176E+02  0.51100000000E-03 0.  1.
         23    2    1    0    0    0 -0.21318488033E+02  0.86424111826E+01 -0.17577491352E+02  0.96139397151E+02  0.91676857927E+02 0.  0.
         11    1    3    3    0    0 -0.50435394151E+02 -0.12818277013E+02  0.68568384372E+01  0.52488602975E+02  0.51100000000E-03 0. -1.
         22    1    1    0    0    0  0.21318488033E+02 -0.86424111826E+01  0.17577491352E+02  0.28950602849E+02  0.00000000000E+00 0. -1.
</event>
<event>
 5    1  0.1047411E-009  0.9118800E+02  0.7815553E-02  0.1125453E+00
         25   -1    0    0    0    0  0.00000000000E+00  0.00000000000E+00  0.99999998245E-14  0.12509000000E+03  0.12509000000E+03 0.  0.
        -11    1    3    3    0    0 -0.25884468956E+02  0.10657407847E+02  0.20183332112E+02  0.34510186475E+02  0.51100000000E-03 0. -1.
         23    2    1    0    0    0  0.14620500295E+02  0.20878627771E+02 -0.20165364102E+02  0.92588953311E+02  0.86697152430E+02 0.  0.
         11    1    3    3    0    0  0.40504969251E+02  0.10221219924E+02 -0.40348696214E+02  0.58078766836E+02  0.51100000000E-03 0.  1.
         22    1    1    0    0    0 -0.14620500295E+02 -0.20878627771E+02  0.20165364102E+02  0.32501046689E+02  0.00000000000E+00 0.  1.
</event>
<event>
 5    1  0.1047411E-009  0.9118800E+02  0.7815553E-02  0.1125453E+00
         25   -1    0    0    0    0  0.00000000000E+00  0.00000000000E+00  0.99999998245E-14  0.12509000000E+03  0.12509000000E+03 0.  0.
        -11    1    3    3    0    0  0.47150373293E+01  0.16903849334E+02 -0.31981484341E+02  0.36479953950E+02  0.51100000000E-03 0.  1.
         23    2    1    0    0    0 -0.10565157697E+02  0.98910359391E+01  0.25171502022E+02  0.96054510282E+02  0.91560959379E+02 0.  0.
         11    1    3    3    0    0 -0.15280195026E+02 -0.70128133945E+01  0.57152986363E+02  0.59574556332E+02  0.51100000000E-03 0. -1.
         22    1    1    0    0    0  0.10565157697E+02 -0.98910359391E+01 -0.25171502022E+02  0.29035489718E+02  0.00000000000E+00 0. -1.
</event>
<event>
 5    1  0.1047411E-009  0.9118800E+02  0.7815553E-02  0.1125453E+00
         25   -1    0    0    0    0  0.00000000000E+00  0.00000000000E+00  0.99999998245E-14  0.12509000000E+03  0.12509000000E+03 0.  0.
        -11    1    3    3    0    0 -0.30722988828E+02  0.44463909573E+02  0.54900881796E+01  0.54323865525E+02  0.51100000000E-03 0.  1.
         23    2    1    0    0    0 -0.31082926326E+02  0.55898381277E+01  0.42927045657E+01  0.93218038784E+02  0.87600118966E+02 0.  0.
         11    1    3    3    0    0 -0.35993749751E+00 -0.38874071445E+02 -0.11973836139E+01  0.38894173259E+02  0.51100000000E-03 0. -1.
         22    1    1    0    0    0  0.31082926326E+02 -0.55898381277E+01 -0.42927045657E+01  0.31871961216E+02  0.00000000000E+00 0.  1.
</event>
<event>
 5    1  0.1047411E-009  0.9118800E+02  0.7815553E-02  0.1125453E+00
         25   -1    0    0    0    0  0.00000000000E+00  0.00000000000E+00  0.99999998245E-14  0.12509000000E+03  0.12509000000E+03 0.  0.
        -11    1    3    3    0    0  0.18195148921E+02 -0.43772276387E+02 -0.13842066663E+01  0.47423534798E+02  0.51100000000E-03 0.  1.
         23    2    1    0    0    0  0.27566492867E+02  0.33579887066E+01  0.75763708632E+01  0.96304777879E+02  0.91902237349E+02 0.  0.
         11    1    3    3    0    0  0.93713439453E+01  0.47130265094E+02  0.89605775295E+01  0.48881243080E+02  0.51100000000E-03 0. -1.
         22    1    1    0    0    0 -0.27566492867E+02 -0.33579887066E+01 -0.75763708632E+01  0.28785222121E+02  0.00000000000E+00 0. -1.
</event>
<event>
 5    1  0.1047411E-009  0.9118800E+02  0.7815553E-02  0.1125453E+00
         25   -1    0    0    0    0  0.00000000000E+00  0.00000000000E+00  0.99999998245E-14  0.12509000000E+03  0.12509000000E+03 0.  0.
        -11    1    3    3    0    0  0.93424040979E+01  0.35548773643E+02 -0.83388983346E+01  0.37689959506E+02  0.51100000000E-03 0. -1.
         23    2    1    0    0    0 -0.19090737425E+01 -0.14774274377E+02 -0.28399729625E+02  0.93020257427E+02  0.87317237147E+02 0.  0.
         11    1    3    3    0    0 -0.11251477840E+02 -0.50323048021E+02 -0.20060831290E+02  0.55330297921E+02  0.51100000000E-03 0.  1.
         22    1    1    0    0    0  0.19090737425E+01  0.14774274377E+02  0.28399729625E+02  0.32069742573E+02  0.00000000000E+00 0.  1.
</event>
<event>
 5    1  0.1047411E-009  0.9118800E+02  0.7815553E-02  0.1125453E+00
         25   -1    0    0    0    0  0.00000000000E+00  0.00000000000E+00  0.99999998245E-14  0.12509000000E+03  0.12509000000E+03 0.  0.
        -11    1    3    3    0    0  0.51426776906E+02 -0.33310954183E+02 -0.14528381118E+01  0.61289834315E+02  0.51100000000E-03 0.  1.
         23    2    1    0    0    0  0.21116437491E+02 -0.17987571234E+02 -0.87012087432E+01  0.96018232169E+02  0.91511383029E+02 0.  0.
         11    1    3    3    0    0 -0.30310339415E+02  0.15323382948E+02 -0.72483706315E+01  0.34728397854E+02  0.51100000000E-03 0. -1.
         22    1    1    0    0    0 -0.21116437491E+02  0.17987571234E+02  0.87012087432E+01  0.29071767831E+02  0.00000000000E+00 0.  1.
</event>
<event>
 5    1  0.1047411E-009  0.9118800E+02  0.7815553E-02  0.1125453E+00
         25   -1    0    0    0    0  0.00000000000E+00  0.00000000000E+00  0.99999998245E-14  0.12509000000E+03  0.12509000000E+03 0.  0.
        -11    1    3    3    0    0 -0.13385719759E+02 -0.48036191558E+02  0.35815039935E+02  0.61395197521E+02  0.51100000000E-03 0.  1.
         23    2    1    0    0    0 -0.37304197531E+00 -0.14056528695E+02  0.18931770849E+02  0.10150744062E+03  0.98730053151E+02 0.  0.
         11    1    3    3    0    0  0.13012677783E+02  0.33979662863E+02 -0.16883269086E+02  0.40112243102E+02  0.51100000000E-03 0. -1.
         22    1    1    0    0    0  0.37304197531E+00  0.14056528695E+02 -0.18931770849E+02  0.23582559376E+02  0.00000000000E+00 0.  1.
</event>
<event>
 5    1  0.1047411E-009  0.9118800E+02  0.7815553E-02  0.1125453E+00
         25   -1    0    0    0    0  0.00000000000E+00  0.00000000000E+00  0.99999998245E-14  0.12509000000E+03  0.12509000000E+03 0.  0.
        -11    1    3    3    0    0 -0.34814003927E+02  0.94350737579E+01 -0.11184423102E+02  0.37764094145E+02  0.51100000000E-03 0. -1.
         23    2    1    0    0    0  0.14662131082E+02 -0.20826288917E+02 -0.14365686260E+02  0.95848157725E+02  0.91278606472E+02 0.  0.
         11    1    3    3    0    0  0.49476135009E+02 -0.30261362675E+02 -0.31812631584E+01  0.58084063579E+02  0.51100000000E-03 0.  1.
         22    1    1    0    0    0 -0.14662131082E+02  0.20826288917E+02  0.14365686260E+02  0.29241842275E+02  0.00000000000E+00 0.  1.
</event>
<event>
 5    1  0.1047411E-009  0.9118800E+02  0.7815553E-02  0.1125453E+00
         25   -1    0    0    0    0  0.00000000000E+00  0.00000000000E+00  0.99999998245E-14  0.12509000000E+03  0.12509000000E+03 0.  0.
        -11    1    3    3    0    0  0.24112992819E+02 -0.10241242088E+01 -0.55537434599E+02  0.60554866817E+02  0.51100000000E-03 0. -1.
         23    2    1    0    0    0  0.15601777048E+02 -0.10143056689E+02 -0.22362308411E+02  0.95997563121E+02  0.91483125448E+02 0.  0.
         11    1    3    3    0    0 -0.85112157708E+01 -0.91189324802E+01  0.33175126188E+02  0.35442696304E+02  0.51100000000E-03 0.  1.
         22    1    1    0    0    0 -0.15601777048E+02  0.10143056689E+02  0.22362308411E+02  0.29092436879E+02  0.00000000000E+00 0. -1.
</event>
<event>
 5    1  0.1047411E-009  0.9118800E+02  0.7815553E-02  0.1125453E+00
         25   -1    0    0    0    0  0.00000000000E+00  0.00000000000E+00  0.99999998245E-14  0.12509000000E+03  0.12509000000E+03 0.  0.
        -11    1    3    3    0    0 -0.48667680835E+01 -0.85211738892E+01 -0.54836445932E+02  0.55707554593E+02  0.51100000000E-03 0. -1.
         23    2    1    0    0    0 -0.19878101008E+02 -0.12078985230E+02 -0.17889667373E+02  0.95745818591E+02  0.91138250998E+02 0.  0.
         11    1    3    3    0    0 -0.15011332925E+02 -0.35578113412E+01  0.36946778560E+02  0.40038263997E+02  0.51100000000E-03 0.  1.
         22    1    1    0    0    0  0.19878101008E+02  0.12078985230E+02  0.17889667373E+02  0.29344181409E+02  0.00000000000E+00 0. -1.
</event>
<event>
 5    1  0.1047411E-009  0.9118800E+02  0.7815553E-02  0.1125453E+00
         25   -1    0    0    0    0  0.00000000000E+00  0.00000000000E+00  0.99999998245E-14  0.12509000000E+03  0.12509000000E+03 0.  0.
        -11    1    3    3    0    0  0.30789441408E+01  0.32259419074E+02 -0.20361813075E+02  0.38272097512E+02  0.51100000000E-03 0.  1.
         23    2    1    0    0    0 -0.19056522037E+02 -0.19202881706E+02 -0.13928736841E+02  0.94661207583E+02  0.89637228946E+02 0.  0.
         11    1    3    3    0    0 -0.22135466178E+02 -0.51462300780E+02  0.64330762345E+01  0.56389110071E+02  0.51100000000E-03 0. -1.
         22    1    1    0    0    0  0.19056522037E+02  0.19202881706E+02  0.13928736841E+02  0.30428792417E+02  0.00000000000E+00 0. -1.
</event>
<event>
 5    1  0.1047411E-009  0.9118800E+02  0.7815553E-02  0.1125453E+00
         25   -1    0    0    0    0  0.00000000000E+00  0.00000000000E+00  0.99999998245E-14  0.12509000000E+03  0.12509000000E+03 0.  0.
        -11    1    3    3    0    0 -0.22536392277E+02  0.29280656869E+01 -0.51584246388E+02  0.56368404459E+02  0.51100000000E-03 0. -1.
         23    2    1    0    0    0 -0.18481155505E+02 -0.15664068748E+02 -0.18223575536E+02  0.94774742062E+02  0.89795528113E+02 0.  0.
         11    1    3    3    0    0  0.40552367729E+01 -0.18592134435E+02  0.33360670852E+02  0.38406337604E+02  0.51100000000E-03 0.  1.
         22    1    1    0    0    0  0.18481155505E+02  0.15664068748E+02  0.18223575536E+02  0.30315257938E+02  0.00000000000E+00 0. -1.
</event>
<event>
 5    1  0.1047411E-009  0.9118800E+02  0.7815553E-02  0.1125453E+00
         25   -1    0    0    0    0  0.00000000000E+00  0.00000000000E+00  0.99999998245E-14  0.12509000000E+03  0.12509000000E+03 0.  0.
        -11    1    3    3    0    0  0.17793931903E+02 -0.34190245337E+02 -0.16061907982E+02  0.41756218424E+02  0.51100000000E-03 0.  1.
         23    2    1    0    0    0  0.24393136147E+02  0.17208592136E+02 -0.78420056814E+01  0.94224845092E+02  0.89026196397E+02 0.  0.
         11    1    3    3    0    0  0.65992042439E+01  0.51398837474E+02  0.82199023002E+01  0.52468626668E+02  0.51100000000E-03 0. -1.
         22    1    1    0    0    0 -0.24393136147E+02 -0.17208592136E+02  0.78420056814E+01  0.30865154908E+02  0.00000000000E+00 0. -1.
</event>
<event>
 5    1  0.1047411E-009  0.9118800E+02  0.7815553E-02  0.1125453E+00
         25   -1    0    0    0    0  0.00000000000E+00  0.00000000000E+00  0.99999998245E-14  0.12509000000E+03  0.12509000000E+03 0.  0.
        -11    1    3    3    0    0 -0.22319373952E+02  0.37409126635E+02  0.29330059988E+01  0.43660047339E+02  0.51100000000E-03 0. -1.
         23    2    1    0    0    0  0.16052592769E+02  0.77884850367E+01 -0.20844342880E+02  0.97652200090E+02  0.93718297672E+02 0.  0.
         11    1    3    3    0    0  0.38371966721E+02 -0.29620641598E+02 -0.23777348879E+02  0.53992152751E+02  0.51100000000E-03 0.  1.
         22    1    1    0    0    0 -0.16052592769E+02 -0.77884850367E+01  0.20844342880E+02  0.27437799910E+02  0.00000000000E+00 0.  1.
</event>
<event>
 5    1  0.1047411E-009  0.9118800E+02  0.7815553E-02  0.1125453E+00
         25   -1    0    0    0    0  0.00000000000E+00  0.00000000000E+00  0.99999998245E-14  0.12509000000E+03  0.12509000000E+03 0.  0.
        -11    1    3    3    0    0 -0.21057359587E+02 -0.37663672798E+02  0.34730115233E+02  0.55390843519E+02  0.51100000000E-03 0.  1.
         23    2    1    0    0    0 -0.20838478831E+02  0.64337217988E+00  0.19268334875E+02  0.96701184305E+02  0.92440219544E+02 0.  0.
         11    1    3    3    0    0  0.21888075675E+00  0.38307044978E+02 -0.15461780358E+02  0.41310340786E+02  0.51100000000E-03 0. -1.
         22    1    1    0    0    0  0.20838478831E+02 -0.64337217988E+00 -0.19268334875E+02  0.28388815695E+02  0.00000000000E+00 0.  1.
</event>
<event>
 5    1  0.1047411E-009  0.9118800E+02  0.7815553E-02  0.1125453E+00
         25   -1    0    0    0    0  0.00000000000E+00  0.00000000000E+00  0.99999998245E-14  0.12509000000E+03  0.12509000000E+03 0.  0.
        -11    1    3    3    0    0 -0.30824129416E+02  0.10813930074E+02  0.33262127605E+02  0.46620136969E+02  0.51100000000E-03 0.  1.
         23    2    1    0    0    0 -0.31948499900E+01 -0.25280023998E+02  0.14289238606E+02  0.95875807905E+02  0.91316490963E+02 0.  0.
         11    1    3    3    0    0  0.27629279426E+02 -0.36093954071E+02 -0.18972888999E+02  0.49255670936E+02  0.51100000000E-03 0. -1.
         22    1    1    0    0    0  0.31948499900E+01  0.25280023998E+02 -0.14289238606E+02  0.29214192095E+02  0.00000000000E+00 0. -1.
</event>
<event>
 5    1  0.1047411E-009  0.9118800E+02  0.7815553E-02  0.1125453E+00
         25   -1    0    0    0    0  0.00000000000E+00  0.00000000000E+00  0.99999998245E-14  0.12509000000E+03  0.12509000000E+03 0.  0.
        -11    1    3    3    0    0 -0.59949894762E+01 -0.36122034424E+02  0.30804474460E+02  0.47850359631E+02  0.51100000000E-03 0.  1.
         23    2    1    0    0    0  0.16133094329E+02  0.55191804479E+01  0.24229713630E+02  0.95462021533E+02  0.90747895002E+02 0.  0.
         11    1    3    3    0    0  0.22128083805E+02  0.41641214872E+02 -0.65747608305E+01  0.47611661903E+02  0.51100000000E-03 0. -1.
         22    1    1    0    0    0 -0.16133094329E+02 -0.55191804479E+01 -0.24229713630E+02  0.29627978467E+02  0.00000000000E+00 0.  1.
</event>
<event>
 5    1  0.1047411E-009  0.9118800E+02  0.7815553E-02  0.1125453E+00
         25   -1    0    0    0    0  0.00000000000E+00  0.00000000000E+00  0.99999998245E-14  0.12509000000E+03  0.12509000000E+03 0.  0.
        -11    1    3    3    0    0 -0.20653195268E+02 -0.52212454383E+02  0.22318374160E+01  0.56193202133E+02  0.51100000000E-03 0. -1.
         23    2    1    0    0    0 -0.19052909397E+02 -0.16047920675E+02 -0.14708669005E+02  0.96160878714E+02  0.91706164115E+02 0.  0.
         11    1    3    3    0    0  0.16002858707E+01  0.36164533709E+02 -0.16940506421E+02  0.39967676581E+02  0.51100000000E-03 0.  1.
         22    1    1    0    0    0  0.19052909397E+02  0.16047920675E+02  0.14708669005E+02  0.28929121286E+02  0.00000000000E+00 0. -1.
</event>
<event>
 5    1  0.1047411E-009  0.9118800E+02  0.7815553E-02  0.1125453E+00
         25   -1    0    0    0    0  0.00000000000E+00  0.00000000000E+00  0.99999998245E-14  0.12509000000E+03  0.12509000000E+03 0.  0.
        -11    1    3    3    0    0 -0.30190234661E+02 -0.15049781685E+02  0.14965986800E+01  0.33766640424E+02  0.51100000000E-03 0. -1.
         23    2    1    0    0    0  0.10380299002E+02  0.27508621543E+02  0.11704476257E+02  0.93443995023E+02  0.87922184770E+02 0.  0.
         11    1    3    3    0    0  0.40570533663E+02  0.42558403228E+02  0.10207877577E+02  0.59677354599E+02  0.51100000000E-03 0.  1.
         22    1    1    0    0    0 -0.10380299002E+02 -0.27508621543E+02 -0.11704476257E+02  0.31646004977E+02  0.00000000000E+00 0.  1.
</event>
<event>
 5    1  0.1047411E-009  0.9118800E+02  0.7815553E-02  0.1125453E+00
         25   -1    0    0    0    0  0.00000000000E+00  0.00000000000E+00  0.99999998245E-14  0.12509000000E+03  0.12509000000E+03 0.  0.
        -11    1    3    3    0    0  0.16342436407E+02  0.12257415935E+02 -0.41321990533E+02  0.46095839020E+02  0.51100000000E-03 0.  1.
         23    2    1    0    0    0  0.32261853730E+02 -0.30055620625E+01 -0.28089703939E+00  0.92687229863E+02  0.86838833865E+02 0.  0.
         11    1    3    3    0    0  0.15919417323E+02 -0.15262977998E+02  0.41041093493E+02  0.46591390843E+02  0.51100000000E-03 0. -1.
         22    1    1    0    0    0 -0.32261853730E+02  0.30055620625E+01  0.28089703939E+00  0.32402770137E+02  0.00000000000E+00 0. -1.
</event>
<event>
 5    1  0.1047411E-009  0.9118800E+02  0.7815553E-02  0.1125453E+00
         25   -1    0    0    0    0  0.00000000000E+00  0.00000000000E+00  0.99999998245E-14  0.12509000000E+03  0.12509000000E+03 0.  0.
        -11    1    3    3    0    0 -0.25399103555E+01 -0.40090880580E+02 -0.43181624602E+02  0.58977814081E+02  0.51100000000E-03 0.  1.
         23    2    1    0    0    0 -0.46295593903E+01 -0.65661849008E+01 -0.28219285067E+02  0.95749317424E+02  0.91143053126E+02 0.  0.
         11    1    3    3    0    0 -0.20896490348E+01  0.33524695679E+02  0.14962339535E+02  0.36771503343E+02  0.51100000000E-03 0. -1.
         22    1    1    0    0    0  0.46295593903E+01  0.65661849008E+01  0.28219285067E+02  0.29340682576E+02  0.00000000000E+00 0.  1.
</event>
<event>
 5    1  0.1047411E-009  0.9118800E+02  0.7815553E-02  0.1125453E+00
         25   -1    0    0    0    0  0.00000000000E+00  0.00000000000E+00  0.99999998245E-14  0.12509000000E+03  0.12509000000E+03 0.  0.
        -11    1    3    3    0    0  0.36205567470E+02  0.46588084176E+02  0.12807519410E+02  0.60376529022E+02  0.51100000000E-03 0.  1.
         23    2    1    0    0    0  0.19300968616E+02  0.12945435452E+02  0.13838539754E+02  0.98041582836E+02  0.94236591056E+02 0.  0.
         11    1    3    3    0    0 -0.16904598854E+02 -0.33642648724E+02  0.10310203443E+01  0.37665053814E+02  0.51100000000E-03 0. -1.
         22    1    1    0    0    0 -0.19300968616E+02 -0.12945435452E+02 -0.13838539754E+02  0.27048417164E+02  0.00000000000E+00 0.  1.
</event>
<event>
 5    1  0.1047411E-009  0.9118800E+02  0.7815553E-02  0.1125453E+00
         25   -1    0    0    0    0  0.00000000000E+00  0.00000000000E+00  0.99999998245E-14  0.12509000000E+03  0.12509000000E+03 0.  0.
        -11    1    3    3    0    0  0.20459680086E+02 -0.12466336450E+02 -0.28525928912E+02  0.37252337836E+02  0.51100000000E-03 0. -1.
         23    2    1    0    0    0 -0.10242890115E+02 -0.21294087645E+02  0.19172546362E+02  0.94660713112E+02  0.89636538902E+02 0.  0.
         11    1    3    3    0    0 -0.30702570201E+02 -0.88277511950E+01  0.47698475273E+02  0.57408375276E+02  0.51100000000E-03 0.  1.
         22    1    1    0    0    0  0.10242890115E+02  0.21294087645E+02 -0.19172546362E+02  0.30429286888E+02  0.00000000000E+00 0.  1.
</event>
<event>
 5    1  0.1047411E-009  0.9118800E+02  0.7815553E-02  0.1125453E+00
         25   -1    0    0    0    0  0.00000000000E+00  0.00000000000E+00  0.99999998245E-14  0.12509000000E+03  0.12509000000E+03 0.  0.
        -11    1    3    3    0    0  0.11747939843E+02  0.30330460853E+02  0.70213395461E+01  0.33275368599E+02  0.51100000000E-03 0. -1.
         23    2    1    0    0    0  0.14408177247E+01 -0.29452473115E+02 -0.51681744809E+01  0.95152829864E+02  0.90320689077E+02 0.  0.
         11    1    3    3    0    0 -0.10307122118E+02 -0.59782933968E+02 -0.12189514027E+02  0.61877461265E+02  0.51100000000E-03 0.  1.
         22    1    1    0    0    0 -0.14408177247E+01  0.29452473115E+02  0.51681744809E+01  0.29937170136E+02  0.00000000000E+00 0.  1.
</event>
<event>
 5    1  0.1047411E-009  0.9118800E+02  0.7815553E-02  0.1125453E+00
         25   -1    0    0    0    0  0.00000000000E+00  0.00000000000E+00  0.99999998245E-14  0.12509000000E+03  0.12509000000E+03 0.  0.
        -11    1    3    3    0    0  0.17932596303E+01  0.19738920378E+02  0.35042120570E+02  0.40259048325E+02  0.51100000000E-03 0. -1.
         23    2    1    0    0    0 -0.23990880275E+02 -0.94627347013E+01  0.37820007609E+02  0.79313819951E+02  0.64770544040E+02 0.  0.
         11    1    3    3    0    0 -0.25784139905E+02 -0.29201655079E+02  0.27778870390E+01  0.39054771625E+02  0.51100000000E-03 0.  1.
         22    1    1    0    0    0  0.23990880275E+02  0.94627347013E+01 -0.37820007609E+02  0.45776180049E+02  0.00000000000E+00 0.  1.
</event>
<event>
 5    1  0.1047411E-009  0.9118800E+02  0.7815553E-02  0.1125453E+00
         25   -1    0    0    0    0  0.00000000000E+00  0.00000000000E+00  0.99999998245E-14  0.12509000000E+03  0.12509000000E+03 0.  0.
        -11    1    3    3    0    0 -0.43626362583E+02 -0.31673632984E+02 -0.30836750929E+02  0.62107839656E+02  0.51100000000E-03 0. -1.
         23    2    1    0    0    0 -0.23165782417E+02 -0.22921585808E+02 -0.19918403293E+02  0.86895820330E+02  0.78051830408E+02 0.  0.
         11    1    3    3    0    0  0.20460580166E+02  0.87520471758E+01  0.10918347636E+02  0.24787980673E+02  0.51100000000E-03 0.  1.
         22    1    1    0    0    0  0.23165782417E+02  0.22921585808E+02  0.19918403293E+02  0.38194179670E+02  0.00000000000E+00 0. -1.
</event>
<event>
 5    1  0.1047411E-009  0.9118800E+02  0.7815553E-02  0.1125453E+00
         25   -1    0    0    0    0  0.00000000000E+00  0.00000000000E+00  0.99999998245E-14  0.12509000000E+03  0.12509000000E+03 0.  0.
        -11    1    3    3    0    0 -0.30806321857E+02 -0.26384847421E+02  0.17421675513E+00  0.40561311512E+02  0.51100000000E-03 0.  1.
         23    2    1    0    0    0  0.23665188667E+02 -0.15716120149E+02 -0.47557305870E+01  0.96286275231E+02  0.91877049567E+02 0.  0.
         11    1    3    3    0    0  0.54471510524E+02  0.10668727272E+02 -0.49299473421E+01  0.55724963719E+02  0.51100000000E-03 0. -1.
         22    1    1    0    0    0 -0.23665188667E+02  0.15716120149E+02  0.47557305870E+01  0.28803724769E+02  0.00000000000E+00 0. -1.
</event>
<event>
 5    1  0.1047411E-009  0.9118800E+02  0.7815553E-02  0.1125453E+00
         25   -1    0    0    0    0  0.00000000000E+00  0.00000000000E+00  0.99999998245E-14  0.12509000000E+03  0.12509000000E+03 0.  0.
        -11    1    3    3    0    0  0.71623662914E+01 -0.13887850928E+02 -0.58224201211E+02  0.60284571005E+02  0.51100000000E-03 0.  1.
         23    2    1    0    0    0 -0.79696210510E+01 -0.33515461565E+01 -0.28903205525E+02  0.94921423452E+02  0.89999631217E+02 0.  0.
         11    1    3    3    0    0 -0.15131987342E+02  0.10536304771E+02  0.29320995686E+02  0.34636852447E+02  0.51100000000E-03 0. -1.
         22    1    1    0    0    0  0.79696210510E+01  0.33515461565E+01  0.28903205525E+02  0.30168576548E+02  0.00000000000E+00 0.  1.
</event>
<event>
 5    1  0.1047411E-009  0.9118800E+02  0.7815553E-02  0.1125453E+00
         25   -1    0    0    0    0  0.00000000000E+00  0.00000000000E+00  0.99999998245E-14  0.12509000000E+03  0.12509000000E+03 0.  0.
        -11    1    3    3    0    0 -0.39523037917E+02  0.64274755831E+01  0.39432954585E+01  0.40235960880E+02  0.51100000000E-03 0. -1.
         23    2    1    0    0    0  0.99455982970E+01  0.20016152880E+02 -0.18349890539E+02  0.96171497542E+02  0.91720647376E+02 0.  0.
         11    1    3    3    0    0  0.49468636214E+02  0.13588677296E+02 -0.22293185998E+02  0.55935536663E+02  0.51100000000E-03 0.  1.
         22    1    1    0    0    0 -0.99455982970E+01 -0.20016152880E+02  0.18349890539E+02  0.28918502458E+02  0.00000000000E+00 0.  1.
</event>
<event>
 5    1  0.1047411E-009  0.9118800E+02  0.7815553E-02  0.1125453E+00
         25   -1    0    0    0    0  0.00000000000E+00  0.00000000000E+00  0.99999998245E-14  0.12509000000E+03  0.12509000000E+03 0.  0.
        -11    1    3    3    0    0  0.38351119728E+02 -0.42714279434E+02 -0.97081308505E+01  0.58219978159E+02  0.51100000000E-03 0.  1.
         23    2    1    0    0    0  0.24179931441E+02 -0.97782284614E+01 -0.15809055131E+02  0.94590671148E+02  0.89538740262E+02 0.  0.
         11    1    3    3    0    0 -0.14171188288E+02  0.32936050972E+02 -0.61009242803E+01  0.36370692989E+02  0.51100000000E-03 0. -1.
         22    1    1    0    0    0 -0.24179931441E+02  0.97782284614E+01  0.15809055131E+02  0.30499328852E+02  0.00000000000E+00 0.  1.
</event>
<event>
 5    1  0.1047411E-009  0.9118800E+02  0.7815553E-02  0.1125453E+00
         25   -1    0    0    0    0  0.00000000000E+00  0.00000000000E+00  0.99999998245E-14  0.12509000000E+03  0.12509000000E+03 0.  0.
        -11    1    3    3    0    0  0.22947642825E+02  0.53174539005E+02  0.11421728229E+02  0.59030346311E+02  0.51100000000E-03 0.  1.
         23    2    1    0    0    0 -0.24595257142E+01  0.24135163385E+02  0.12839973882E+02  0.97641497169E+02  0.93704010916E+02 0.  0.
         11    1    3    3    0    0 -0.25407168539E+02 -0.29039375620E+02  0.14182456532E+01  0.38611150858E+02  0.51100000000E-03 0. -1.
         22    1    1    0    0    0  0.24595257142E+01 -0.24135163385E+02 -0.12839973882E+02  0.27448502831E+02  0.00000000000E+00 0.  1.
</event>
<event>
 5    1  0.1047411E-009  0.9118800E+02  0.7815553E-02  0.1125453E+00
         25   -1    0    0    0    0  0.00000000000E+00  0.00000000000E+00  0.99999998245E-14  0.12509000000E+03  0.12509000000E+03 0.  0.
        -11    1    3    3    0    0  0.17057210376E+02 -0.11915950290E+02  0.50534849434E+02  0.54650794182E+02  0.51100000000E-03 0. -1.
         23    2    1    0    0    0  0.12666806693E+02 -0.23360320661E+02  0.10504850619E+02  0.96515457839E+02  0.92188552121E+02 0.  0.
         11    1    3    3    0    0 -0.43904036821E+01 -0.11444370371E+02 -0.40029998815E+02  0.41864663657E+02  0.51100000000E-03 0.  1.
         22    1    1    0    0    0 -0.12666806693E+02  0.23360320661E+02 -0.10504850619E+02  0.28574542161E+02  0.00000000000E+00 0. -1.
</event>
<event>
 5    1  0.1047411E-009  0.9118800E+02  0.7815553E-02  0.1125453E+00
         25   -1    0    0    0    0  0.00000000000E+00  0.00000000000E+00  0.99999998245E-14  0.12509000000E+03  0.12509000000E+03 0.  0.
        -11    1    3    3    0    0  0.34405402976E+02  0.21464341908E+02 -0.44402138169E+02  0.60133182202E+02  0.51100000000E-03 0.  1.
         23    2    1    0    0    0  0.21903366963E+02 -0.75488539491E+00 -0.20514042417E+02  0.95070784944E+02  0.90206989071E+02 0.  0.
         11    1    3    3    0    0 -0.12502036013E+02 -0.22219227303E+02  0.23888095752E+02  0.34937602742E+02  0.51100000000E-03 0. -1.
         22    1    1    0    0    0 -0.21903366963E+02  0.75488539491E+00  0.20514042417E+02  0.30019215056E+02  0.00000000000E+00 0. -1.
</event>
<event>
 5    1  0.1047411E-009  0.9118800E+02  0.7815553E-02  0.1125453E+00
         25   -1    0    0    0    0  0.00000000000E+00  0.00000000000E+00  0.99999998245E-14  0.12509000000E+03  0.12509000000E+03 0.  0.
        -11    1    3    3    0    0 -0.33449455154E+02 -0.19201608572E+02  0.38222526242E+02  0.54300362194E+02  0.51100000000E-03 0. -1.
         23    2    1    0    0    0 -0.60510706217E+01 -0.28627846317E+02  0.11712698658E+02  0.93572443777E+02  0.88104743823E+02 0.  0.
         11    1    3    3    0    0  0.27398384533E+02 -0.94262377452E+01 -0.26509827584E+02  0.39272081583E+02  0.51100000000E-03 0.  1.
         22    1    1    0    0    0  0.60510706217E+01  0.28627846317E+02 -0.11712698658E+02  0.31517556223E+02  0.00000000000E+00 0. -1.
</event>
<event>
 5    1  0.1047411E-009  0.9118800E+02  0.7815553E-02  0.1125453E+00
         25   -1    0    0    0    0  0.00000000000E+00  0.00000000000E+00  0.99999998245E-14  0.12509000000E+03  0.12509000000E+03 0.  0.
        -11    1    3    3    0    0 -0.13412748133E+02 -0.36657240436E+02  0.22152115654E+01  0.39096831731E+02  0.51100000000E-03 0.  1.
         23    2    1    0    0    0  0.89287888906E+00  0.12502441309E+02  0.26509001944E+02  0.95767048998E+02  0.91167385716E+02 0.  0.
         11    1    3    3    0    0  0.14305627022E+02  0.49159681746E+02  0.24293790379E+02  0.56670217267E+02  0.51100000000E-03 0. -1.
         22    1    1    0    0    0 -0.89287888906E+00 -0.12502441309E+02 -0.26509001944E+02  0.29322951002E+02  0.00000000000E+00 0. -1.
</event>
<event>
 5    1  0.1047411E-009  0.9118800E+02  0.7815553E-02  0.1125453E+00
         25   -1    0    0    0    0  0.00000000000E+00  0.00000000000E+00  0.99999998245E-14  0.12509000000E+03  0.12509000000E+03 0.  0.
        -11    1    3    3    0    0 -0.95333109620E+01  0.55836624877E+02 -0.11498528075E+02  0.57799903492E+02  0.51100000000E-03 0.  1.
         23    2    1    0    0    0  0.11520828194E+02  0.28791513643E+02  0.38775632563E+00  0.94076598138E+02  0.88817651523E+02 0.  0.
         11    1    3    3    0    0  0.21054139156E+02 -0.27045111235E+02  0.11886284400E+02  0.36276694645E+02  0.51100000000E-03 0. -1.
         22    1    1    0    0    0 -0.11520828194E+02 -0.28791513643E+02 -0.38775632563E+00  0.31013401862E+02  0.00000000000E+00 0.  1.
</event>
<event>
 5    1  0.1047411E-009  0.9118800E+02  0.7815553E-02  0.1125453E+00
         25   -1    0    0    0    0  0.00000000000E+00  0.00000000000E+00  0.99999998245E-14  0.12509000000E+03  0.12509000000E+03 0.  0.
        -11    1    3    3    0    0  0.17128835612E+02  0.23731846290E+02  0.33041681608E+02  0.44140120770E+02  0.51100000000E-03 0.  1.
         23    2    1    0    0    0 -0.22944380250E+02  0.17451982572E+02  0.31121711327E+00  0.96260967119E+02  0.91842586276E+02 0.  0.
         11    1    3    3    0    0 -0.40073215863E+02 -0.62798637186E+01 -0.32730464495E+02  0.52120846350E+02  0.51100000000E-03 0. -1.
         22    1    1    0    0    0  0.22944380250E+02 -0.17451982572E+02 -0.31121711327E+00  0.28829032881E+02  0.00000000000E+00 0. -1.
</event>
<event>
 5    1  0.1047411E-009  0.9118800E+02  0.7815553E-02  0.1125453E+00
         25   -1    0    0    0    0  0.00000000000E+00  0.00000000000E+00  0.99999998245E-14  0.12509000000E+03  0.12509000000E+03 0.  0.
        -11    1    3    3    0    0  0.20627269582E+02 -0.15949619164E+02 -0.34659228375E+02  0.43372072970E+02  0.51100000000E-03 0. -1.
         23    2    1    0    0    0 -0.14919505341E+02 -0.24124122403E+02  0.39102221534E+01  0.96456894010E+02  0.92109052994E+02 0.  0.
         11    1    3    3    0    0 -0.35546774922E+02 -0.81745032393E+01  0.38569450529E+02  0.53084821041E+02  0.51100000000E-03 0.  1.
         22    1    1    0    0    0  0.14919505341E+02  0.24124122403E+02 -0.39102221534E+01  0.28633105990E+02  0.00000000000E+00 0.  1.
</event>
<event>
 5    1  0.1047411E-009  0.9118800E+02  0.7815553E-02  0.1125453E+00
         25   -1    0    0    0    0  0.00000000000E+00  0.00000000000E+00  0.99999998245E-14  0.12509000000E+03  0.12509000000E+03 0.  0.
        -11    1    3    3    0    0 -0.16296405681E+02  0.15616463004E+02  0.25090368260E+02  0.33748679005E+02  0.51100000000E-03 0.  1.
         23    2    1    0    0    0  0.11080071391E+02 -0.33066855937E+01 -0.27088281817E+02  0.95637034726E+02  0.90988819356E+02 0.  0.
         11    1    3    3    0    0  0.27376477072E+02 -0.18923148598E+02 -0.52178650077E+02  0.61888355721E+02  0.51100000000E-03 0. -1.
         22    1    1    0    0    0 -0.11080071391E+02  0.33066855937E+01  0.27088281817E+02  0.29452965274E+02  0.00000000000E+00 0. -1.
</event>
<event>
 5    1  0.1047411E-009  0.9118800E+02  0.7815553E-02  0.1125453E+00
         25   -1    0    0    0    0  0.00000000000E+00  0.00000000000E+00  0.99999998245E-14  0.12509000000E+03  0.12509000000E+03 0.  0.
        -11    1    3    3    0    0  0.25881291143E+01 -0.34240058348E+02 -0.22991490942E+01  0.34414620364E+02  0.51100000000E-03 0.  1.
         23    2    1    0    0    0 -0.62524122755E+00  0.26015543507E+02  0.12009965296E+02  0.96429248144E+02  0.92071500480E+02 0.  0.
         11    1    3    3    0    0 -0.32133703418E+01  0.60255601855E+02  0.14309114390E+02  0.62014627780E+02  0.51100000000E-03 0. -1.
         22    1    1    0    0    0  0.62524122755E+00 -0.26015543507E+02 -0.12009965296E+02  0.28660751856E+02  0.00000000000E+00 0. -1.
</event>
<event>
 5    1  0.1047411E-009  0.9118800E+02  0.7815553E-02  0.1125453E+00
         25   -1    0    0    0    0  0.00000000000E+00  0.00000000000E+00  0.99999998245E-14  0.12509000000E+03  0.12509000000E+03 0.  0.
        -11    1    3    3    0    0 -0.92476561339E+01  0.33292157326E+02 -0.41304117095E+02  0.53850877176E+02  0.51100000000E-03 0. -1.
         23    2    1    0    0    0  0.18553604208E+02  0.91444465333E+01 -0.19592924181E+02  0.96598952117E+02  0.92301775393E+02 0.  0.
         11    1    3    3    0    0  0.27801260342E+02 -0.24147710793E+02  0.21711192914E+02  0.42748074941E+02  0.51100000000E-03 0.  1.
         22    1    1    0    0    0 -0.18553604208E+02 -0.91444465333E+01  0.19592924181E+02  0.28491047883E+02  0.00000000000E+00 0. -1.
</event>
<event>
 5    1  0.1047411E-009  0.9118800E+02  0.7815553E-02  0.1125453E+00
         25   -1    0    0    0    0  0.00000000000E+00  0.00000000000E+00  0.99999998245E-14  0.12509000000E+03  0.12509000000E+03 0.  0.
        -11    1    3    3    0    0  0.35290234864E+02 -0.34183124670E+02  0.16609381298E+02  0.51862879175E+02  0.51100000000E-03 0.  1.
         23    2    1    0    0    0  0.27605448666E+02  0.60100047401E+01 -0.18971133513E+01  0.96774280124E+02  0.92539079860E+02 0.  0.
         11    1    3    3    0    0 -0.76847861978E+01  0.40193129410E+02 -0.18506494649E+02  0.44911400948E+02  0.51100000000E-03 0. -1.
         22    1    1    0    0    0 -0.27605448666E+02 -0.60100047401E+01  0.18971133513E+01  0.28315719876E+02  0.00000000000E+00 0.  1.
</event>
<event>
 5    1  0.1047411E-009  0.9118800E+02  0.7815553E-02  0.1125453E+00
         25   -1    0    0    0    0  0.00000000000E+00  0.00000000000E+00  0.99999998245E-14  0.12509000000E+03  0.12509000000E+03 0.  0.
        -11    1    3    3    0    0  0.32037054250E+02 -0.37749920630E+02 -0.37177839247E+00  0.49513307020E+02  0.51100000000E-03 0. -1.
         23    2    1    0    0    0 -0.88716718453E+01 -0.22935404767E+02 -0.16009159617E+02  0.95746643941E+02  0.91139383809E+02 0.  0.
         11    1    3    3    0    0 -0.40908726096E+02  0.14814515863E+02 -0.15637381225E+02  0.46233336921E+02  0.51100000000E-03 0.  1.
         22    1    1    0    0    0  0.88716718453E+01  0.22935404767E+02  0.16009159617E+02  0.29343356059E+02  0.00000000000E+00 0. -1.
</event>
<event>
 5    1  0.1047411E-009  0.9118800E+02  0.7815553E-02  0.1125453E+00
         25   -1    0    0    0    0  0.00000000000E+00  0.00000000000E+00  0.99999998245E-14  0.12509000000E+03  0.12509000000E+03 0.  0.
        -11    1    3    3    0    0 -0.21400366608E+02  0.11346677506E+02 -0.25940612244E+02  0.35491381281E+02  0.51100000000E-03 0.  1.
         23    2    1    0    0    0  0.19703589685E+02 -0.22228882049E+02  0.17101994354E+01  0.95336354413E+02  0.90574505503E+02 0.  0.
         11    1    3    3    0    0  0.41103956293E+02 -0.33575559555E+02  0.27650811680E+02  0.59844973132E+02  0.51100000000E-03 0. -1.
         22    1    1    0    0    0 -0.19703589685E+02  0.22228882049E+02 -0.17101994354E+01  0.29753645587E+02  0.00000000000E+00 0. -1.
</event>
<event>
 5    1  0.1047411E-009  0.9118800E+02  0.7815553E-02  0.1125453E+00
         25   -1    0    0    0    0  0.00000000000E+00  0.00000000000E+00  0.99999998245E-14  0.12509000000E+03  0.12509000000E+03 0.  0.
        -11    1    3    3    0    0 -0.21625698074E+02  0.21789784251E+02  0.18840470998E+02  0.36019839847E+02  0.51100000000E-03 0.  1.
         23    2    1    0    0    0  0.23991963005E+02  0.92898549680E+01 -0.16024218282E+02  0.94780079748E+02  0.89802963488E+02 0.  0.
         11    1    3    3    0    0  0.45617661078E+02 -0.12499929283E+02 -0.34864689281E+02  0.58760239901E+02  0.51100000000E-03 0. -1.
         22    1    1    0    0    0 -0.23991963005E+02 -0.92898549680E+01  0.16024218282E+02  0.30309920252E+02  0.00000000000E+00 0. -1.
</event>
<event>
 5    1  0.1047411E-009  0.9118800E+02  0.7815553E-02  0.1125453E+00
         25   -1    0    0    0    0  0.00000000000E+00  0.00000000000E+00  0.99999998245E-14  0.12509000000E+03  0.12509000000E+03 0.  0.
        -11    1    3    3    0    0  0.45055458052E+02 -0.15721261164E+02 -0.38005858263E+02  0.61004898290E+02  0.51100000000E-03 0.  1.
         23    2    1    0    0    0  0.12574708581E+02 -0.10538142052E+02 -0.22168032982E+02  0.97511069272E+02  0.93529734365E+02 0.  0.
         11    1    3    3    0    0 -0.32480749470E+02  0.51831191118E+01  0.15837825281E+02  0.36506170982E+02  0.51100000000E-03 0. -1.
         22    1    1    0    0    0 -0.12574708581E+02  0.10538142052E+02  0.22168032982E+02  0.27578930728E+02  0.00000000000E+00 0.  1.
</event>
<event>
 5    1  0.1047411E-009  0.9118800E+02  0.7815553E-02  0.1125453E+00
         25   -1    0    0    0    0  0.00000000000E+00  0.00000000000E+00  0.99999998245E-14  0.12509000000E+03  0.12509000000E+03 0.  0.
        -11    1    3    3    0    0 -0.22972611846E+02  0.21374559811E+02  0.20465756026E+02  0.37462779824E+02  0.51100000000E-03 0. -1.
         23    2    1    0    0    0  0.14728799655E+02 -0.20723655604E+02  0.17829813206E+02  0.94036663950E+02  0.88761390746E+02 0.  0.
         11    1    3    3    0    0  0.37701411501E+02 -0.42098215415E+02 -0.26359428206E+01  0.56573884126E+02  0.51100000000E-03 0.  1.
         22    1    1    0    0    0 -0.14728799655E+02  0.20723655604E+02 -0.17829813206E+02  0.31053336050E+02  0.00000000000E+00 0.  1.
</event>
<event>
 5    1  0.1047411E-009  0.9118800E+02  0.7815553E-02  0.1125453E+00
         25   -1    0    0    0    0  0.00000000000E+00  0.00000000000E+00  0.99999998245E-14  0.12509000000E+03  0.12509000000E+03 0.  0.
        -11    1    3    3    0    0 -0.37978973835E+02  0.24384013897E+02 -0.18269959883E+02  0.48690594797E+02  0.51100000000E-03 0.  1.
         23    2    1    0    0    0  0.40042228692E+01  0.29046154956E+02  0.23096673653E+01  0.95678310455E+02  0.91045546897E+02 0.  0.
         11    1    3    3    0    0  0.41983196705E+02  0.46621410595E+01  0.20579627249E+02  0.46987715658E+02  0.51100000000E-03 0. -1.
         22    1    1    0    0    0 -0.40042228692E+01 -0.29046154956E+02 -0.23096673653E+01  0.29411689545E+02  0.00000000000E+00 0.  1.
</event>
<event>
 5    1  0.1047411E-009  0.9118800E+02  0.7815553E-02  0.1125453E+00
         25   -1    0    0    0    0  0.00000000000E+00  0.00000000000E+00  0.99999998245E-14  0.12509000000E+03  0.12509000000E+03 0.  0.
        -11    1    3    3    0    0 -0.37877890519E+02  0.48548012786E+01  0.89972774395E+01  0.39233336427E+02  0.51100000000E-03 0.  1.
         23    2    1    0    0    0  0.51989085801E+01  0.33276513379E+02  0.55403181562E+01  0.90957169494E+02  0.84309884141E+02 0.  0.
         11    1    3    3    0    0  0.43076799099E+02  0.28421712101E+02 -0.34569592833E+01  0.51723833067E+02  0.51100000000E-03 0. -1.
         22    1    1    0    0    0 -0.51989085801E+01 -0.33276513379E+02 -0.55403181562E+01  0.34132830506E+02  0.00000000000E+00 0.  1.
</event>
<event>
 5    1  0.1047411E-009  0.9118800E+02  0.7815553E-02  0.1125453E+00
         25   -1    0    0    0    0  0.00000000000E+00  0.00000000000E+00  0.99999998245E-14  0.12509000000E+03  0.12509000000E+03 0.  0.
        -11    1    3    3    0    0 -0.76094818910E+01  0.30833032753E+02 -0.18153009992E+01  0.31809989648E+02  0.51100000000E-03 0. -1.
         23    2    1    0    0    0  0.95962737722E+01 -0.24618076990E+02 -0.19214179051E+02  0.92420092415E+02  0.86453170100E+02 0.  0.
         11    1    3    3    0    0  0.17205755663E+02 -0.55451109743E+02 -0.17398878052E+02  0.60610102767E+02  0.51100000000E-03 0.  1.
         22    1    1    0    0    0 -0.95962737722E+01  0.24618076990E+02  0.19214179051E+02  0.32669907585E+02  0.00000000000E+00 0.  1.
</event>
<event>
 5    1  0.1047411E-009  0.9118800E+02  0.7815553E-02  0.1125453E+00
         25   -1    0    0    0    0  0.00000000000E+00  0.00000000000E+00  0.99999998245E-14  0.12509000000E+03  0.12509000000E+03 0.  0.
        -11    1    3    3    0    0 -0.28053491318E+02  0.29810877093E+02  0.46572604095E+02  0.62005598301E+02  0.51100000000E-03 0. -1.
         23    2    1    0    0    0 -0.10938620345E+02  0.98043515838E+01  0.25218917002E+02  0.95904858236E+02  0.91356276925E+02 0.  0.
         11    1    3    3    0    0  0.17114870974E+02 -0.20006525509E+02 -0.21353687093E+02  0.33899259935E+02  0.51100000000E-03 0.  1.
         22    1    1    0    0    0  0.10938620345E+02 -0.98043515838E+01 -0.25218917002E+02  0.29185141764E+02  0.00000000000E+00 0. -1.
</event>
<event>
 5    1  0.1047411E-009  0.9118800E+02  0.7815553E-02  0.1125453E+00
         25   -1    0    0    0    0  0.00000000000E+00  0.00000000000E+00  0.99999998245E-14  0.12509000000E+03  0.12509000000E+03 0.  0.
        -11    1    3    3    0    0  0.20467228615E+01 -0.23253487512E+02  0.27987057547E+02  0.36444329413E+02  0.51100000000E-03 0. -1.
         23    2    1    0    0    0 -0.44656420068E+01 -0.73232415308E+01 -0.28412396414E+02  0.95411117019E+02  0.90677699330E+02 0.  0.
         11    1    3    3    0    0 -0.65123648684E+01  0.15930245981E+02 -0.56399453961E+02  0.58966787606E+02  0.51100000000E-03 0.  1.
         22    1    1    0    0    0  0.44656420068E+01  0.73232415308E+01  0.28412396414E+02  0.29678882981E+02  0.00000000000E+00 0.  1.
</event>
