<event>
 4    1  0.1964735E-002  0.9118800E+02  0.7818608E-02  0.1130116E+00
         25   -1    0    0    0    0  0.00000000000E+00  0.00000000000E+00  0.99999998245E-14  0.12500000000E+03  0.12500000000E+03 0.  0.
        -11    1    1    0    0    0 -0.52905454137E+01 -0.64596719422E+01 -0.80509262736E+01  0.11598907125E+02  0.51100000000E-03 0. -1.
         11    1    1    0    0    0 -0.23222345506E+02 -0.28340700704E+02 -0.35333392376E+02  0.50901092958E+02  0.51100000000E-03 0.  1.
         22    1    1    0    0    0  0.28512890920E+02  0.34800372646E+02  0.43384318650E+02  0.62499999917E+02  0.00000000000E+00 0. -1.
</event>
<event>
 4    1  0.1964735E-002  0.9118800E+02  0.7818608E-02  0.1130116E+00
         25   -1    0    0    0    0  0.00000000000E+00  0.00000000000E+00  0.99999998245E-14  0.12500000000E+03  0.12500000000E+03 0.  0.
        -11    1    1    0    0    0  0.32611776840E+02 -0.49142265097E+02 -0.29175461616E+01  0.59050844899E+02  0.51100000000E-03 0. -1.
         11    1    1    0    0    0  0.18910722803E+01 -0.28797572887E+01 -0.16629337279E+00  0.34491752866E+01  0.51100000000E-03 0.  1.
         22    1    1    0    0    0 -0.34502849120E+02  0.52022022385E+02  0.30838395344E+01  0.62499979814E+02  0.00000000000E+00 0. -1.
</event>
<event>
 4    1  0.1964735E-002  0.9118800E+02  0.7818608E-02  0.1130116E+00
         25   -1    0    0    0    0  0.00000000000E+00  0.00000000000E+00  0.99999998245E-14  0.12500000000E+03  0.12500000000E+03 0.  0.
        -11    1    1    0    0    0  0.38448277428E+02  0.36549787007E+02 -0.19902641699E+02  0.56659263270E+02  0.51100000000E-03 0.  1.
         11    1    1    0    0    0  0.39686527546E+01  0.37678538563E+01 -0.20414059079E+01  0.58407418802E+01  0.51100000000E-03 0. -1.
         22    1    1    0    0    0 -0.42416930183E+02 -0.40317640863E+02  0.21944047607E+02  0.62499994850E+02  0.00000000000E+00 0.  1.
</event>
<event>
 4    1  0.1964735E-002  0.9118800E+02  0.7818608E-02  0.1130116E+00
         25   -1    0    0    0    0  0.00000000000E+00  0.00000000000E+00  0.99999998245E-14  0.12500000000E+03  0.12500000000E+03 0.  0.
        -11    1    1    0    0    0 -0.13139494674E+02  0.99571577829E+01 -0.15820545452E+02  0.22849091231E+02  0.51100000000E-03 0. -1.
         11    1    1    0    0    0 -0.22796511040E+02  0.17283764071E+02 -0.27455148135E+02  0.39650908885E+02  0.51100000000E-03 0.  1.
         22    1    1    0    0    0  0.35936005714E+02 -0.27240921853E+02  0.43275693587E+02  0.62499999884E+02  0.00000000000E+00 0.  1.
</event>
<event>
 4    1  0.1964735E-002  0.9118800E+02  0.7818608E-02  0.1130116E+00
         25   -1    0    0    0    0  0.00000000000E+00  0.00000000000E+00  0.99999998245E-14  0.12500000000E+03  0.12500000000E+03 0.  0.
        -11    1    1    0    0    0 -0.25254348960E+02 -0.24597433269E+01 -0.25797807431E+02  0.36185070777E+02  0.51100000000E-03 0. -1.
         11    1    1    0    0    0 -0.18054169223E+02 -0.60083316558E+01 -0.18321232870E+02  0.26414402317E+02  0.51100000000E-03 0.  1.
         22    1    1    0    0    0  0.43308518183E+02  0.84680749827E+01  0.44119040301E+02  0.62400526906E+02  0.00000000000E+00 0.  1.
</event>
<event>
 4    1  0.1964735E-002  0.9118800E+02  0.7818608E-02  0.1130116E+00
         25   -1    0    0    0    0  0.00000000000E+00  0.00000000000E+00  0.99999998245E-14  0.12500000000E+03  0.12500000000E+03 0.  0.
        -11    1    1    0    0    0 -0.12430114603E+02  0.23137228914E+02  0.29557832734E+01  0.26430583911E+02  0.51100000000E-03 0. -1.
         11    1    1    0    0    0 -0.13985864624E+02  0.21902213037E+02  0.27731738934E+02  0.38004745621E+02  0.51100000000E-03 0.  1.
         22    1    1    0    0    0  0.26415979227E+02 -0.45039441950E+02 -0.30687522207E+02  0.60564670468E+02  0.00000000000E+00 0. -1.
</event>
<event>
 4    1  0.1964735E-002  0.9118800E+02  0.7818608E-02  0.1130116E+00
         25   -1    0    0    0    0  0.00000000000E+00  0.00000000000E+00  0.99999998245E-14  0.12500000000E+03  0.12500000000E+03 0.  0.
        -11    1    1    0    0    0 -0.35151849615E+02 -0.25279856076E+01  0.52429314956E+01  0.35630486575E+02  0.51100000000E-03 0.  1.
         11    1    1    0    0    0 -0.26506571306E+02 -0.19503763312E+01  0.39457613117E+01  0.26869524052E+02  0.51100000000E-03 0. -1.
         22    1    1    0    0    0  0.61658420921E+02  0.44783619388E+01 -0.91886928073E+01  0.62499989373E+02  0.00000000000E+00 0.  1.
</event>
<event>
 4    1  0.1964735E-002  0.9118800E+02  0.7818608E-02  0.1130116E+00
         25   -1    0    0    0    0  0.00000000000E+00  0.00000000000E+00  0.99999998245E-14  0.12500000000E+03  0.12500000000E+03 0.  0.
        -11    1    1    0    0    0 -0.69614575322E+01  0.10865237728E+02 -0.31978557608E+01  0.13294418512E+02  0.51100000000E-03 0. -1.
         11    1    1    0    0    0 -0.28067994276E+02  0.36814878319E+02  0.19656396654E+02  0.50294348569E+02  0.51100000000E-03 0.  1.
         22    1    1    0    0    0  0.35029451808E+02 -0.47680116047E+02 -0.16458540893E+02  0.61411232918E+02  0.00000000000E+00 0.  1.
</event>
<event>
 4    1  0.1964735E-002  0.9118800E+02  0.7818608E-02  0.1130116E+00
         25   -1    0    0    0    0  0.00000000000E+00  0.00000000000E+00  0.99999998245E-14  0.12500000000E+03  0.12500000000E+03 0.  0.
        -11    1    1    0    0    0 -0.11099298310E+02  0.60649115853E+01  0.15462281245E+02  0.19976479096E+02  0.51100000000E-03 0. -1.
         11    1    1    0    0    0 -0.18700065019E+02  0.64733585255E+01  0.37829063244E+02  0.42692327513E+02  0.51100000000E-03 0.  1.
         22    1    1    0    0    0  0.29799363329E+02 -0.12538270111E+02 -0.53291344489E+02  0.62331193391E+02  0.00000000000E+00 0.  1.
</event>
<event>
 4    1  0.1964735E-002  0.9118800E+02  0.7818608E-02  0.1130116E+00
         25   -1    0    0    0    0  0.00000000000E+00  0.00000000000E+00  0.99999998245E-14  0.12500000000E+03  0.12500000000E+03 0.  0.
        -11    1    1    0    0    0 -0.55924404550E+01  0.85267658498E+01  0.11298561701E+02  0.15219678803E+02  0.51100000000E-03 0.  1.
         11    1    1    0    0    0 -0.17379558995E+02  0.26490000957E+02  0.35095007605E+02  0.47280321283E+02  0.51100000000E-03 0. -1.
         22    1    1    0    0    0  0.22971999450E+02 -0.35016766807E+02 -0.46393569306E+02  0.62499999914E+02  0.00000000000E+00 0. -1.
</event>
<event>
 4    1  0.1964735E-002  0.9118800E+02  0.7818608E-02  0.1130116E+00
         25   -1    0    0    0    0  0.00000000000E+00  0.00000000000E+00  0.99999998245E-14  0.12500000000E+03  0.12500000000E+03 0.  0.
        -11    1    1    0    0    0  0.19632017120E+01 -0.13944205569E+02 -0.18971278307E+02  0.23626350348E+02  0.51100000000E-03 0.  1.
         11    1    1    0    0    0 -0.10140275127E+02 -0.23742591611E+02 -0.29650551583E+02  0.39315277508E+02  0.51100000000E-03 0. -1.
         22    1    1    0    0    0  0.81770734146E+01  0.37686797180E+02  0.48621829890E+02  0.62058372144E+02  0.00000000000E+00 0. -1.
</event>
<event>
 4    1  0.1964735E-002  0.9118800E+02  0.7818608E-02  0.1130116E+00
         25   -1    0    0    0    0  0.00000000000E+00  0.00000000000E+00  0.99999998245E-14  0.12500000000E+03  0.12500000000E+03 0.  0.
        -11    1    1    0    0    0 -0.56679556523E+02 -0.13907864605E+02 -0.20405747113E+02  0.61825523378E+02  0.51100000000E-03 0. -1.
         11    1    1    0    0    0 -0.64526070313E+00 -0.49485385951E-03 -0.22420153731E+00  0.68310190333E+00  0.51100000000E-03 0.  1.
         22    1    1    0    0    0  0.57324817226E+02  0.13908359459E+02  0.20629948650E+02  0.62491374718E+02  0.00000000000E+00 0. -1.
</event>
<event>
 4    1  0.1964735E-002  0.9118800E+02  0.7818608E-02  0.1130116E+00
         25   -1    0    0    0    0  0.00000000000E+00  0.00000000000E+00  0.99999998245E-14  0.12500000000E+03  0.12500000000E+03 0.  0.
        -11    1    1    0    0    0  0.36337786068E+02 -0.43353134842E+02  0.12558518047E+02  0.57945192836E+02  0.51100000000E-03 0. -1.
         11    1    1    0    0    0  0.28559223190E+01 -0.34081118241E+01  0.98729419307E+00  0.45548071949E+01  0.51100000000E-03 0.  1.
         22    1    1    0    0    0 -0.39193708387E+02  0.46761246666E+02 -0.13545812240E+02  0.62499999969E+02  0.00000000000E+00 0. -1.
</event>
<event>
 4    1  0.1964735E-002  0.9118800E+02  0.7818608E-02  0.1130116E+00
         25   -1    0    0    0    0  0.00000000000E+00  0.00000000000E+00  0.99999998245E-14  0.12500000000E+03  0.12500000000E+03 0.  0.
        -11    1    1    0    0    0 -0.31757869437E+02 -0.16010985656E+02 -0.12415152131E+01  0.35587291175E+02  0.51100000000E-03 0. -1.
         11    1    1    0    0    0 -0.24017453661E+02 -0.12106824971E+02 -0.93840601496E+00  0.26912708844E+02  0.51100000000E-03 0.  1.
         22    1    1    0    0    0  0.55775323098E+02  0.28117810627E+02  0.21799212281E+01  0.62499999981E+02  0.00000000000E+00 0.  1.
</event>
<event>
 4    1  0.1964735E-002  0.9118800E+02  0.7818608E-02  0.1130116E+00
         25   -1    0    0    0    0  0.00000000000E+00  0.00000000000E+00  0.99999998245E-14  0.12500000000E+03  0.12500000000E+03 0.  0.
        -11    1    1    0    0    0  0.11630105284E+02 -0.39957172668E+02 -0.12161576321E+02  0.43355956170E+02  0.51100000000E-03 0. -1.
         11    1    1    0    0    0  0.51234319090E+01 -0.17685578848E+02 -0.52413330682E+01  0.19144211301E+02  0.51100000000E-03 0.  1.
         22    1    1    0    0    0 -0.16753537193E+02  0.57642751517E+02  0.17402909389E+02  0.62499832529E+02  0.00000000000E+00 0. -1.
</event>
<event>
 4    1  0.1964735E-002  0.9118800E+02  0.7818608E-02  0.1130116E+00
         25   -1    0    0    0    0  0.00000000000E+00  0.00000000000E+00  0.99999998245E-14  0.12500000000E+03  0.12500000000E+03 0.  0.
        -11    1    1    0    0    0  0.13497386294E+02 -0.18686143895E+02 -0.57435391285E+02  0.61888412346E+02  0.51100000000E-03 0. -1.
         11    1    1    0    0    0  0.10201356767E-01 -0.16050448945E+00 -0.59701475162E+00  0.61829817531E+00  0.51100000000E-03 0.  1.
         22    1    1    0    0    0 -0.13507587651E+02  0.18846648384E+02  0.58032406037E+02  0.62493289479E+02  0.00000000000E+00 0. -1.
</event>
<event>
 4    1  0.1964735E-002  0.9118800E+02  0.7818608E-02  0.1130116E+00
         25   -1    0    0    0    0  0.00000000000E+00  0.00000000000E+00  0.99999998245E-14  0.12500000000E+03  0.12500000000E+03 0.  0.
        -11    1    1    0    0    0 -0.36117210572E+02 -0.35402488389E+02  0.34959124438E+02  0.61481130970E+02  0.51100000000E-03 0. -1.
         11    1    1    0    0    0 -0.59981869778E+00 -0.58678981571E+00  0.57791956703E+00  0.10188699844E+01  0.51100000000E-03 0.  1.
         22    1    1    0    0    0  0.36717029270E+02  0.35989278205E+02 -0.35537044005E+02  0.62499999046E+02  0.00000000000E+00 0. -1.
</event>
<event>
 4    1  0.1964735E-002  0.9118800E+02  0.7818608E-02  0.1130116E+00
         25   -1    0    0    0    0  0.00000000000E+00  0.00000000000E+00  0.99999998245E-14  0.12500000000E+03  0.12500000000E+03 0.  0.
        -11    1    1    0    0    0 -0.36720695222E+02 -0.19213520744E+02  0.26061306353E+02  0.48956720949E+02  0.51100000000E-03 0. -1.
         11    1    1    0    0    0 -0.10340913395E+02 -0.54738723689E+01  0.68266379200E+01  0.13546245019E+02  0.51100000000E-03 0.  1.
         22    1    1    0    0    0  0.47061608617E+02  0.24687393113E+02 -0.32887944273E+02  0.62497034032E+02  0.00000000000E+00 0.  1.
</event>
<event>
 4    1  0.1964735E-002  0.9118800E+02  0.7818608E-02  0.1130116E+00
         25   -1    0    0    0    0  0.00000000000E+00  0.00000000000E+00  0.99999998245E-14  0.12500000000E+03  0.12500000000E+03 0.  0.
        -11    1    1    0    0    0 -0.29109597520E+02  0.38865740839E+02  0.30360466425E+01  0.48653181378E+02  0.51100000000E-03 0. -1.
         11    1    1    0    0    0 -0.82679423615E+01  0.11072820453E+02  0.87657497747E+00  0.13846826626E+02  0.51100000000E-03 0.  1.
         22    1    1    0    0    0  0.37377539882E+02 -0.49938561291E+02 -0.39126216200E+01  0.62499991995E+02  0.00000000000E+00 0. -1.
</event>
<event>
 4    1  0.1964735E-002  0.9118800E+02  0.7818608E-02  0.1130116E+00
         25   -1    0    0    0    0  0.00000000000E+00  0.00000000000E+00  0.99999998245E-14  0.12500000000E+03  0.12500000000E+03 0.  0.
        -11    1    1    0    0    0 -0.19013140995E+02  0.26821872391E+01  0.22897173149E+02  0.29882673866E+02  0.51100000000E-03 0. -1.
         11    1    1    0    0    0 -0.57348789685E+00  0.28333267027E+02  0.22903833704E+02  0.36437460222E+02  0.51100000000E-03 0.  1.
         22    1    1    0    0    0  0.19586628892E+02 -0.31015454266E+02 -0.45801006853E+02  0.58679865912E+02  0.00000000000E+00 0.  1.
</event>
<event>
 4    1  0.1964735E-002  0.9118800E+02  0.7818608E-02  0.1130116E+00
         25   -1    0    0    0    0  0.00000000000E+00  0.00000000000E+00  0.99999998245E-14  0.12500000000E+03  0.12500000000E+03 0.  0.
        -11    1    1    0    0    0  0.57622422569E+01 -0.38655886469E+02 -0.31933555083E+02  0.50470119229E+02  0.51100000000E-03 0. -1.
         11    1    1    0    0    0  0.13696750669E+01 -0.92138889463E+01 -0.76122452638E+01  0.12029881027E+02  0.51100000000E-03 0.  1.
         22    1    1    0    0    0 -0.71319173239E+01  0.47869775415E+02  0.39545800346E+02  0.62499999744E+02  0.00000000000E+00 0. -1.
</event>
<event>
 4    1  0.1964735E-002  0.9118800E+02  0.7818608E-02  0.1130116E+00
         25   -1    0    0    0    0  0.00000000000E+00  0.00000000000E+00  0.99999998245E-14  0.12500000000E+03  0.12500000000E+03 0.  0.
        -11    1    1    0    0    0  0.11295705374E+01  0.14689120674E+01  0.30544294738E+02  0.30600450545E+02  0.51100000000E-03 0.  1.
         11    1    1    0    0    0  0.11982852200E+01  0.15252914522E+01  0.31840523995E+02  0.31899551251E+02  0.51100000000E-03 0. -1.
         22    1    1    0    0    0 -0.23278557574E+01 -0.29942035196E+01 -0.62384818733E+02  0.62499998204E+02  0.00000000000E+00 0.  1.
</event>
<event>
 4    1  0.1964735E-002  0.9118800E+02  0.7818608E-02  0.1130116E+00
         25   -1    0    0    0    0  0.00000000000E+00  0.00000000000E+00  0.99999998245E-14  0.12500000000E+03  0.12500000000E+03 0.  0.
        -11    1    1    0    0    0 -0.16448001556E+02 -0.11638968373E+02  0.39391769810E+02  0.44246060491E+02  0.51100000000E-03 0.  1.
         11    1    1    0    0    0 -0.72107922576E+01 -0.51577276137E+01  0.15960805986E+02  0.18257738280E+02  0.51100000000E-03 0. -1.
         22    1    1    0    0    0  0.23658793814E+02  0.16796695987E+02 -0.55352575796E+02  0.62496201229E+02  0.00000000000E+00 0.  1.
</event>
<event>
 4    1  0.1964735E-002  0.9118800E+02  0.7818608E-02  0.1130116E+00
         25   -1    0    0    0    0  0.00000000000E+00  0.00000000000E+00  0.99999998245E-14  0.12500000000E+03  0.12500000000E+03 0.  0.
        -11    1    1    0    0    0  0.13667676816E+02 -0.39803358355E+02 -0.25763954116E+02  0.49344645685E+02  0.51100000000E-03 0.  1.
         11    1    1    0    0    0  0.36390956877E+01 -0.10618058244E+02 -0.68612838179E+01  0.13155356103E+02  0.51100000000E-03 0. -1.
         22    1    1    0    0    0 -0.17306772504E+02  0.50421416598E+02  0.32625237934E+02  0.62499998212E+02  0.00000000000E+00 0.  1.
</event>
<event>
 4    1  0.1964735E-002  0.9118800E+02  0.7818608E-02  0.1130116E+00
         25   -1    0    0    0    0  0.00000000000E+00  0.00000000000E+00  0.99999998245E-14  0.12500000000E+03  0.12500000000E+03 0.  0.
        -11    1    1    0    0    0 -0.34821688879E+02  0.12107220478E+01 -0.33603657306E+02  0.48406834733E+02  0.51100000000E-03 0.  1.
         11    1    1    0    0    0 -0.11980071633E+02  0.76124657268E+00 -0.75993217148E+01  0.14207438314E+02  0.51100000000E-03 0. -1.
         22    1    1    0    0    0  0.46801760512E+02 -0.19719686204E+01  0.41202979021E+02  0.62385726953E+02  0.00000000000E+00 0.  1.
</event>
<event>
 4    1  0.1964735E-002  0.9118800E+02  0.7818608E-02  0.1130116E+00
         25   -1    0    0    0    0  0.00000000000E+00  0.00000000000E+00  0.99999998245E-14  0.12500000000E+03  0.12500000000E+03 0.  0.
        -11    1    1    0    0    0 -0.32335455809E+00 -0.48703915728E+01  0.47895116207E+01  0.68384716179E+01  0.51100000000E-03 0. -1.
         11    1    1    0    0    0 -0.26305942031E+01 -0.39693770698E+02  0.38931870984E+02  0.55661531030E+02  0.51100000000E-03 0.  1.
         22    1    1    0    0    0  0.29539487612E+01  0.44564162271E+02 -0.43721382604E+02  0.62499997352E+02  0.00000000000E+00 0.  1.
</event>
<event>
 4    1  0.1964735E-002  0.9118800E+02  0.7818608E-02  0.1130116E+00
         25   -1    0    0    0    0  0.00000000000E+00  0.00000000000E+00  0.99999998245E-14  0.12500000000E+03  0.12500000000E+03 0.  0.
        -11    1    1    0    0    0  0.32651533192E+01  0.11430913310E+02 -0.32001756014E+02  0.34138532387E+02  0.51100000000E-03 0. -1.
         11    1    1    0    0    0  0.26846979719E+01  0.95376260819E+01 -0.26574417082E+02  0.28361480180E+02  0.51100000000E-03 0.  1.
         22    1    1    0    0    0 -0.59498512911E+01 -0.20968539391E+02  0.58576173096E+02  0.62499987433E+02  0.00000000000E+00 0. -1.
</event>
<event>
 4    1  0.1964735E-002  0.9118800E+02  0.7818608E-02  0.1130116E+00
         25   -1    0    0    0    0  0.00000000000E+00  0.00000000000E+00  0.99999998245E-14  0.12500000000E+03  0.12500000000E+03 0.  0.
        -11    1    1    0    0    0 -0.70400099870E+01  0.76185793775E+01 -0.10936125984E+02  0.15073265875E+02  0.51100000000E-03 0.  1.
         11    1    1    0    0    0 -0.22152052651E+02  0.23974439559E+02 -0.34406509904E+02  0.47426734158E+02  0.51100000000E-03 0. -1.
         22    1    1    0    0    0  0.29192062638E+02 -0.31593018937E+02  0.45342635888E+02  0.62499999967E+02  0.00000000000E+00 0. -1.
</event>
<event>
 4    1  0.1964735E-002  0.9118800E+02  0.7818608E-02  0.1130116E+00
         25   -1    0    0    0    0  0.00000000000E+00  0.00000000000E+00  0.99999998245E-14  0.12500000000E+03  0.12500000000E+03 0.  0.
        -11    1    1    0    0    0  0.14678796247E+02 -0.12170999241E+01  0.58461743985E+01  0.15846960177E+02  0.51100000000E-03 0.  1.
         11    1    1    0    0    0  0.43215448891E+02 -0.35842291184E+01  0.17207103362E+02  0.46653039854E+02  0.51100000000E-03 0. -1.
         22    1    1    0    0    0 -0.57894245138E+02  0.48013290425E+01 -0.23053277761E+02  0.62499999969E+02  0.00000000000E+00 0. -1.
</event>
<event>
 4    1  0.1964735E-002  0.9118800E+02  0.7818608E-02  0.1130116E+00
         25   -1    0    0    0    0  0.00000000000E+00  0.00000000000E+00  0.99999998245E-14  0.12500000000E+03  0.12500000000E+03 0.  0.
        -11    1    1    0    0    0  0.41701825222E+02  0.17551418855E+02  0.10811781884E+02  0.46518696870E+02  0.51100000000E-03 0. -1.
         11    1    1    0    0    0  0.14203398283E+02  0.60530124196E+01  0.41350048994E+01  0.15983546162E+02  0.51100000000E-03 0.  1.
         22    1    1    0    0    0 -0.55905223505E+02 -0.23604431275E+02 -0.14946786784E+02  0.62497756968E+02  0.00000000000E+00 0. -1.
</event>
<event>
 4    1  0.1964735E-002  0.9118800E+02  0.7818608E-02  0.1130116E+00
         25   -1    0    0    0    0  0.00000000000E+00  0.00000000000E+00  0.99999998245E-14  0.12500000000E+03  0.12500000000E+03 0.  0.
        -11    1    1    0    0    0  0.20359961049E+02  0.11805211312E+01 -0.50943173429E+01  0.21020792409E+02  0.51100000000E-03 0.  1.
         11    1    1    0    0    0  0.40299518064E+02  0.11308364146E+01 -0.97699710410E+01  0.41482312876E+02  0.51100000000E-03 0. -1.
         22    1    1    0    0    0 -0.60659479112E+02 -0.23113575459E+01  0.14864288384E+02  0.62496894715E+02  0.00000000000E+00 0. -1.
</event>
<event>
 4    1  0.1964735E-002  0.9118800E+02  0.7818608E-02  0.1130116E+00
         25   -1    0    0    0    0  0.00000000000E+00  0.00000000000E+00  0.99999998245E-14  0.12500000000E+03  0.12500000000E+03 0.  0.
        -11    1    1    0    0    0 -0.74923197511E+01  0.22917749730E+02 -0.52966078153E+02  0.58195906584E+02  0.51100000000E-03 0. -1.
         11    1    1    0    0    0  0.29397509697E+01  0.30953514708E+01 -0.27971392594E+01  0.51036579813E+01  0.51100000000E-03 0.  1.
         22    1    1    0    0    0  0.45525687814E+01 -0.26013101201E+02  0.55763217413E+02  0.61700435435E+02  0.00000000000E+00 0. -1.
</event>
<event>
 4    1  0.1964735E-002  0.9118800E+02  0.7818608E-02  0.1130116E+00
         25   -1    0    0    0    0  0.00000000000E+00  0.00000000000E+00  0.99999998245E-14  0.12500000000E+03  0.12500000000E+03 0.  0.
        -11    1    1    0    0    0 -0.32878248431E+01  0.48804894933E+00  0.68666551817E+01  0.76288228201E+01  0.51100000000E-03 0.  1.
         11    1    1    0    0    0 -0.23611493182E+02  0.35900107381E+01  0.49400969382E+02  0.54871181539E+02  0.51100000000E-03 0. -1.
         22    1    1    0    0    0  0.26899318025E+02 -0.40780596874E+01 -0.56267624564E+02  0.62499995641E+02  0.00000000000E+00 0. -1.
</event>
<event>
 4    1  0.1964735E-002  0.9118800E+02  0.7818608E-02  0.1130116E+00
         25   -1    0    0    0    0  0.00000000000E+00  0.00000000000E+00  0.99999998245E-14  0.12500000000E+03  0.12500000000E+03 0.  0.
        -11    1    1    0    0    0  0.12285046960E+02 -0.54695734816E+02 -0.14670982331E+02  0.57946384776E+02  0.51100000000E-03 0.  1.
         11    1    1    0    0    0 -0.69158899685E+01 -0.10250999689E+01  0.80849031520E+01  0.10688593137E+02  0.51100000000E-03 0. -1.
         22    1    1    0    0    0 -0.53691569915E+01  0.55720834785E+02  0.65860791791E+01  0.56365022087E+02  0.00000000000E+00 0.  1.
</event>
<event>
 4    1  0.1964735E-002  0.9118800E+02  0.7818608E-02  0.1130116E+00
         25   -1    0    0    0    0  0.00000000000E+00  0.00000000000E+00  0.99999998245E-14  0.12500000000E+03  0.12500000000E+03 0.  0.
        -11    1    1    0    0    0  0.30628830527E+01 -0.87687802206E+01  0.72308331034E+01  0.11771053767E+02  0.51100000000E-03 0. -1.
         11    1    1    0    0    0  0.13092852514E+02 -0.37725110893E+02  0.31286133213E+02  0.50728975059E+02  0.51100000000E-03 0.  1.
         22    1    1    0    0    0 -0.16155735567E+02  0.46493891113E+02 -0.38516966317E+02  0.62499971174E+02  0.00000000000E+00 0.  1.
</event>
<event>
 4    1  0.1964735E-002  0.9118800E+02  0.7818608E-02  0.1130116E+00
         25   -1    0    0    0    0  0.00000000000E+00  0.00000000000E+00  0.99999998245E-14  0.12500000000E+03  0.12500000000E+03 0.  0.
        -11    1    1    0    0    0  0.40237073851E+01 -0.10067899986E+02  0.12749112372E+02  0.16735970178E+02  0.51100000000E-03 0.  1.
         11    1    1    0    0    0  0.10972344680E+02 -0.27524346903E+02  0.34876418415E+02  0.45764031530E+02  0.51100000000E-03 0. -1.
         22    1    1    0    0    0 -0.14996052065E+02  0.37592246889E+02 -0.47625530787E+02  0.62499998292E+02  0.00000000000E+00 0. -1.
</event>
<event>
 4    1  0.1964735E-002  0.9118800E+02  0.7818608E-02  0.1130116E+00
         25   -1    0    0    0    0  0.00000000000E+00  0.00000000000E+00  0.99999998245E-14  0.12500000000E+03  0.12500000000E+03 0.  0.
        -11    1    1    0    0    0 -0.46171454398E+02  0.22578703248E+02 -0.28623279634E+02  0.58829356438E+02  0.51100000000E-03 0.  1.
         11    1    1    0    0    0 -0.20466391777E+01  0.32614162288E+01 -0.97417560880E+00  0.39717233186E+01  0.51100000000E-03 0. -1.
         22    1    1    0    0    0  0.48218093575E+02 -0.25840119477E+02  0.29597455243E+02  0.62198920244E+02  0.00000000000E+00 0.  1.
</event>
<event>
 4    1  0.1964735E-002  0.9118800E+02  0.7818608E-02  0.1130116E+00
         25   -1    0    0    0    0  0.00000000000E+00  0.00000000000E+00  0.99999998245E-14  0.12500000000E+03  0.12500000000E+03 0.  0.
        -11    1    1    0    0    0  0.15685304241E+02  0.52282462132E+02  0.19914828367E+02  0.58104087678E+02  0.51100000000E-03 0.  1.
         11    1    1    0    0    0  0.11871584303E+01  0.39556666336E+01  0.15057894452E+01  0.43959123932E+01  0.51100000000E-03 0. -1.
         22    1    1    0    0    0 -0.16872462672E+02 -0.56238128766E+02 -0.21420617812E+02  0.62499999929E+02  0.00000000000E+00 0.  1.
</event>
<event>
 4    1  0.1964735E-002  0.9118800E+02  0.7818608E-02  0.1130116E+00
         25   -1    0    0    0    0  0.00000000000E+00  0.00000000000E+00  0.99999998245E-14  0.12500000000E+03  0.12500000000E+03 0.  0.
        -11    1    1    0    0    0 -0.42153160881E+01  0.16599123519E+02  0.10686843482E+02  0.20186837672E+02  0.51100000000E-03 0. -1.
         11    1    1    0    0    0 -0.43050460002E+01  0.35948013665E+02  0.21981145755E+02  0.42355210736E+02  0.51100000000E-03 0.  1.
         22    1    1    0    0    0  0.85203620882E+01 -0.52547137184E+02 -0.32667989237E+02  0.62457951592E+02  0.00000000000E+00 0.  1.
</event>
<event>
 4    1  0.1964735E-002  0.9118800E+02  0.7818608E-02  0.1130116E+00
         25   -1    0    0    0    0  0.00000000000E+00  0.00000000000E+00  0.99999998245E-14  0.12500000000E+03  0.12500000000E+03 0.  0.
        -11    1    1    0    0    0  0.87920591272E+01  0.28928348817E+01 -0.16291922544E+02  0.18737543537E+02  0.51100000000E-03 0.  1.
         11    1    1    0    0    0  0.20522316399E+02  0.67493379651E+01 -0.38058292136E+02  0.43762456900E+02  0.51100000000E-03 0. -1.
         22    1    1    0    0    0 -0.29314375526E+02 -0.96421728468E+01  0.54350214680E+02  0.62499999564E+02  0.00000000000E+00 0.  1.
</event>
<event>
 4    1  0.1964735E-002  0.9118800E+02  0.7818608E-02  0.1130116E+00
         25   -1    0    0    0    0  0.00000000000E+00  0.00000000000E+00  0.99999998245E-14  0.12500000000E+03  0.12500000000E+03 0.  0.
        -11    1    1    0    0    0  0.38978959505E+02  0.22311677477E+02  0.11297951088E+02  0.46312135936E+02  0.51100000000E-03 0. -1.
         11    1    1    0    0    0  0.13629574133E+02  0.77902028165E+01  0.39489781238E+01  0.16187865191E+02  0.51100000000E-03 0.  1.
         22    1    1    0    0    0 -0.52608533638E+02 -0.30101880294E+02 -0.15246929211E+02  0.62499998873E+02  0.00000000000E+00 0. -1.
</event>
<event>
 4    1  0.1964735E-002  0.9118800E+02  0.7818608E-02  0.1130116E+00
         25   -1    0    0    0    0  0.00000000000E+00  0.00000000000E+00  0.99999998245E-14  0.12500000000E+03  0.12500000000E+03 0.  0.
        -11    1    1    0    0    0  0.73687951434E+01  0.50681628688E+02 -0.18267249520E+02  0.54374801458E+02  0.51100000000E-03 0.  1.
         11    1    1    0    0    0 -0.11254900818E-01  0.52581869113E+01 -0.70407840882E+01  0.87875649133E+01  0.51100000000E-03 0. -1.
         22    1    1    0    0    0 -0.73575402426E+01 -0.55939815599E+02  0.25308033608E+02  0.61837633629E+02  0.00000000000E+00 0.  1.
</event>
<event>
 4    1  0.1964735E-002  0.9118800E+02  0.7818608E-02  0.1130116E+00
         25   -1    0    0    0    0  0.00000000000E+00  0.00000000000E+00  0.99999998245E-14  0.12500000000E+03  0.12500000000E+03 0.  0.
        -11    1    1    0    0    0 -0.11692169100E+02 -0.51919806979E+02 -0.11292687940E+02  0.54404944409E+02  0.51100000000E-03 0.  1.
         11    1    1    0    0    0 -0.17409343096E+01 -0.77245607077E+01 -0.16823308950E+01  0.80950557687E+01  0.51100000000E-03 0. -1.
         22    1    1    0    0    0  0.13433103409E+02  0.59644367687E+02  0.12975018835E+02  0.62499999822E+02  0.00000000000E+00 0.  1.
</event>
<event>
 4    1  0.1964735E-002  0.9118800E+02  0.7818608E-02  0.1130116E+00
         25   -1    0    0    0    0  0.00000000000E+00  0.00000000000E+00  0.99999998245E-14  0.12500000000E+03  0.12500000000E+03 0.  0.
        -11    1    1    0    0    0  0.35042798309E+02  0.37970622463E+02  0.22010741805E+02  0.56162608901E+02  0.51100000000E-03 0.  1.
         11    1    1    0    0    0  0.34181788901E+01  0.35764442985E+01  0.41611583533E+01  0.64645293601E+01  0.51100000000E-03 0. -1.
         22    1    1    0    0    0 -0.38460977199E+02 -0.41547066762E+02 -0.26171900158E+02  0.62372861739E+02  0.00000000000E+00 0.  1.
</event>
<event>
 4    1  0.1964735E-002  0.9118800E+02  0.7818608E-02  0.1130116E+00
         25   -1    0    0    0    0  0.00000000000E+00  0.00000000000E+00  0.99999998245E-14  0.12500000000E+03  0.12500000000E+03 0.  0.
        -11    1    1    0    0    0 -0.21471506964E+01 -0.90624006814E+01 -0.37643962214E+01  0.10045299468E+02  0.51100000000E-03 0. -1.
         11    1    1    0    0    0 -0.11203862794E+02 -0.47323946827E+02 -0.19657393756E+02  0.52454700594E+02  0.51100000000E-03 0.  1.
         22    1    1    0    0    0  0.13351013491E+02  0.56386347509E+02  0.23421789977E+02  0.62499999939E+02  0.00000000000E+00 0.  1.
</event>
<event>
 4    1  0.1964735E-002  0.9118800E+02  0.7818608E-02  0.1130116E+00
         25   -1    0    0    0    0  0.00000000000E+00  0.00000000000E+00  0.99999998245E-14  0.12500000000E+03  0.12500000000E+03 0.  0.
        -11    1    1    0    0    0  0.35470009475E+01  0.52611095632E+01 -0.28927941094E+01  0.69734315497E+01  0.51100000000E-03 0. -1.
         11    1    1    0    0    0  0.45385316588E+02  0.32569538034E+02 -0.26695119146E+01  0.55926094658E+02  0.51100000000E-03 0.  1.
         22    1    1    0    0    0 -0.48932317535E+02 -0.37830647597E+02  0.55623060239E+01  0.62100473793E+02  0.00000000000E+00 0.  1.
</event>
<event>
 4    1  0.1964735E-002  0.9118800E+02  0.7818608E-02  0.1130116E+00
         25   -1    0    0    0    0  0.00000000000E+00  0.00000000000E+00  0.99999998245E-14  0.12500000000E+03  0.12500000000E+03 0.  0.
        -11    1    1    0    0    0 -0.55069198644E+02  0.12872045184E+02 -0.55560008636E+01  0.56825833318E+02  0.51100000000E-03 0.  1.
         11    1    1    0    0    0 -0.55065636532E+01  0.12528337396E+01 -0.55212475909E+00  0.56742116331E+01  0.51100000000E-03 0. -1.
         22    1    1    0    0    0  0.60575762297E+02 -0.14124878924E+02  0.61081256227E+01  0.62499955049E+02  0.00000000000E+00 0.  1.
</event>
<event>
 4    1  0.1964735E-002  0.9118800E+02  0.7818608E-02  0.1130116E+00
         25   -1    0    0    0    0  0.00000000000E+00  0.00000000000E+00  0.99999998245E-14  0.12500000000E+03  0.12500000000E+03 0.  0.
        -11    1    1    0    0    0 -0.19938887590E+02  0.70422756322E+00 -0.76919309945E+01  0.21382726147E+02  0.51100000000E-03 0.  1.
         11    1    1    0    0    0 -0.38860490812E+02  0.35779136087E+01 -0.13004960467E+02  0.41134756702E+02  0.51100000000E-03 0. -1.
         22    1    1    0    0    0  0.58799378401E+02 -0.42821411719E+01  0.20696891461E+02  0.62482517151E+02  0.00000000000E+00 0.  1.
</event>
<event>
 4    1  0.1964735E-002  0.9118800E+02  0.7818608E-02  0.1130116E+00
         25   -1    0    0    0    0  0.00000000000E+00  0.00000000000E+00  0.99999998245E-14  0.12500000000E+03  0.12500000000E+03 0.  0.
        -11    1    1    0    0    0  0.11893541369E+02  0.11403407578E+02 -0.67570131499E+01  0.17808741047E+02  0.51100000000E-03 0.  1.
         11    1    1    0    0    0  0.29854080548E+02  0.28617445983E+02 -0.16943562767E+02  0.44691259319E+02  0.51100000000E-03 0.  1.
         22    1    1    0    0    0 -0.41747621917E+02 -0.40020853562E+02  0.23700575917E+02  0.62499999635E+02  0.00000000000E+00 0.  1.
</event>
<event>
 4    1  0.1964735E-002  0.9118800E+02  0.7818608E-02  0.1130116E+00
         25   -1    0    0    0    0  0.00000000000E+00  0.00000000000E+00  0.99999998245E-14  0.12500000000E+03  0.12500000000E+03 0.  0.
        -11    1    1    0    0    0 -0.47463954757E+02  0.27383109887E+02 -0.22936496349E+02  0.59403237061E+02  0.51100000000E-03 0.  1.
         11    1    1    0    0    0 -0.24554602029E+01  0.16308579903E+01 -0.97190826649E+00  0.31038022702E+01  0.51100000000E-03 0. -1.
         22    1    1    0    0    0  0.49919414960E+02 -0.29013967877E+02  0.23908404615E+02  0.62492960669E+02  0.00000000000E+00 0.  1.
</event>
<event>
 4    1  0.1964735E-002  0.9118800E+02  0.7818608E-02  0.1130116E+00
         25   -1    0    0    0    0  0.00000000000E+00  0.00000000000E+00  0.99999998245E-14  0.12500000000E+03  0.12500000000E+03 0.  0.
        -11    1    1    0    0    0  0.11961095963E+01 -0.38002081923E+01  0.12521512014E+02  0.13140035154E+02  0.51100000000E-03 0. -1.
         11    1    1    0    0    0  0.44734818353E+01 -0.14274345668E+02  0.47038677566E+02  0.49359965270E+02  0.51100000000E-03 0.  1.
         22    1    1    0    0    0 -0.56695914316E+01  0.18074553860E+02 -0.59560189580E+02  0.62499999576E+02  0.00000000000E+00 0.  1.
</event>
<event>
 4    1  0.1964735E-002  0.9118800E+02  0.7818608E-02  0.1130116E+00
         25   -1    0    0    0    0  0.00000000000E+00  0.00000000000E+00  0.99999998245E-14  0.12500000000E+03  0.12500000000E+03 0.  0.
        -11    1    1    0    0    0 -0.37550153525E+02 -0.36248252878E+02 -0.11102501851E+02  0.53359304850E+02  0.51100000000E-03 0.  1.
         11    1    1    0    0    0 -0.63658000486E+01 -0.62903647116E+01 -0.18616106902E+01  0.91409897213E+01  0.51100000000E-03 0. -1.
         22    1    1    0    0    0  0.43915953574E+02  0.42538617590E+02  0.12964112541E+02  0.62499705429E+02  0.00000000000E+00 0.  1.
</event>
<event>
 4    1  0.1964735E-002  0.9118800E+02  0.7818608E-02  0.1130116E+00
         25   -1    0    0    0    0  0.00000000000E+00  0.00000000000E+00  0.99999998245E-14  0.12500000000E+03  0.12500000000E+03 0.  0.
        -11    1    1    0    0    0  0.34471876134E+02  0.70381124682E+01 -0.52323515558E+01  0.35569970120E+02  0.51100000000E-03 0.  1.
         11    1    1    0    0    0  0.26364314823E+02  0.44093849640E+01 -0.33288345986E+01  0.26936980378E+02  0.51100000000E-03 0. -1.
         22    1    1    0    0    0 -0.60836190957E+02 -0.11447497432E+02  0.85611861544E+01  0.62493049501E+02  0.00000000000E+00 0. -1.
</event>
<event>
 4    1  0.1964735E-002  0.9118800E+02  0.7818608E-02  0.1130116E+00
         25   -1    0    0    0    0  0.00000000000E+00  0.00000000000E+00  0.99999998245E-14  0.12500000000E+03  0.12500000000E+03 0.  0.
        -11    1    1    0    0    0 -0.25317885506E+02 -0.46480941982E+02  0.14935153293E+02  0.54995746183E+02  0.51100000000E-03 0. -1.
         11    1    1    0    0    0 -0.86067941832E+01 -0.16101940236E+01  0.15366230600E+01  0.88899292233E+01  0.51100000000E-03 0.  1.
         22    1    1    0    0    0  0.33924679689E+02  0.48091136006E+02 -0.16471776353E+02  0.61114324594E+02  0.00000000000E+00 0. -1.
</event>
<event>
 4    1  0.1964735E-002  0.9118800E+02  0.7818608E-02  0.1130116E+00
         25   -1    0    0    0    0  0.00000000000E+00  0.00000000000E+00  0.99999998245E-14  0.12500000000E+03  0.12500000000E+03 0.  0.
        -11    1    1    0    0    0  0.32398493724E+01 -0.71253994502E+01  0.42172940404E+01  0.88912041122E+01  0.51100000000E-03 0. -1.
         11    1    1    0    0    0  0.23524553692E+02 -0.43185654462E+02  0.21396035017E+02  0.53630175204E+02  0.51100000000E-03 0.  1.
         22    1    1    0    0    0 -0.26764403064E+02  0.50311053912E+02 -0.25613329057E+02  0.62478620684E+02  0.00000000000E+00 0.  1.
</event>
<event>
 4    1  0.1964735E-002  0.9118800E+02  0.7818608E-02  0.1130116E+00
         25   -1    0    0    0    0  0.00000000000E+00  0.00000000000E+00  0.99999998245E-14  0.12500000000E+03  0.12500000000E+03 0.  0.
        -11    1    1    0    0    0  0.10893092753E+02  0.15531561035E+02 -0.38064407134E+01  0.19348846195E+02  0.51100000000E-03 0.  1.
         11    1    1    0    0    0  0.24282130171E+02  0.34647203707E+02 -0.84836042975E+01  0.43151154243E+02  0.51100000000E-03 0. -1.
         22    1    1    0    0    0 -0.35175222924E+02 -0.50178764742E+02  0.12290045011E+02  0.62499999562E+02  0.00000000000E+00 0. -1.
</event>
<event>
 4    1  0.1964735E-002  0.9118800E+02  0.7818608E-02  0.1130116E+00
         25   -1    0    0    0    0  0.00000000000E+00  0.00000000000E+00  0.99999998245E-14  0.12500000000E+03  0.12500000000E+03 0.  0.
        -11    1    1    0    0    0 -0.29285742420E+01  0.14325407393E+01 -0.14966098440E+00  0.32636051741E+01  0.51100000000E-03 0. -1.
         11    1    1    0    0    0 -0.11564861188E+02  0.21287161210E+02 -0.55140881809E+02  0.60227951100E+02  0.51100000000E-03 0.  1.
         22    1    1    0    0    0  0.14493435430E+02 -0.22719701949E+02  0.55290542794E+02  0.61508443726E+02  0.00000000000E+00 0.  1.
</event>
<event>
 4    1  0.1964735E-002  0.9118800E+02  0.7818608E-02  0.1130116E+00
         25   -1    0    0    0    0  0.00000000000E+00  0.00000000000E+00  0.99999998245E-14  0.12500000000E+03  0.12500000000E+03 0.  0.
        -11    1    1    0    0    0  0.13784466683E+02 -0.33564404274E+02 -0.21045660397E+02  0.41946401250E+02  0.51100000000E-03 0. -1.
         11    1    1    0    0    0  0.67547412857E+01 -0.16445504789E+02 -0.10313547633E+02  0.20553598776E+02  0.51100000000E-03 0.  1.
         22    1    1    0    0    0 -0.20539207968E+02  0.50009909063E+02  0.31359208030E+02  0.62499999974E+02  0.00000000000E+00 0. -1.
</event>
<event>
 4    1  0.1964735E-002  0.9118800E+02  0.7818608E-02  0.1130116E+00
         25   -1    0    0    0    0  0.00000000000E+00  0.00000000000E+00  0.99999998245E-14  0.12500000000E+03  0.12500000000E+03 0.  0.
        -11    1    1    0    0    0  0.13852148186E+02  0.14221784703E+02 -0.11165178094E+02  0.22777233626E+02  0.51100000000E-03 0.  1.
         11    1    1    0    0    0  0.23738035889E+02  0.26490864904E+02 -0.17713080981E+02  0.39736802958E+02  0.51100000000E-03 0. -1.
         22    1    1    0    0    0 -0.37590184076E+02 -0.40712649607E+02  0.28878259074E+02  0.62485963416E+02  0.00000000000E+00 0. -1.
</event>
<event>
 4    1  0.1964735E-002  0.9118800E+02  0.7818608E-02  0.1130116E+00
         25   -1    0    0    0    0  0.00000000000E+00  0.00000000000E+00  0.99999998245E-14  0.12500000000E+03  0.12500000000E+03 0.  0.
        -11    1    1    0    0    0 -0.83751276284E+01 -0.18120457545E+02 -0.25250886050E+02  0.32188522659E+02  0.51100000000E-03 0. -1.
         11    1    1    0    0    0 -0.87672713446E+01 -0.17791879411E+02 -0.22932296244E+02  0.30320063178E+02  0.51100000000E-03 0.  1.
         22    1    1    0    0    0  0.17142398973E+02  0.35912336956E+02  0.48183182294E+02  0.62491414163E+02  0.00000000000E+00 0.  1.
</event>
<event>
 4    1  0.1964735E-002  0.9118800E+02  0.7818608E-02  0.1130116E+00
         25   -1    0    0    0    0  0.00000000000E+00  0.00000000000E+00  0.99999998245E-14  0.12500000000E+03  0.12500000000E+03 0.  0.
        -11    1    1    0    0    0 -0.70474378693E+01  0.32687023602E+01  0.25558340268E+02  0.26712909859E+02  0.51100000000E-03 0. -1.
         11    1    1    0    0    0 -0.94375952342E+01  0.44016828113E+01  0.34238471325E+02  0.35787091727E+02  0.51100000000E-03 0.  1.
         22    1    1    0    0    0  0.16485033103E+02 -0.76703851715E+01 -0.59796811592E+02  0.62499998414E+02  0.00000000000E+00 0. -1.
</event>
<event>
 4    1  0.1964735E-002  0.9118800E+02  0.7818608E-02  0.1130116E+00
         25   -1    0    0    0    0  0.00000000000E+00  0.00000000000E+00  0.99999998245E-14  0.12500000000E+03  0.12500000000E+03 0.  0.
        -11    1    1    0    0    0  0.10950983381E+01  0.44670554546E+02  0.41042688021E+02  0.60672563190E+02  0.51100000000E-03 0.  1.
         11    1    1    0    0    0  0.33080069117E-01  0.13452766142E+01  0.12363906138E+01  0.18274368582E+01  0.51100000000E-03 0.  1.
         22    1    1    0    0    0 -0.11281784072E+01 -0.46015831160E+02 -0.42279078635E+02  0.62499999952E+02  0.00000000000E+00 0.  1.
</event>
<event>
 4    1  0.1964735E-002  0.9118800E+02  0.7818608E-02  0.1130116E+00
         25   -1    0    0    0    0  0.00000000000E+00  0.00000000000E+00  0.99999998245E-14  0.12500000000E+03  0.12500000000E+03 0.  0.
        -11    1    1    0    0    0  0.21470258305E+01 -0.60407126467E+01 -0.20425557886E+01  0.67284443676E+01  0.51100000000E-03 0. -1.
         11    1    1    0    0    0  0.17813984750E+02 -0.50040839216E+02 -0.17001267917E+02  0.55771558640E+02  0.51100000000E-03 0.  1.
         22    1    1    0    0    0 -0.19961010581E+02  0.56081551863E+02  0.19043823706E+02  0.62499996992E+02  0.00000000000E+00 0.  1.
</event>
<event>
 4    1  0.1964735E-002  0.9118800E+02  0.7818608E-02  0.1130116E+00
         25   -1    0    0    0    0  0.00000000000E+00  0.00000000000E+00  0.99999998245E-14  0.12500000000E+03  0.12500000000E+03 0.  0.
        -11    1    1    0    0    0 -0.37971763589E+02  0.44660444451E+02 -0.19549894602E+02  0.61794890629E+02  0.51100000000E-03 0. -1.
         11    1    1    0    0    0  0.18669816784E+01  0.79125471074E+00  0.29997825986E+00  0.20498028740E+01  0.51100000000E-03 0.  1.
         22    1    1    0    0    0  0.36104781911E+02 -0.45451699162E+02  0.19249916342E+02  0.61155306497E+02  0.00000000000E+00 0. -1.
</event>
<event>
 4    1  0.1964735E-002  0.9118800E+02  0.7818608E-02  0.1130116E+00
         25   -1    0    0    0    0  0.00000000000E+00  0.00000000000E+00  0.99999998245E-14  0.12500000000E+03  0.12500000000E+03 0.  0.
        -11    1    1    0    0    0  0.19375781881E+02  0.26256356251E+02  0.27272524574E+01  0.32745306126E+02  0.51100000000E-03 0. -1.
         11    1    1    0    0    0  0.17609177022E+02  0.23856444185E+02  0.24756348642E+01  0.29754693962E+02  0.51100000000E-03 0.  1.
         22    1    1    0    0    0 -0.36984958903E+02 -0.50112800436E+02 -0.52028873216E+01  0.62499999912E+02  0.00000000000E+00 0.  1.
</event>
<event>
 4    1  0.1964735E-002  0.9118800E+02  0.7818608E-02  0.1130116E+00
         25   -1    0    0    0    0  0.00000000000E+00  0.00000000000E+00  0.99999998245E-14  0.12500000000E+03  0.12500000000E+03 0.  0.
        -11    1    1    0    0    0 -0.54175095700E-01  0.70935827564E+01 -0.71211513576E+01  0.10051499798E+02  0.51100000000E-03 0. -1.
         11    1    1    0    0    0 -0.29626896526E+00  0.37037048762E+02 -0.37135084717E+02  0.52448501156E+02  0.51100000000E-03 0.  1.
         22    1    1    0    0    0  0.35044406097E+00 -0.44130631519E+02  0.44256236075E+02  0.62499999046E+02  0.00000000000E+00 0.  1.
</event>
<event>
 4    1  0.1964735E-002  0.9118800E+02  0.7818608E-02  0.1130116E+00
         25   -1    0    0    0    0  0.00000000000E+00  0.00000000000E+00  0.99999998245E-14  0.12500000000E+03  0.12500000000E+03 0.  0.
        -11    1    1    0    0    0 -0.14856370791E+02 -0.37337326155E+02  0.23297516855E+02  0.46449563716E+02  0.51100000000E-03 0.  1.
         11    1    1    0    0    0 -0.62369303092E+01 -0.12166810344E+02  0.84497710705E+01  0.16072622842E+02  0.51100000000E-03 0. -1.
         22    1    1    0    0    0  0.21093301100E+02  0.49504136500E+02 -0.31747287925E+02  0.62477813442E+02  0.00000000000E+00 0.  1.
</event>
<event>
 4    1  0.1964735E-002  0.9118800E+02  0.7818608E-02  0.1130116E+00
         25   -1    0    0    0    0  0.00000000000E+00  0.00000000000E+00  0.99999998245E-14  0.12500000000E+03  0.12500000000E+03 0.  0.
        -11    1    1    0    0    0 -0.43976139035E+00 -0.65443317824E+01  0.53720021722E+01  0.84782118491E+01  0.51100000000E-03 0. -1.
         11    1    1    0    0    0 -0.28014392366E+01 -0.41700246970E+02  0.34228569013E+02  0.54021788161E+02  0.51100000000E-03 0. -1.
         22    1    1    0    0    0  0.32412006270E+01  0.48244578753E+02 -0.39600571185E+02  0.62499999990E+02  0.00000000000E+00 0. -1.
</event>
<event>
 4    1  0.1964735E-002  0.9118800E+02  0.7818608E-02  0.1130116E+00
         25   -1    0    0    0    0  0.00000000000E+00  0.00000000000E+00  0.99999998245E-14  0.12500000000E+03  0.12500000000E+03 0.  0.
        -11    1    1    0    0    0  0.20684894441E+02 -0.35818165745E+01 -0.19173783306E+02  0.28431113846E+02  0.51100000000E-03 0.  1.
         11    1    1    0    0    0  0.24512213994E+02 -0.46145950246E+01 -0.23207733547E+02  0.34069664201E+02  0.51100000000E-03 0. -1.
         22    1    1    0    0    0 -0.45197108435E+02  0.81964115991E+01  0.42381516853E+02  0.62499221953E+02  0.00000000000E+00 0.  1.
</event>
<event>
 4    1  0.1964735E-002  0.9118800E+02  0.7818608E-02  0.1130116E+00
         25   -1    0    0    0    0  0.00000000000E+00  0.00000000000E+00  0.99999998245E-14  0.12500000000E+03  0.12500000000E+03 0.  0.
        -11    1    1    0    0    0  0.16838591509E+02  0.30969055461E+02 -0.15776981408E+02  0.38620379371E+02  0.51100000000E-03 0.  1.
         11    1    1    0    0    0  0.14608258929E+02 -0.21992191600E+02 -0.23447431117E+02  0.35310618043E+02  0.51100000000E-03 0. -1.
         22    1    1    0    0    0 -0.31446850437E+02 -0.89768638610E+01  0.39224412526E+02  0.51069002587E+02  0.00000000000E+00 0. -1.
</event>
<event>
 4    1  0.1964735E-002  0.9118800E+02  0.7818608E-02  0.1130116E+00
         25   -1    0    0    0    0  0.00000000000E+00  0.00000000000E+00  0.99999998245E-14  0.12500000000E+03  0.12500000000E+03 0.  0.
        -11    1    1    0    0    0  0.13980493912E+02  0.77925527262E+01 -0.12086496873E+00  0.16006020636E+02  0.51100000000E-03 0. -1.
         11    1    1    0    0    0  0.40501896791E+02  0.22822894686E+02 -0.64744997749E+00  0.46494164766E+02  0.51100000000E-03 0.  1.
         22    1    1    0    0    0 -0.54482390703E+02 -0.30615447413E+02  0.76831494623E+00  0.62499814598E+02  0.00000000000E+00 0.  1.
</event>
<event>
 4    1  0.1964735E-002  0.9118800E+02  0.7818608E-02  0.1130116E+00
         25   -1    0    0    0    0  0.00000000000E+00  0.00000000000E+00  0.99999998245E-14  0.12500000000E+03  0.12500000000E+03 0.  0.
        -11    1    1    0    0    0  0.49811829221E+01 -0.11985368355E+02 -0.33822160781E+01  0.13412703820E+02  0.51100000000E-03 0. -1.
         11    1    1    0    0    0  0.18244364228E+02 -0.43861111669E+02 -0.12365627496E+02  0.49087296590E+02  0.51100000000E-03 0.  1.
         22    1    1    0    0    0 -0.23225547150E+02  0.55846480024E+02  0.15747843574E+02  0.62499999590E+02  0.00000000000E+00 0.  1.
</event>
<event>
 4    1  0.1964735E-002  0.9118800E+02  0.7818608E-02  0.1130116E+00
         25   -1    0    0    0    0  0.00000000000E+00  0.00000000000E+00  0.99999998245E-14  0.12500000000E+03  0.12500000000E+03 0.  0.
        -11    1    1    0    0    0  0.46307583871E+01  0.39071568342E+01  0.10616699087E+02  0.12223914983E+02  0.51100000000E-03 0. -1.
         11    1    1    0    0    0  0.19064667759E+02  0.16076420159E+02  0.43655147834E+02  0.50276085514E+02  0.51100000000E-03 0.  1.
         22    1    1    0    0    0 -0.23695426146E+02 -0.19983576994E+02 -0.54271846920E+02  0.62499999503E+02  0.00000000000E+00 0.  1.
</event>
<event>
 4    1  0.1964735E-002  0.9118800E+02  0.7818608E-02  0.1130116E+00
         25   -1    0    0    0    0  0.00000000000E+00  0.00000000000E+00  0.99999998245E-14  0.12500000000E+03  0.12500000000E+03 0.  0.
        -11    1    1    0    0    0  0.84795024577E+01  0.59484895869E+01  0.40668922500E+02  0.41967222304E+02  0.51100000000E-03 0.  1.
         11    1    1    0    0    0  0.41499119416E+01  0.29264938586E+01  0.19894946968E+02  0.20532779903E+02  0.51100000000E-03 0. -1.
         22    1    1    0    0    0 -0.12629414399E+02 -0.88749834455E+01 -0.60563869468E+02  0.62499997793E+02  0.00000000000E+00 0.  1.
</event>
<event>
 4    1  0.1964735E-002  0.9118800E+02  0.7818608E-02  0.1130116E+00
         25   -1    0    0    0    0  0.00000000000E+00  0.00000000000E+00  0.99999998245E-14  0.12500000000E+03  0.12500000000E+03 0.  0.
        -11    1    1    0    0    0 -0.91269736446E+00 -0.28714653288E+01 -0.14124623791E+01  0.33276688308E+01  0.51100000000E-03 0. -1.
         11    1    1    0    0    0 -0.15138774695E+02 -0.51911046164E+02 -0.24031392894E+02  0.59173026438E+02  0.51100000000E-03 0.  1.
         22    1    1    0    0    0  0.16051472060E+02  0.54782511493E+02  0.25443855273E+02  0.62499304731E+02  0.00000000000E+00 0.  1.
</event>
<event>
 4    1  0.1964735E-002  0.9118800E+02  0.7818608E-02  0.1130116E+00
         25   -1    0    0    0    0  0.00000000000E+00  0.00000000000E+00  0.99999998245E-14  0.12500000000E+03  0.12500000000E+03 0.  0.
        -11    1    1    0    0    0  0.78104606004E+00  0.79740974498E+00 -0.14267877304E+01  0.18115238717E+01  0.51100000000E-03 0. -1.
         11    1    1    0    0    0  0.26165508152E+02  0.26690202207E+02 -0.47813078122E+02  0.60688476257E+02  0.51100000000E-03 0. -1.
         22    1    1    0    0    0 -0.26946554212E+02 -0.27487611952E+02  0.49239865852E+02  0.62499999871E+02  0.00000000000E+00 0. -1.
</event>
<event>
 4    1  0.1964735E-002  0.9118800E+02  0.7818608E-02  0.1130116E+00
         25   -1    0    0    0    0  0.00000000000E+00  0.00000000000E+00  0.99999998245E-14  0.12500000000E+03  0.12500000000E+03 0.  0.
        -11    1    1    0    0    0 -0.18669385380E+01 -0.18108853391E+02  0.51560107821E+02  0.54679619141E+02  0.51100000000E-03 0. -1.
         11    1    1    0    0    0 -0.63679157343E+00 -0.23737663790E+01  0.74296503988E+01  0.78255974621E+01  0.51100000000E-03 0.  1.
         22    1    1    0    0    0  0.25037301115E+01  0.20482619770E+02 -0.58989758219E+02  0.62494783397E+02  0.00000000000E+00 0. -1.
</event>
<event>
 4    1  0.1964735E-002  0.9118800E+02  0.7818608E-02  0.1130116E+00
         25   -1    0    0    0    0  0.00000000000E+00  0.00000000000E+00  0.99999998245E-14  0.12500000000E+03  0.12500000000E+03 0.  0.
        -11    1    1    0    0    0 -0.12314719571E+02 -0.15407685349E+01  0.40756338033E+01  0.13062812750E+02  0.51100000000E-03 0.  1.
         11    1    1    0    0    0 -0.39396032182E+02 -0.27097774820E+02  0.14516728250E+02  0.49970712935E+02  0.51100000000E-03 0. -1.
         22    1    1    0    0    0  0.51710751753E+02  0.28638543355E+02 -0.18592362053E+02  0.61966474315E+02  0.00000000000E+00 0. -1.
</event>
<event>
 4    1  0.1964735E-002  0.9118800E+02  0.7818608E-02  0.1130116E+00
         25   -1    0    0    0    0  0.00000000000E+00  0.00000000000E+00  0.99999998245E-14  0.12500000000E+03  0.12500000000E+03 0.  0.
        -11    1    1    0    0    0  0.17012136644E+01 -0.54883675252E+01  0.22347323175E+01  0.61652522102E+01  0.51100000000E-03 0.  1.
         11    1    1    0    0    0  0.15527998275E+02 -0.50153859656E+02  0.20422425318E+02  0.56334747935E+02  0.51100000000E-03 0. -1.
         22    1    1    0    0    0 -0.17229211939E+02  0.55642227181E+02 -0.22657157636E+02  0.62499999855E+02  0.00000000000E+00 0. -1.
</event>
<event>
 4    1  0.1964735E-002  0.9118800E+02  0.7818608E-02  0.1130116E+00
         25   -1    0    0    0    0  0.00000000000E+00  0.00000000000E+00  0.99999998245E-14  0.12500000000E+03  0.12500000000E+03 0.  0.
        -11    1    1    0    0    0 -0.91292305273E+00 -0.13971094554E+02  0.41776145940E+02  0.44059860206E+02  0.51100000000E-03 0. -1.
         11    1    1    0    0    0 -0.38157238501E+00 -0.58463360631E+01  0.17484665084E+02  0.18440139810E+02  0.51100000000E-03 0. -1.
         22    1    1    0    0    0  0.12944954377E+01  0.19817430618E+02 -0.59260811024E+02  0.62499999984E+02  0.00000000000E+00 0. -1.
</event>
<event>
 4    1  0.1964735E-002  0.9118800E+02  0.7818608E-02  0.1130116E+00
         25   -1    0    0    0    0  0.00000000000E+00  0.00000000000E+00  0.99999998245E-14  0.12500000000E+03  0.12500000000E+03 0.  0.
        -11    1    1    0    0    0  0.30265116347E+02 -0.88696079339E+01  0.30206224853E+02  0.43669935110E+02  0.51100000000E-03 0.  1.
         11    1    1    0    0    0  0.13048778180E+02 -0.38238835208E+01  0.13026075691E+02  0.18830064932E+02  0.51100000000E-03 0.  1.
         22    1    1    0    0    0 -0.43313894527E+02  0.12693491455E+02 -0.43232300544E+02  0.62499999958E+02  0.00000000000E+00 0.  1.
</event>
<event>
 4    1  0.1964735E-002  0.9118800E+02  0.7818608E-02  0.1130116E+00
         25   -1    0    0    0    0  0.00000000000E+00  0.00000000000E+00  0.99999998245E-14  0.12500000000E+03  0.12500000000E+03 0.  0.
        -11    1    1    0    0    0 -0.25916794049E+02  0.36234851963E+02 -0.26057090425E+02  0.51610238056E+02  0.51100000000E-03 0.  1.
         11    1    1    0    0    0 -0.54683444022E+01  0.76438639373E+01 -0.55004974643E+01  0.10889762119E+02  0.51100000000E-03 0. -1.
         22    1    1    0    0    0  0.31385138451E+02 -0.43878715901E+02  0.31557587890E+02  0.62499999825E+02  0.00000000000E+00 0.  1.
</event>
<event>
 4    1  0.1964735E-002  0.9118800E+02  0.7818608E-02  0.1130116E+00
         25   -1    0    0    0    0  0.00000000000E+00  0.00000000000E+00  0.99999998245E-14  0.12500000000E+03  0.12500000000E+03 0.  0.
        -11    1    1    0    0    0 -0.21022363963E+02 -0.41988451789E+02 -0.13087226839E+02  0.48746747346E+02  0.51100000000E-03 0.  1.
         11    1    1    0    0    0 -0.60109293899E+01 -0.11817277690E+02 -0.36573114382E+01  0.13753372363E+02  0.51100000000E-03 0. -1.
         22    1    1    0    0    0  0.27033293353E+02  0.53805729479E+02  0.16744538278E+02  0.62499880291E+02  0.00000000000E+00 0.  1.
</event>
<event>
 4    1  0.1964735E-002  0.9118800E+02  0.7818608E-02  0.1130116E+00
         25   -1    0    0    0    0  0.00000000000E+00  0.00000000000E+00  0.99999998245E-14  0.12500000000E+03  0.12500000000E+03 0.  0.
        -11    1    1    0    0    0 -0.14497745666E+02  0.29374458075E+02 -0.10953788308E+02  0.34540250363E+02  0.51100000000E-03 0.  1.
         11    1    1    0    0    0 -0.90892261762E+01  0.17563143510E+02 -0.21102459146E+02  0.28920439566E+02  0.51100000000E-03 0. -1.
         22    1    1    0    0    0  0.23586971842E+02 -0.46937601585E+02  0.32056247453E+02  0.61539310071E+02  0.00000000000E+00 0.  1.
</event>
<event>
 4    1  0.1964735E-002  0.9118800E+02  0.7818608E-02  0.1130116E+00
         25   -1    0    0    0    0  0.00000000000E+00  0.00000000000E+00  0.99999998245E-14  0.12500000000E+03  0.12500000000E+03 0.  0.
        -11    1    1    0    0    0  0.15464046168E+02 -0.20903047171E+02 -0.50595215413E+02  0.56885410501E+02  0.51100000000E-03 0. -1.
         11    1    1    0    0    0  0.12675256957E+01 -0.26925708150E+01 -0.47851708223E+01  0.56351059478E+01  0.51100000000E-03 0.  1.
         22    1    1    0    0    0 -0.16731571864E+02  0.23595617986E+02  0.55380386236E+02  0.62479483551E+02  0.00000000000E+00 0. -1.
</event>
<event>
 4    1  0.1964735E-002  0.9118800E+02  0.7818608E-02  0.1130116E+00
         25   -1    0    0    0    0  0.00000000000E+00  0.00000000000E+00  0.99999998245E-14  0.12500000000E+03  0.12500000000E+03 0.  0.
        -11    1    1    0    0    0 -0.66201800024E+01 -0.91152516605E+01 -0.15354093026E+02  0.19043706808E+02  0.51100000000E-03 0. -1.
         11    1    1    0    0    0 -0.15127974576E+02 -0.20777996231E+02 -0.35040959220E+02  0.43456294889E+02  0.51100000000E-03 0.  1.
         22    1    1    0    0    0  0.21748154578E+02  0.29893247891E+02  0.50395052246E+02  0.62499998303E+02  0.00000000000E+00 0.  1.
</event>
<event>
 4    1  0.1964735E-002  0.9118800E+02  0.7818608E-02  0.1130116E+00
         25   -1    0    0    0    0  0.00000000000E+00  0.00000000000E+00  0.99999998245E-14  0.12500000000E+03  0.12500000000E+03 0.  0.
        -11    1    1    0    0    0 -0.29351441841E+02  0.54730913358E+00 -0.44692647760E+02  0.53471856612E+02  0.51100000000E-03 0. -1.
         11    1    1    0    0    0 -0.49546457077E+01  0.90041092496E-01 -0.75465723679E+01  0.90281435662E+01  0.51100000000E-03 0.  1.
         22    1    1    0    0    0  0.34306087549E+02 -0.63735022607E+00  0.52239220128E+02  0.62499999822E+02  0.00000000000E+00 0.  1.
</event>
<event>
 4    1  0.1964735E-002  0.9118800E+02  0.7818608E-02  0.1130116E+00
         25   -1    0    0    0    0  0.00000000000E+00  0.00000000000E+00  0.99999998245E-14  0.12500000000E+03  0.12500000000E+03 0.  0.
        -11    1    1    0    0    0  0.11703384093E+02 -0.37609073288E+02  0.21865530223E+02  0.45050116593E+02  0.51100000000E-03 0.  1.
         11    1    1    0    0    0  0.46450877276E+01 -0.14370057682E+02  0.87446499410E+01  0.17451197685E+02  0.51100000000E-03 0. -1.
         22    1    1    0    0    0 -0.16348471821E+02  0.51979130970E+02 -0.30610180164E+02  0.62498685722E+02  0.00000000000E+00 0.  1.
</event>
<event>
 4    1  0.1964735E-002  0.9118800E+02  0.7818608E-02  0.1130116E+00
         25   -1    0    0    0    0  0.00000000000E+00  0.00000000000E+00  0.99999998245E-14  0.12500000000E+03  0.12500000000E+03 0.  0.
        -11    1    1    0    0    0  0.16784175914E+01  0.20905584343E+01  0.12352126179E+01  0.29518249696E+01  0.51100000000E-03 0. -1.
         11    1    1    0    0    0  0.30581824581E+02  0.42581039455E+02  0.28250877758E+02  0.59552539913E+02  0.51100000000E-03 0.  1.
         22    1    1    0    0    0 -0.32260242173E+02 -0.44671597889E+02 -0.29486090376E+02  0.62495635117E+02  0.00000000000E+00 0.  1.
</event>
<event>
 4    1  0.1964735E-002  0.9118800E+02  0.7818608E-02  0.1130116E+00
         25   -1    0    0    0    0  0.00000000000E+00  0.00000000000E+00  0.99999998245E-14  0.12500000000E+03  0.12500000000E+03 0.  0.
        -11    1    1    0    0    0  0.14413145240E+02 -0.36752064028E+01  0.41778066723E+02  0.44346958826E+02  0.51100000000E-03 0. -1.
         11    1    1    0    0    0  0.58437715531E+01 -0.15429482802E+01  0.17117367853E+02  0.18153088933E+02  0.51100000000E-03 0.  1.
         22    1    1    0    0    0 -0.20256916793E+02  0.52181546829E+01 -0.58895434575E+02  0.62499952240E+02  0.00000000000E+00 0. -1.
</event>
<event>
 4    1  0.1964735E-002  0.9118800E+02  0.7818608E-02  0.1130116E+00
         25   -1    0    0    0    0  0.00000000000E+00  0.00000000000E+00  0.99999998245E-14  0.12500000000E+03  0.12500000000E+03 0.  0.
        -11    1    1    0    0    0  0.23649837165E+01  0.29435884974E+02 -0.14910326511E+02  0.33081449622E+02  0.51100000000E-03 0. -1.
         11    1    1    0    0    0  0.21026094219E+01  0.26176966360E+02 -0.13258829975E+02  0.29418550385E+02  0.51100000000E-03 0.  1.
         22    1    1    0    0    0 -0.44675931383E+01 -0.55612851334E+02  0.28169156486E+02  0.62499999993E+02  0.00000000000E+00 0. -1.
</event>
<event>
 4    1  0.1964735E-002  0.9118800E+02  0.7818608E-02  0.1130116E+00
         25   -1    0    0    0    0  0.00000000000E+00  0.00000000000E+00  0.99999998245E-14  0.12500000000E+03  0.12500000000E+03 0.  0.
        -11    1    1    0    0    0 -0.21998146981E+02  0.21888265187E+02 -0.74338977797E+01  0.31910460040E+02  0.51100000000E-03 0.  1.
         11    1    1    0    0    0 -0.21086146097E+02  0.20985286041E+02 -0.71212482476E+01  0.30589540113E+02  0.51100000000E-03 0. -1.
         22    1    1    0    0    0  0.43084293078E+02 -0.42873551228E+02  0.14555146027E+02  0.62499999847E+02  0.00000000000E+00 0.  1.
</event>
<event>
 4    1  0.1964735E-002  0.9118800E+02  0.7818608E-02  0.1130116E+00
         25   -1    0    0    0    0  0.00000000000E+00  0.00000000000E+00  0.99999998245E-14  0.12500000000E+03  0.12500000000E+03 0.  0.
        -11    1    1    0    0    0  0.48183382500E+02  0.38518847269E+02  0.64320132339E+01  0.62021856942E+02  0.51100000000E-03 0.  1.
         11    1    1    0    0    0  0.33950885040E+00  0.32315145991E+00  0.10677385442E+00  0.48072241747E+00  0.51100000000E-03 0. -1.
         22    1    1    0    0    0 -0.48522891350E+02 -0.38841998728E+02 -0.65387870883E+01  0.62497420641E+02  0.00000000000E+00 0.  1.
</event>
<event>
 4    1  0.1964735E-002  0.9118800E+02  0.7818608E-02  0.1130116E+00
         25   -1    0    0    0    0  0.00000000000E+00  0.00000000000E+00  0.99999998245E-14  0.12500000000E+03  0.12500000000E+03 0.  0.
        -11    1    1    0    0    0  0.12037507534E+02 -0.24077615897E+02  0.27938247436E+01  0.27063603453E+02  0.51100000000E-03 0.  1.
         11    1    1    0    0    0  0.10587116272E+02 -0.32979080773E+02  0.81673201489E+01  0.35586681754E+02  0.51100000000E-03 0. -1.
         22    1    1    0    0    0 -0.22624623806E+02  0.57056696671E+02 -0.10961144892E+02  0.62349714792E+02  0.00000000000E+00 0. -1.
</event>
<event>
 4    1  0.1964735E-002  0.9118800E+02  0.7818608E-02  0.1130116E+00
         25   -1    0    0    0    0  0.00000000000E+00  0.00000000000E+00  0.99999998245E-14  0.12500000000E+03  0.12500000000E+03 0.  0.
        -11    1    1    0    0    0  0.75926515235E+01  0.23937078455E+02  0.13375593413E+02  0.28452391491E+02  0.51100000000E-03 0.  1.
         11    1    1    0    0    0  0.87678536064E+01  0.28507508824E+02  0.16424171608E+02  0.34048593650E+02  0.51100000000E-03 0. -1.
         22    1    1    0    0    0 -0.16360505130E+02 -0.52444587280E+02 -0.29799765022E+02  0.62499014859E+02  0.00000000000E+00 0. -1.
</event>
<event>
 4    1  0.1964735E-002  0.9118800E+02  0.7818608E-02  0.1130116E+00
         25   -1    0    0    0    0  0.00000000000E+00  0.00000000000E+00  0.99999998245E-14  0.12500000000E+03  0.12500000000E+03 0.  0.
        -11    1    1    0    0    0 -0.38758462968E+02 -0.15284347469E+02 -0.27429097498E+02  0.49881711268E+02  0.51100000000E-03 0. -1.
         11    1    1    0    0    0 -0.97611040491E+01 -0.37849998259E+01 -0.70444090713E+01  0.12618600373E+02  0.51100000000E-03 0.  1.
         22    1    1    0    0    0  0.48519567017E+02  0.19069347295E+02  0.34473506570E+02  0.62499688359E+02  0.00000000000E+00 0. -1.
</event>
<event>
 4    1  0.1964735E-002  0.9118800E+02  0.7818608E-02  0.1130116E+00
         25   -1    0    0    0    0  0.00000000000E+00  0.00000000000E+00  0.99999998245E-14  0.12500000000E+03  0.12500000000E+03 0.  0.
        -11    1    1    0    0    0 -0.53038106038E+01 -0.17674889390E+02  0.19248129022E+01  0.18553625706E+02  0.51100000000E-03 0. -1.
         11    1    1    0    0    0 -0.12546170032E+02 -0.41853241216E+02  0.47103167948E+01  0.43946413589E+02  0.51100000000E-03 0.  1.
         22    1    1    0    0    0  0.17849980635E+02  0.59528130606E+02 -0.66351296970E+01  0.62499960705E+02  0.00000000000E+00 0.  1.
</event>
<event>
 4    1  0.1964735E-002  0.9118800E+02  0.7818608E-02  0.1130116E+00
         25   -1    0    0    0    0  0.00000000000E+00  0.00000000000E+00  0.99999998245E-14  0.12500000000E+03  0.12500000000E+03 0.  0.
        -11    1    1    0    0    0 -0.25240390487E+02 -0.41625019741E+02  0.26754850863E+02  0.55547651844E+02  0.51100000000E-03 0. -1.
         11    1    1    0    0    0 -0.16537972425E+01 -0.55686054365E+01  0.39794606447E+01  0.70413435586E+01  0.51100000000E-03 0.  1.
         22    1    1    0    0    0  0.26894187730E+02  0.47193625177E+02 -0.30734311508E+02  0.62411004598E+02  0.00000000000E+00 0. -1.
</event>
<event>
 4    1  0.1964735E-002  0.9118800E+02  0.7818608E-02  0.1130116E+00
         25   -1    0    0    0    0  0.00000000000E+00  0.00000000000E+00  0.99999998245E-14  0.12500000000E+03  0.12500000000E+03 0.  0.
        -11    1    1    0    0    0  0.12890364941E+02  0.22110593792E+01  0.62665075938E+01  0.14502393236E+02  0.51100000000E-03 0. -1.
         11    1    1    0    0    0  0.42660845899E+02  0.73345059944E+01  0.20737105340E+02  0.47997607119E+02  0.51100000000E-03 0.  1.
         22    1    1    0    0    0 -0.55551210840E+02 -0.95455653736E+01 -0.27003612934E+02  0.62499999645E+02  0.00000000000E+00 0.  1.
</event>
<event>
 4    1  0.1964735E-002  0.9118800E+02  0.7818608E-02  0.1130116E+00
         25   -1    0    0    0    0  0.00000000000E+00  0.00000000000E+00  0.99999998245E-14  0.12500000000E+03  0.12500000000E+03 0.  0.
        -11    1    1    0    0    0  0.80387883319E+01  0.37953429671E+02 -0.29496291951E+02  0.48735163699E+02  0.51100000000E-03 0. -1.
         11    1    1    0    0    0  0.28988966441E+01  0.10799365615E+02 -0.80393070663E+01  0.13771723124E+02  0.51100000000E-03 0.  1.
         22    1    1    0    0    0 -0.10937684976E+02 -0.48752795286E+02  0.37535599018E+02  0.62493113176E+02  0.00000000000E+00 0. -1.
</event>
<event>
 4    1  0.1964735E-002  0.9118800E+02  0.7818608E-02  0.1130116E+00
         25   -1    0    0    0    0  0.00000000000E+00  0.00000000000E+00  0.99999998245E-14  0.12500000000E+03  0.12500000000E+03 0.  0.
        -11    1    1    0    0    0 -0.61384786821E+01  0.18443748252E+02 -0.23493249146E+02  0.30492384719E+02  0.51100000000E-03 0.  1.
         11    1    1    0    0    0 -0.64372645833E+01  0.19362061303E+02 -0.24660893194E+02  0.32007615447E+02  0.51100000000E-03 0.  1.
         22    1    1    0    0    0  0.12575743265E+02 -0.37805809555E+02  0.48154142340E+02  0.62499999834E+02  0.00000000000E+00 0.  1.
</event>
<event>
 4    1  0.1964735E-002  0.9118800E+02  0.7818608E-02  0.1130116E+00
         25   -1    0    0    0    0  0.00000000000E+00  0.00000000000E+00  0.99999998245E-14  0.12500000000E+03  0.12500000000E+03 0.  0.
        -11    1    1    0    0    0 -0.59699758165E+01  0.16672845141E+01 -0.75343612602E+01  0.97563850252E+01  0.51100000000E-03 0.  1.
         11    1    1    0    0    0 -0.32276922154E+02  0.90150164747E+01 -0.40728598021E+02  0.52743614996E+02  0.51100000000E-03 0. -1.
         22    1    1    0    0    0  0.38246897970E+02 -0.10682300989E+02  0.48262959282E+02  0.62499999979E+02  0.00000000000E+00 0. -1.
</event>
<event>
 4    1  0.1964735E-002  0.9118800E+02  0.7818608E-02  0.1130116E+00
         25   -1    0    0    0    0  0.00000000000E+00  0.00000000000E+00  0.99999998245E-14  0.12500000000E+03  0.12500000000E+03 0.  0.
        -11    1    1    0    0    0  0.11493643788E+02 -0.20835514349E+02  0.31574244079E+02  0.39536760049E+02  0.51100000000E-03 0. -1.
         11    1    1    0    0    0  0.17683368501E+02 -0.77553081250E+01  0.14306858439E+02  0.24031906381E+02  0.51100000000E-03 0.  1.
         22    1    1    0    0    0 -0.29177012289E+02  0.28590822474E+02 -0.45881102518E+02  0.61431333570E+02  0.00000000000E+00 0. -1.
</event>
<event>
 4    1  0.1964735E-002  0.9118800E+02  0.7818608E-02  0.1130116E+00
         25   -1    0    0    0    0  0.00000000000E+00  0.00000000000E+00  0.99999998245E-14  0.12500000000E+03  0.12500000000E+03 0.  0.
        -11    1    1    0    0    0 -0.14528717601E-01  0.39971816016E+01  0.39860127832E+01  0.56449951292E+01  0.51100000000E-03 0.  1.
         11    1    1    0    0    0 -0.14381049606E+00  0.40263485211E+02  0.40141283732E+02  0.56855004905E+02  0.51100000000E-03 0.  1.
         22    1    1    0    0    0  0.15833921366E+00 -0.44260666813E+02 -0.44127296515E+02  0.62499999966E+02  0.00000000000E+00 0.  1.
</event>
<event>
 4    1  0.1964735E-002  0.9118800E+02  0.7818608E-02  0.1130116E+00
         25   -1    0    0    0    0  0.00000000000E+00  0.00000000000E+00  0.99999998245E-14  0.12500000000E+03  0.12500000000E+03 0.  0.
        -11    1    1    0    0    0  0.34191161906E+01  0.16668371010E+01 -0.89244821356E+00  0.39070661014E+01  0.51100000000E-03 0.  1.
         11    1    1    0    0    0  0.36738190261E+01  0.33754862113E+02 -0.48926972017E+02  0.59554481389E+02  0.51100000000E-03 0. -1.
         22    1    1    0    0    0 -0.70929352166E+01 -0.35421699214E+02  0.49819420231E+02  0.61538452510E+02  0.00000000000E+00 0. -1.
</event>
<event>
 4    1  0.1964735E-002  0.9118800E+02  0.7818608E-02  0.1130116E+00
         25   -1    0    0    0    0  0.00000000000E+00  0.00000000000E+00  0.99999998245E-14  0.12500000000E+03  0.12500000000E+03 0.  0.
        -11    1    1    0    0    0 -0.28686582011E+01  0.94510947155E+00  0.60951848091E+00  0.30812245662E+01  0.51100000000E-03 0.  1.
         11    1    1    0    0    0 -0.44150759662E+02 -0.26060025152E+02  0.31032395267E+02  0.59928491103E+02  0.51100000000E-03 0. -1.
         22    1    1    0    0    0  0.47019417863E+02  0.25114915680E+02 -0.31641913748E+02  0.61990284331E+02  0.00000000000E+00 0. -1.
</event>
<event>
 4    1  0.1964735E-002  0.9118800E+02  0.7818608E-02  0.1130116E+00
         25   -1    0    0    0    0  0.00000000000E+00  0.00000000000E+00  0.99999998245E-14  0.12500000000E+03  0.12500000000E+03 0.  0.
        -11    1    1    0    0    0 -0.69063425883E+01 -0.35670012813E+02  0.20043286097E+02  0.41494345396E+02  0.51100000000E-03 0.  1.
         11    1    1    0    0    0 -0.35530472808E+01 -0.18074504535E+02  0.10095924301E+02  0.21005702724E+02  0.51100000000E-03 0. -1.
         22    1    1    0    0    0  0.10459389869E+02  0.53744517349E+02 -0.30139210399E+02  0.62499951879E+02  0.00000000000E+00 0.  1.
</event>
<event>
 4    1  0.1964735E-002  0.9118800E+02  0.7818608E-02  0.1130116E+00
         25   -1    0    0    0    0  0.00000000000E+00  0.00000000000E+00  0.99999998245E-14  0.12500000000E+03  0.12500000000E+03 0.  0.
        -11    1    1    0    0    0  0.31191785792E+01  0.31600852844E+01 -0.79569258172E+00  0.45109357078E+01  0.51100000000E-03 0. -1.
         11    1    1    0    0    0  0.36497996038E+02  0.43716397420E+02 -0.10969828787E+02  0.57996243517E+02  0.51100000000E-03 0.  1.
         22    1    1    0    0    0 -0.39617174618E+02 -0.46876482704E+02  0.11765521369E+02  0.62492820775E+02  0.00000000000E+00 0.  1.
</event>
<event>
 4    1  0.1964735E-002  0.9118800E+02  0.7818608E-02  0.1130116E+00
         25   -1    0    0    0    0  0.00000000000E+00  0.00000000000E+00  0.99999998245E-14  0.12500000000E+03  0.12500000000E+03 0.  0.
        -11    1    1    0    0    0  0.22258698984E+02  0.75643154023E+01  0.18578497371E+02  0.29963796702E+02  0.51100000000E-03 0.  1.
         11    1    1    0    0    0  0.24168400870E+02  0.82150059241E+01  0.20174404652E+02  0.32536203317E+02  0.51100000000E-03 0. -1.
         22    1    1    0    0    0 -0.46427099855E+02 -0.15779321326E+02 -0.38752902023E+02  0.62499999981E+02  0.00000000000E+00 0.  1.
</event>
<event>
 4    1  0.1964735E-002  0.9118800E+02  0.7818608E-02  0.1130116E+00
         25   -1    0    0    0    0  0.00000000000E+00  0.00000000000E+00  0.99999998245E-14  0.12500000000E+03  0.12500000000E+03 0.  0.
        -11    1    1    0    0    0 -0.17482812921E+02  0.45834371932E+02  0.11260142865E+02  0.50331195254E+02  0.51100000000E-03 0.  1.
         11    1    1    0    0    0  0.12895621547E+01  0.12833627550E+02 -0.30685133586E+01  0.13258232956E+02  0.51100000000E-03 0. -1.
         22    1    1    0    0    0  0.16193250766E+02 -0.58667999482E+02 -0.81916295062E+01  0.61410571790E+02  0.00000000000E+00 0.  1.
</event>
<event>
 4    1  0.1964735E-002  0.9118800E+02  0.7818608E-02  0.1130116E+00
         25   -1    0    0    0    0  0.00000000000E+00  0.00000000000E+00  0.99999998245E-14  0.12500000000E+03  0.12500000000E+03 0.  0.
        -11    1    1    0    0    0 -0.22295911382E+02 -0.15509006177E+02  0.23346633928E+02  0.35814832863E+02  0.51100000000E-03 0. -1.
         11    1    1    0    0    0 -0.16653081232E+02 -0.11551660881E+02  0.17358946347E+02  0.26685183195E+02  0.51100000000E-03 0.  1.
         22    1    1    0    0    0  0.38948992614E+02  0.27060667058E+02 -0.40705580275E+02  0.62499983942E+02  0.00000000000E+00 0. -1.
</event>
<event>
 4    1  0.1964735E-002  0.9118800E+02  0.7818608E-02  0.1130116E+00
         25   -1    0    0    0    0  0.00000000000E+00  0.00000000000E+00  0.99999998245E-14  0.12500000000E+03  0.12500000000E+03 0.  0.
        -11    1    1    0    0    0  0.19950838309E+02  0.37137541093E+02  0.11958619606E+02  0.43820560138E+02  0.51100000000E-03 0.  1.
         11    1    1    0    0    0  0.86968661025E+01  0.15738183682E+02  0.50608316948E+01  0.18679880174E+02  0.51100000000E-03 0. -1.
         22    1    1    0    0    0 -0.28647704411E+02 -0.52875724776E+02 -0.17019451300E+02  0.62499559688E+02  0.00000000000E+00 0. -1.
</event>
<event>
 4    1  0.1964735E-002  0.9118800E+02  0.7818608E-02  0.1130116E+00
         25   -1    0    0    0    0  0.00000000000E+00  0.00000000000E+00  0.99999998245E-14  0.12500000000E+03  0.12500000000E+03 0.  0.
        -11    1    1    0    0    0 -0.31901653758E+01 -0.16856473104E+02 -0.17530709226E+02  0.24528424468E+02  0.51100000000E-03 0. -1.
         11    1    1    0    0    0 -0.49398464980E+01 -0.26103796437E+02 -0.27129878504E+02  0.37971575945E+02  0.51100000000E-03 0.  1.
         22    1    1    0    0    0  0.81300118738E+01  0.42960269541E+02  0.44660587730E+02  0.62499999588E+02  0.00000000000E+00 0. -1.
</event>
<event>
 4    1  0.1964735E-002  0.9118800E+02  0.7818608E-02  0.1130116E+00
         25   -1    0    0    0    0  0.00000000000E+00  0.00000000000E+00  0.99999998245E-14  0.12500000000E+03  0.12500000000E+03 0.  0.
        -11    1    1    0    0    0  0.30711182238E+02 -0.66432356000E+01  0.41319929367E+02  0.51909978394E+02  0.51100000000E-03 0.  1.
         11    1    1    0    0    0  0.62998043086E+01 -0.12977370803E+01  0.84130187307E+01  0.10590115216E+02  0.51100000000E-03 0. -1.
         22    1    1    0    0    0 -0.37010986546E+02  0.79409726803E+01 -0.49732948098E+02  0.62499906390E+02  0.00000000000E+00 0.  1.
</event>
<event>
 4    1  0.1964735E-002  0.9118800E+02  0.7818608E-02  0.1130116E+00
         25   -1    0    0    0    0  0.00000000000E+00  0.00000000000E+00  0.99999998245E-14  0.12500000000E+03  0.12500000000E+03 0.  0.
        -11    1    1    0    0    0  0.19320097596E+02 -0.38865475750E+01 -0.34371214447E+02  0.39620093463E+02  0.51100000000E-03 0. -1.
         11    1    1    0    0    0  0.11657711221E+02 -0.22353944891E+01 -0.19562626258E+02  0.22882210684E+02  0.51100000000E-03 0.  1.
         22    1    1    0    0    0 -0.30977808817E+02  0.61219420640E+01  0.53933840705E+02  0.62497695853E+02  0.00000000000E+00 0.  1.
</event>
<event>
 4    1  0.1964735E-002  0.9118800E+02  0.7818608E-02  0.1130116E+00
         25   -1    0    0    0    0  0.00000000000E+00  0.00000000000E+00  0.99999998245E-14  0.12500000000E+03  0.12500000000E+03 0.  0.
        -11    1    1    0    0    0  0.60053286986E+01  0.56710817178E+01 -0.14294813760E+01  0.83826343051E+01  0.51100000000E-03 0. -1.
         11    1    1    0    0    0  0.39028428898E+02  0.36398674739E+02 -0.89788197783E+01  0.54117473979E+02  0.51100000000E-03 0.  1.
         22    1    1    0    0    0 -0.45033757596E+02 -0.42069756457E+02  0.10408301154E+02  0.62499891716E+02  0.00000000000E+00 0.  1.
</event>
<event>
 4    1  0.1964735E-002  0.9118800E+02  0.7818608E-02  0.1130116E+00
         25   -1    0    0    0    0  0.00000000000E+00  0.00000000000E+00  0.99999998245E-14  0.12500000000E+03  0.12500000000E+03 0.  0.
        -11    1    1    0    0    0 -0.13466591049E+02 -0.14397326575E+02  0.59279237222E+00  0.19722664375E+02  0.51100000000E-03 0.  1.
         11    1    1    0    0    0 -0.29211264764E+02 -0.31224180229E+02  0.12857005439E+01  0.42777335661E+02  0.51100000000E-03 0. -1.
         22    1    1    0    0    0  0.42677855812E+02  0.45621506805E+02 -0.18784929162E+01  0.62499999964E+02  0.00000000000E+00 0. -1.
</event>
<event>
 4    1  0.1964735E-002  0.9118800E+02  0.7818608E-02  0.1130116E+00
         25   -1    0    0    0    0  0.00000000000E+00  0.00000000000E+00  0.99999998245E-14  0.12500000000E+03  0.12500000000E+03 0.  0.
        -11    1    1    0    0    0 -0.11952097583E+02 -0.35707165146E+02 -0.13188321805E+02  0.39897194283E+02  0.51100000000E-03 0. -1.
         11    1    1    0    0    0 -0.24050856342E+00 -0.22103580915E+02 -0.61353531831E+01  0.22940546911E+02  0.51100000000E-03 0.  1.
         22    1    1    0    0    0  0.12192606146E+02  0.57810746061E+02  0.19323674988E+02  0.62162258806E+02  0.00000000000E+00 0. -1.
</event>
<event>
 4    1  0.1964735E-002  0.9118800E+02  0.7818608E-02  0.1130116E+00
         25   -1    0    0    0    0  0.00000000000E+00  0.00000000000E+00  0.99999998245E-14  0.12500000000E+03  0.12500000000E+03 0.  0.
        -11    1    1    0    0    0  0.20795829999E+02 -0.22756735727E+02 -0.42560957365E+02  0.52552551398E+02  0.51100000000E-03 0.  1.
         11    1    1    0    0    0  0.59151435085E+01 -0.31547870871E+01 -0.75066549970E+01  0.10064366537E+02  0.51100000000E-03 0. -1.
         22    1    1    0    0    0 -0.26710973508E+02  0.25911522814E+02  0.50067612362E+02  0.62383082065E+02  0.00000000000E+00 0.  1.
</event>
<event>
 4    1  0.1964735E-002  0.9118800E+02  0.7818608E-02  0.1130116E+00
         25   -1    0    0    0    0  0.00000000000E+00  0.00000000000E+00  0.99999998245E-14  0.12500000000E+03  0.12500000000E+03 0.  0.
        -11    1    1    0    0    0 -0.45674967049E+02 -0.33108465649E+02 -0.59183469529E+01  0.56722129222E+02  0.51100000000E-03 0.  1.
         11    1    1    0    0    0 -0.47022537084E+01 -0.32972210934E+01 -0.63650621917E+00  0.57782347914E+01  0.51100000000E-03 0. -1.
         22    1    1    0    0    0  0.50377220757E+02  0.36405686742E+02  0.65548531720E+01  0.62499635987E+02  0.00000000000E+00 0.  1.
</event>
<event>
 4    1  0.1964735E-002  0.9118800E+02  0.7818608E-02  0.1130116E+00
         25   -1    0    0    0    0  0.00000000000E+00  0.00000000000E+00  0.99999998245E-14  0.12500000000E+03  0.12500000000E+03 0.  0.
        -11    1    1    0    0    0 -0.13993726221E+02 -0.11830998979E+02  0.32087584914E+02  0.36951454860E+02  0.51100000000E-03 0.  1.
         11    1    1    0    0    0 -0.96926684970E+01 -0.81811624917E+01  0.22177669486E+02  0.25548547247E+02  0.51100000000E-03 0. -1.
         22    1    1    0    0    0  0.23686394718E+02  0.20012161471E+02 -0.54265254401E+02  0.62499997893E+02  0.00000000000E+00 0.  1.
</event>
<event>
 4    1  0.1964735E-002  0.9118800E+02  0.7818608E-02  0.1130116E+00
         25   -1    0    0    0    0  0.00000000000E+00  0.00000000000E+00  0.99999998245E-14  0.12500000000E+03  0.12500000000E+03 0.  0.
        -11    1    1    0    0    0  0.30045797725E+02 -0.22203343051E+02 -0.59604677683E+01  0.37832070785E+02  0.51100000000E-03 0. -1.
         11    1    1    0    0    0  0.19592616532E+02 -0.14476048639E+02 -0.38833142092E+01  0.24667929307E+02  0.51100000000E-03 0. -1.
         22    1    1    0    0    0 -0.49638414258E+02  0.36679391691E+02  0.98437819774E+01  0.62499999908E+02  0.00000000000E+00 0. -1.
</event>
<event>
 4    1  0.1964735E-002  0.9118800E+02  0.7818608E-02  0.1130116E+00
         25   -1    0    0    0    0  0.00000000000E+00  0.00000000000E+00  0.99999998245E-14  0.12500000000E+03  0.12500000000E+03 0.  0.
        -11    1    1    0    0    0  0.34725611750E+01  0.16827398617E+02  0.30603510158E+02  0.35096935188E+02  0.51100000000E-03 0. -1.
         11    1    1    0    0    0  0.36668341310E+01  0.12997946412E+02  0.23849489934E+02  0.27407853872E+02  0.51100000000E-03 0.  1.
         22    1    1    0    0    0 -0.71393953059E+01 -0.29825345029E+02 -0.54453000092E+02  0.62495210940E+02  0.00000000000E+00 0. -1.
</event>
<event>
 4    1  0.1964735E-002  0.9118800E+02  0.7818608E-02  0.1130116E+00
         25   -1    0    0    0    0  0.00000000000E+00  0.00000000000E+00  0.99999998245E-14  0.12500000000E+03  0.12500000000E+03 0.  0.
        -11    1    1    0    0    0  0.29528514598E+02 -0.39402130223E+02  0.25650254203E+02  0.55519335204E+02  0.51100000000E-03 0. -1.
         11    1    1    0    0    0  0.37152464461E+01 -0.49750237553E+01  0.31900634009E+01  0.69807178917E+01  0.51100000000E-03 0.  1.
         22    1    1    0    0    0 -0.33243761044E+02  0.44377153978E+02 -0.28840317604E+02  0.62499946905E+02  0.00000000000E+00 0. -1.
</event>
<event>
 4    1  0.1964735E-002  0.9118800E+02  0.7818608E-02  0.1130116E+00
         25   -1    0    0    0    0  0.00000000000E+00  0.00000000000E+00  0.99999998245E-14  0.12500000000E+03  0.12500000000E+03 0.  0.
        -11    1    1    0    0    0 -0.12031898896E+02  0.33589574574E+02 -0.41378896565E+02  0.54637342471E+02  0.51100000000E-03 0. -1.
         11    1    1    0    0    0 -0.17184698625E+01  0.48255944412E+01 -0.59650677249E+01  0.78626670795E+01  0.51100000000E-03 0.  1.
         22    1    1    0    0    0  0.13750368758E+02 -0.38415169015E+02  0.47343964290E+02  0.62499990449E+02  0.00000000000E+00 0. -1.
</event>
<event>
 4    1  0.1964735E-002  0.9118800E+02  0.7818608E-02  0.1130116E+00
         25   -1    0    0    0    0  0.00000000000E+00  0.00000000000E+00  0.99999998245E-14  0.12500000000E+03  0.12500000000E+03 0.  0.
        -11    1    1    0    0    0  0.10116817655E+02 -0.29331247467E+02 -0.38515389487E+02  0.49458136894E+02  0.51100000000E-03 0. -1.
         11    1    1    0    0    0  0.19384965574E+01 -0.72043802625E+01 -0.10718020277E+02  0.13058974798E+02  0.51100000000E-03 0.  1.
         22    1    1    0    0    0 -0.12055314212E+02  0.36535627729E+02  0.49233409764E+02  0.62482888308E+02  0.00000000000E+00 0. -1.
</event>
<event>
 4    1  0.1964735E-002  0.9118800E+02  0.7818608E-02  0.1130116E+00
         25   -1    0    0    0    0  0.00000000000E+00  0.00000000000E+00  0.99999998245E-14  0.12500000000E+03  0.12500000000E+03 0.  0.
        -11    1    1    0    0    0  0.52743169867E+01  0.33969691545E+02 -0.29318915841E+02  0.45181381007E+02  0.51100000000E-03 0.  1.
         11    1    1    0    0    0  0.20162619735E+01  0.13021052025E+02 -0.11239282301E+02  0.17318619318E+02  0.51100000000E-03 0. -1.
         22    1    1    0    0    0 -0.72905789602E+01 -0.46990743569E+02  0.40558198143E+02  0.62499999675E+02  0.00000000000E+00 0.  1.
</event>
<event>
 4    1  0.1964735E-002  0.9118800E+02  0.7818608E-02  0.1130116E+00
         25   -1    0    0    0    0  0.00000000000E+00  0.00000000000E+00  0.99999998245E-14  0.12500000000E+03  0.12500000000E+03 0.  0.
        -11    1    1    0    0    0  0.14020773748E+02 -0.49099559409E+02  0.34142593918E+02  0.61425284292E+02  0.51100000000E-03 0.  1.
         11    1    1    0    0    0  0.44039737863E+00 -0.93747118758E+00  0.36239137745E+00  0.10973285061E+01  0.51100000000E-03 0. -1.
         22    1    1    0    0    0 -0.14461171127E+02  0.50037030596E+02 -0.34504985296E+02  0.62477387202E+02  0.00000000000E+00 0.  1.
</event>
<event>
 4    1  0.1964735E-002  0.9118800E+02  0.7818608E-02  0.1130116E+00
         25   -1    0    0    0    0  0.00000000000E+00  0.00000000000E+00  0.99999998245E-14  0.12500000000E+03  0.12500000000E+03 0.  0.
        -11    1    1    0    0    0  0.19566074307E+02  0.56597777257E+02  0.14891636078E+02  0.61708188108E+02  0.51100000000E-03 0.  1.
         11    1    1    0    0    0  0.24726000470E+00  0.72782109928E+00  0.19003631164E+00  0.79181760738E+00  0.51100000000E-03 0. -1.
         22    1    1    0    0    0 -0.19813334311E+02 -0.57325598357E+02 -0.15081672390E+02  0.62499994284E+02  0.00000000000E+00 0.  1.
</event>
<event>
 4    1  0.1964735E-002  0.9118800E+02  0.7818608E-02  0.1130116E+00
         25   -1    0    0    0    0  0.00000000000E+00  0.00000000000E+00  0.99999998245E-14  0.12500000000E+03  0.12500000000E+03 0.  0.
        -11    1    1    0    0    0  0.13287185564E+02 -0.12987449858E+01  0.11204229265E+02  0.17429021557E+02  0.51100000000E-03 0. -1.
         11    1    1    0    0    0  0.45096486368E+02 -0.24680490628E+01 -0.18110333399E+02  0.48659721794E+02  0.51100000000E-03 0.  1.
         22    1    1    0    0    0 -0.58383671932E+02  0.37667940486E+01  0.69061041340E+01  0.58911256649E+02  0.00000000000E+00 0.  1.
</event>
<event>
 4    1  0.1964735E-002  0.9118800E+02  0.7818608E-02  0.1130116E+00
         25   -1    0    0    0    0  0.00000000000E+00  0.00000000000E+00  0.99999998245E-14  0.12500000000E+03  0.12500000000E+03 0.  0.
        -11    1    1    0    0    0  0.38725072147E+02 -0.35528376547E+02 -0.34750393546E+00  0.52554899982E+02  0.51100000000E-03 0.  1.
         11    1    1    0    0    0  0.73442099122E+01 -0.67053701108E+01 -0.76814790674E-01  0.99451147973E+01  0.51100000000E-03 0. -1.
         22    1    1    0    0    0 -0.46069282060E+02  0.42233746658E+02  0.42431872613E+00  0.62499985221E+02  0.00000000000E+00 0.  1.
</event>
<event>
 4    1  0.1964735E-002  0.9118800E+02  0.7818608E-02  0.1130116E+00
         25   -1    0    0    0    0  0.00000000000E+00  0.00000000000E+00  0.99999998245E-14  0.12500000000E+03  0.12500000000E+03 0.  0.
        -11    1    1    0    0    0  0.26849317713E+02  0.18534920379E+02 -0.12237970126E+02  0.34845330364E+02  0.51100000000E-03 0.  1.
         11    1    1    0    0    0  0.21407038537E+02  0.14256029388E+02 -0.10168739248E+02  0.27656806233E+02  0.51100000000E-03 0. -1.
         22    1    1    0    0    0 -0.48256356250E+02 -0.32790949766E+02  0.22406709374E+02  0.62497863404E+02  0.00000000000E+00 0. -1.
</event>
<event>
 4    1  0.1964735E-002  0.9118800E+02  0.7818608E-02  0.1130116E+00
         25   -1    0    0    0    0  0.00000000000E+00  0.00000000000E+00  0.99999998245E-14  0.12500000000E+03  0.12500000000E+03 0.  0.
        -11    1    1    0    0    0  0.16935043135E+02 -0.21908453740E+02  0.36481158147E+01  0.27929997861E+02  0.51100000000E-03 0. -1.
         11    1    1    0    0    0  0.20187532915E+02 -0.27844902155E+02  0.35590080771E+01  0.34576604807E+02  0.51100000000E-03 0.  1.
         22    1    1    0    0    0 -0.37122576050E+02  0.49753355894E+02 -0.72071238918E+01  0.62493397332E+02  0.00000000000E+00 0. -1.
</event>
<event>
 4    1  0.1964735E-002  0.9118800E+02  0.7818608E-02  0.1130116E+00
         25   -1    0    0    0    0  0.00000000000E+00  0.00000000000E+00  0.99999998245E-14  0.12500000000E+03  0.12500000000E+03 0.  0.
        -11    1    1    0    0    0  0.15227249137E+02  0.37502927165E+01  0.23213131851E+02  0.28013984050E+02  0.51100000000E-03 0.  1.
         11    1    1    0    0    0  0.18739285140E+02  0.44749232249E+01  0.28602521248E+02  0.34486083678E+02  0.51100000000E-03 0. -1.
         22    1    1    0    0    0 -0.33966534277E+02 -0.82252159414E+01 -0.51815653099E+02  0.62499932273E+02  0.00000000000E+00 0. -1.
</event>
<event>
 4    1  0.1964735E-002  0.9118800E+02  0.7818608E-02  0.1130116E+00
         25   -1    0    0    0    0  0.00000000000E+00  0.00000000000E+00  0.99999998245E-14  0.12500000000E+03  0.12500000000E+03 0.  0.
        -11    1    1    0    0    0 -0.48425868759E+00  0.21001986036E+01 -0.28050975640E+01  0.35375009902E+01  0.51100000000E-03 0. -1.
         11    1    1    0    0    0 -0.25186704855E+02  0.41762797047E+02 -0.33357926280E+02  0.59086822258E+02  0.51100000000E-03 0.  1.
         22    1    1    0    0    0  0.25670963542E+02 -0.43862995651E+02  0.36163023844E+02  0.62375676751E+02  0.00000000000E+00 0.  1.
</event>
<event>
 4    1  0.1964735E-002  0.9118800E+02  0.7818608E-02  0.1130116E+00
         25   -1    0    0    0    0  0.00000000000E+00  0.00000000000E+00  0.99999998245E-14  0.12500000000E+03  0.12500000000E+03 0.  0.
        -11    1    1    0    0    0 -0.12548727780E+02  0.36100837157E+02  0.88050351939E+01  0.39220780937E+02  0.51100000000E-03 0.  1.
         11    1    1    0    0    0 -0.74483500277E+01  0.21421238679E+02  0.52511773551E+01  0.23279223539E+02  0.51100000000E-03 0. -1.
         22    1    1    0    0    0  0.19997077807E+02 -0.57522075836E+02 -0.14056212549E+02  0.62499995524E+02  0.00000000000E+00 0. -1.
</event>
<event>
 4    1  0.1964735E-002  0.9118800E+02  0.7818608E-02  0.1130116E+00
         25   -1    0    0    0    0  0.00000000000E+00  0.00000000000E+00  0.99999998245E-14  0.12500000000E+03  0.12500000000E+03 0.  0.
        -11    1    1    0    0    0  0.70746183896E+01 -0.35732784812E+02  0.77926954228E+01  0.37250613928E+02  0.51100000000E-03 0. -1.
         11    1    1    0    0    0  0.47950844530E+01 -0.24220481575E+02  0.52827014385E+01  0.25249386079E+02  0.51100000000E-03 0. -1.
         22    1    1    0    0    0 -0.11869702843E+02  0.59953266387E+02 -0.13075396861E+02  0.62499999993E+02  0.00000000000E+00 0. -1.
</event>
<event>
 4    1  0.1964735E-002  0.9118800E+02  0.7818608E-02  0.1130116E+00
         25   -1    0    0    0    0  0.00000000000E+00  0.00000000000E+00  0.99999998245E-14  0.12500000000E+03  0.12500000000E+03 0.  0.
        -11    1    1    0    0    0  0.63460263856E+01  0.17081119187E+01 -0.61396703057E+02  0.61747427831E+02  0.51100000000E-03 0. -1.
         11    1    1    0    0    0  0.77116217503E-01  0.20900161451E-01 -0.74831881023E+00  0.75257227601E+00  0.51100000000E-03 0. -1.
         22    1    1    0    0    0 -0.64231426031E+01 -0.17290120801E+01  0.62145021868E+02  0.62499999893E+02  0.00000000000E+00 0. -1.
</event>
<event>
 4    1  0.1964735E-002  0.9118800E+02  0.7818608E-02  0.1130116E+00
         25   -1    0    0    0    0  0.00000000000E+00  0.00000000000E+00  0.99999998245E-14  0.12500000000E+03  0.12500000000E+03 0.  0.
        -11    1    1    0    0    0  0.92794239263E+01 -0.84524155715E+01 -0.37603732039E+01  0.13103108192E+02  0.51100000000E-03 0.  1.
         11    1    1    0    0    0  0.34980624325E+02 -0.31865812336E+02 -0.14176700856E+02  0.49396891819E+02  0.51100000000E-03 0.  1.
         22    1    1    0    0    0 -0.44260048251E+02  0.40318227907E+02  0.17937074060E+02  0.62499999989E+02  0.00000000000E+00 0.  1.
</event>
<event>
 4    1  0.1964735E-002  0.9118800E+02  0.7818608E-02  0.1130116E+00
         25   -1    0    0    0    0  0.00000000000E+00  0.00000000000E+00  0.99999998245E-14  0.12500000000E+03  0.12500000000E+03 0.  0.
        -11    1    1    0    0    0  0.44853903514E+02  0.16190614765E+02 -0.19671069913E+02  0.51584490486E+02  0.51100000000E-03 0.  1.
         11    1    1    0    0    0  0.94953928903E+01  0.33929156680E+01 -0.41802600614E+01  0.10915536511E+02  0.51100000000E-03 0. -1.
         22    1    1    0    0    0 -0.54349296404E+02 -0.19583530433E+02  0.23851329975E+02  0.62499973003E+02  0.00000000000E+00 0.  1.
</event>
<event>
 4    1  0.1964735E-002  0.9118800E+02  0.7818608E-02  0.1130116E+00
         25   -1    0    0    0    0  0.00000000000E+00  0.00000000000E+00  0.99999998245E-14  0.12500000000E+03  0.12500000000E+03 0.  0.
        -11    1    1    0    0    0 -0.51802075968E+01  0.10182213544E+02 -0.18752349751E+02  0.21958202222E+02  0.51100000000E-03 0.  1.
         11    1    1    0    0    0 -0.95641405411E+01  0.18800115437E+02 -0.34622539515E+02  0.40541797783E+02  0.51100000000E-03 0.  1.
         22    1    1    0    0    0  0.14744348138E+02 -0.28982328980E+02  0.53374889266E+02  0.62499999995E+02  0.00000000000E+00 0.  1.
</event>
<event>
 4    1  0.1964735E-002  0.9118800E+02  0.7818608E-02  0.1130116E+00
         25   -1    0    0    0    0  0.00000000000E+00  0.00000000000E+00  0.99999998245E-14  0.12500000000E+03  0.12500000000E+03 0.  0.
        -11    1    1    0    0    0 -0.90712303777E+00 -0.17404000635E+02  0.48467135708E+01  0.18089022722E+02  0.51100000000E-03 0. -1.
         11    1    1    0    0    0 -0.22287385666E+01 -0.42728919593E+02  0.11899876397E+02  0.44410977288E+02  0.51100000000E-03 0. -1.
         22    1    1    0    0    0  0.31358616044E+01  0.60132920228E+02 -0.16746589968E+02  0.62499999990E+02  0.00000000000E+00 0. -1.
</event>
<event>
 4    1  0.1964735E-002  0.9118800E+02  0.7818608E-02  0.1130116E+00
         25   -1    0    0    0    0  0.00000000000E+00  0.00000000000E+00  0.99999998245E-14  0.12500000000E+03  0.12500000000E+03 0.  0.
        -11    1    1    0    0    0  0.31031266105E+02  0.48162919804E+01  0.68646373236E+00  0.31410306863E+02  0.51100000000E-03 0. -1.
         11    1    1    0    0    0  0.75649593139E+01  0.29730818943E+02  0.21268553365E+02  0.37329633898E+02  0.51100000000E-03 0.  1.
         22    1    1    0    0    0 -0.38596225419E+02 -0.34547110924E+02 -0.21955017098E+02  0.56260059239E+02  0.00000000000E+00 0. -1.
</event>
<event>
 4    1  0.1964735E-002  0.9118800E+02  0.7818608E-02  0.1130116E+00
         25   -1    0    0    0    0  0.00000000000E+00  0.00000000000E+00  0.99999998245E-14  0.12500000000E+03  0.12500000000E+03 0.  0.
        -11    1    1    0    0    0  0.83638047221E+00 -0.27829456394E+01  0.18693975926E+01  0.34552809360E+01  0.51100000000E-03 0.  1.
         11    1    1    0    0    0  0.54716487028E+01 -0.58499622809E+02  0.74936752182E+01  0.59230903901E+02  0.51100000000E-03 0. -1.
         22    1    1    0    0    0 -0.63080291750E+01  0.61282568449E+02 -0.93630728108E+01  0.62313815163E+02  0.00000000000E+00 0. -1.
</event>
<event>
 4    1  0.1964735E-002  0.9118800E+02  0.7818608E-02  0.1130116E+00
         25   -1    0    0    0    0  0.00000000000E+00  0.00000000000E+00  0.99999998245E-14  0.12500000000E+03  0.12500000000E+03 0.  0.
        -11    1    1    0    0    0 -0.32894520283E+00  0.35820032750E-01  0.13490093701E+01  0.13889976829E+01  0.51100000000E-03 0.  1.
         11    1    1    0    0    0 -0.19286292053E+02  0.58799478905E+01  0.57693272411E+02  0.61115043403E+02  0.51100000000E-03 0. -1.
         22    1    1    0    0    0  0.19615237256E+02 -0.59157679233E+01 -0.59042281781E+02  0.62495958915E+02  0.00000000000E+00 0. -1.
</event>
<event>
 4    1  0.1964735E-002  0.9118800E+02  0.7818608E-02  0.1130116E+00
         25   -1    0    0    0    0  0.00000000000E+00  0.00000000000E+00  0.99999998245E-14  0.12500000000E+03  0.12500000000E+03 0.  0.
        -11    1    1    0    0    0 -0.53052328663E+01  0.14786285124E+02  0.48704994014E+01  0.16446929447E+02  0.51100000000E-03 0.  1.
         11    1    1    0    0    0 -0.14004372573E+02  0.41091326366E+02  0.15387547141E+02  0.46058616577E+02  0.51100000000E-03 0. -1.
         22    1    1    0    0    0  0.19309605440E+02 -0.55877611490E+02 -0.20258046543E+02  0.62494453976E+02  0.00000000000E+00 0. -1.
</event>
<event>
 4    1  0.1964735E-002  0.9118800E+02  0.7818608E-02  0.1130116E+00
         25   -1    0    0    0    0  0.00000000000E+00  0.00000000000E+00  0.99999998245E-14  0.12500000000E+03  0.12500000000E+03 0.  0.
        -11    1    1    0    0    0  0.26767463859E+01 -0.16184967329E+01  0.87543714426E+00  0.32482138697E+01  0.51100000000E-03 0. -1.
         11    1    1    0    0    0  0.43482161277E+02 -0.32901220295E+02  0.23237852248E+02  0.59272138679E+02  0.51100000000E-03 0.  1.
         22    1    1    0    0    0 -0.46158907663E+02  0.34519717028E+02 -0.24113289392E+02  0.62479647451E+02  0.00000000000E+00 0.  1.
</event>
<event>
 4    1  0.1964735E-002  0.9118800E+02  0.7818608E-02  0.1130116E+00
         25   -1    0    0    0    0  0.00000000000E+00  0.00000000000E+00  0.99999998245E-14  0.12500000000E+03  0.12500000000E+03 0.  0.
        -11    1    1    0    0    0 -0.19090131590E+02  0.24396948652E+02  0.96956461708E+00  0.30993294170E+02  0.51100000000E-03 0. -1.
         11    1    1    0    0    0 -0.19404829853E+02  0.24802399632E+02  0.98288659081E+00  0.31506705880E+02  0.51100000000E-03 0.  1.
         22    1    1    0    0    0  0.38494961443E+02 -0.49199348284E+02 -0.19524512079E+01  0.62499999950E+02  0.00000000000E+00 0.  1.
</event>
<event>
 4    1  0.1964735E-002  0.9118800E+02  0.7818608E-02  0.1130116E+00
         25   -1    0    0    0    0  0.00000000000E+00  0.00000000000E+00  0.99999998245E-14  0.12500000000E+03  0.12500000000E+03 0.  0.
        -11    1    1    0    0    0 -0.45108770412E+02  0.33613525864E+02 -0.15628437918E+02  0.58385943181E+02  0.51100000000E-03 0.  1.
         11    1    1    0    0    0 -0.34339548818E+01  0.19015861725E+01 -0.12910071485E+01  0.41321635762E+01  0.51100000000E-03 0. -1.
         22    1    1    0    0    0  0.48542725294E+02 -0.35515112036E+02  0.16919445066E+02  0.62481893243E+02  0.00000000000E+00 0.  1.
</event>
<event>
 4    1  0.1964735E-002  0.9118800E+02  0.7818608E-02  0.1130116E+00
         25   -1    0    0    0    0  0.00000000000E+00  0.00000000000E+00  0.99999998245E-14  0.12500000000E+03  0.12500000000E+03 0.  0.
        -11    1    1    0    0    0  0.17478501849E+02 -0.24041784166E+01 -0.93091894295E+01  0.19948411186E+02  0.51100000000E-03 0. -1.
         11    1    1    0    0    0  0.40155005717E+02 -0.12779378630E+02 -0.82062947740E+01  0.42931110823E+02  0.51100000000E-03 0.  1.
         22    1    1    0    0    0 -0.57633507566E+02  0.15183557047E+02  0.17515484204E+02  0.62120477991E+02  0.00000000000E+00 0. -1.
</event>
<event>
 4    1  0.1964735E-002  0.9118800E+02  0.7818608E-02  0.1130116E+00
         25   -1    0    0    0    0  0.00000000000E+00  0.00000000000E+00  0.99999998245E-14  0.12500000000E+03  0.12500000000E+03 0.  0.
        -11    1    1    0    0    0  0.47672195003E+02 -0.28457563217E+02 -0.61946084655E+01  0.55864516958E+02  0.51100000000E-03 0.  1.
         11    1    1    0    0    0  0.56627693519E+01 -0.33797398349E+01 -0.73487244105E+00  0.66354830910E+01  0.51100000000E-03 0.  1.
         22    1    1    0    0    0 -0.53334964355E+02  0.31837303052E+02  0.69294809066E+01  0.62499999951E+02  0.00000000000E+00 0.  1.
</event>
<event>
 4    1  0.1964735E-002  0.9118800E+02  0.7818608E-02  0.1130116E+00
         25   -1    0    0    0    0  0.00000000000E+00  0.00000000000E+00  0.99999998245E-14  0.12500000000E+03  0.12500000000E+03 0.  0.
        -11    1    1    0    0    0 -0.10856908753E+02  0.11468438455E+02  0.39714962991E+02  0.42739628379E+02  0.51100000000E-03 0. -1.
         11    1    1    0    0    0 -0.59568036757E+01  0.59952290456E+01  0.17877107165E+02  0.19774155916E+02  0.51100000000E-03 0.  1.
         22    1    1    0    0    0  0.16813712429E+02 -0.17463667501E+02 -0.57592070157E+02  0.62486215705E+02  0.00000000000E+00 0. -1.
</event>
<event>
 4    1  0.1964735E-002  0.9118800E+02  0.7818608E-02  0.1130116E+00
         25   -1    0    0    0    0  0.00000000000E+00  0.00000000000E+00  0.99999998245E-14  0.12500000000E+03  0.12500000000E+03 0.  0.
        -11    1    1    0    0    0 -0.25610373469E+02 -0.23392782319E+02  0.36988184926E+02  0.50707389188E+02  0.51100000000E-03 0. -1.
         11    1    1    0    0    0 -0.70258563254E+01 -0.94472998624E+00  0.99127377687E+01  0.12186777350E+02  0.51100000000E-03 0.  1.
         22    1    1    0    0    0  0.32636229795E+02  0.24337512305E+02 -0.46900922695E+02  0.62105833462E+02  0.00000000000E+00 0. -1.
</event>
<event>
 4    1  0.1964735E-002  0.9118800E+02  0.7818608E-02  0.1130116E+00
         25   -1    0    0    0    0  0.00000000000E+00  0.00000000000E+00  0.99999998245E-14  0.12500000000E+03  0.12500000000E+03 0.  0.
        -11    1    1    0    0    0  0.48595403860E+01 -0.29450364310E+02 -0.37180874775E+02  0.47679728816E+02  0.51100000000E-03 0. -1.
         11    1    1    0    0    0  0.23694555328E+01 -0.10417170165E+02 -0.10342288140E+02  0.14869252773E+02  0.51100000000E-03 0.  1.
         22    1    1    0    0    0 -0.72289959188E+01  0.39867534475E+02  0.47523162915E+02  0.62451018411E+02  0.00000000000E+00 0. -1.
</event>
<event>
 4    1  0.1964735E-002  0.9118800E+02  0.7818608E-02  0.1130116E+00
         25   -1    0    0    0    0  0.00000000000E+00  0.00000000000E+00  0.99999998245E-14  0.12500000000E+03  0.12500000000E+03 0.  0.
        -11    1    1    0    0    0  0.13398952128E+01 -0.37559651380E+02  0.38401121670E+02  0.53732382013E+02  0.51100000000E-03 0.  1.
         11    1    1    0    0    0  0.47914334206E+00 -0.27316776511E+01  0.87738251562E+01  0.92017199080E+01  0.51100000000E-03 0. -1.
         22    1    1    0    0    0 -0.18190385549E+01  0.40291329031E+02 -0.47174946826E+02  0.62065898079E+02  0.00000000000E+00 0.  1.
</event>
<event>
 4    1  0.1964735E-002  0.9118800E+02  0.7818608E-02  0.1130116E+00
         25   -1    0    0    0    0  0.00000000000E+00  0.00000000000E+00  0.99999998245E-14  0.12500000000E+03  0.12500000000E+03 0.  0.
        -11    1    1    0    0    0  0.17369129961E+02 -0.46018488787E+02  0.20989121103E+02  0.53478324495E+02  0.51100000000E-03 0.  1.
         11    1    1    0    0    0  0.29285180136E+01 -0.77636676704E+01  0.35411688212E+01  0.90216755835E+01  0.51100000000E-03 0. -1.
         22    1    1    0    0    0 -0.20297647974E+02  0.53782156457E+02 -0.24530289924E+02  0.62499999922E+02  0.00000000000E+00 0.  1.
</event>
<event>
 4    1  0.1964735E-002  0.9118800E+02  0.7818608E-02  0.1130116E+00
         25   -1    0    0    0    0  0.00000000000E+00  0.00000000000E+00  0.99999998245E-14  0.12500000000E+03  0.12500000000E+03 0.  0.
        -11    1    1    0    0    0  0.10464300725E+01 -0.10218219059E+01  0.79949062818E+01  0.81275865188E+01  0.51100000000E-03 0.  1.
         11    1    1    0    0    0  0.69957549330E+01 -0.68358325279E+01  0.53485420037E+02  0.54372413504E+02  0.51100000000E-03 0. -1.
         22    1    1    0    0    0 -0.80421850055E+01  0.78576544338E+01 -0.61480326319E+02  0.62499999977E+02  0.00000000000E+00 0. -1.
</event>
<event>
 4    1  0.1964735E-002  0.9118800E+02  0.7818608E-02  0.1130116E+00
         25   -1    0    0    0    0  0.00000000000E+00  0.00000000000E+00  0.99999998245E-14  0.12500000000E+03  0.12500000000E+03 0.  0.
        -11    1    1    0    0    0  0.25628516765E+01 -0.11246428531E+02  0.99975030289E+01  0.15264351624E+02  0.51100000000E-03 0.  1.
         11    1    1    0    0    0 -0.12654909757E+01 -0.48981405866E+02 -0.59561389704E+01  0.49358435750E+02  0.51100000000E-03 0. -1.
         22    1    1    0    0    0 -0.12973607008E+01  0.60227834397E+02 -0.40413640585E+01  0.60377212626E+02  0.00000000000E+00 0. -1.
</event>
<event>
 4    1  0.1964735E-002  0.9118800E+02  0.7818608E-02  0.1130116E+00
         25   -1    0    0    0    0  0.00000000000E+00  0.00000000000E+00  0.99999998245E-14  0.12500000000E+03  0.12500000000E+03 0.  0.
        -11    1    1    0    0    0 -0.53978204507E+01  0.18353262855E+01 -0.13073816141E+02  0.14262873376E+02  0.51100000000E-03 0. -1.
         11    1    1    0    0    0 -0.18256194248E+02  0.62075301707E+01 -0.44215363010E+02  0.48237126631E+02  0.51100000000E-03 0. -1.
         22    1    1    0    0    0  0.23654014698E+02 -0.80428564562E+01  0.57289179151E+02  0.62499999993E+02  0.00000000000E+00 0. -1.
</event>
<event>
 4    1  0.1964735E-002  0.9118800E+02  0.7818608E-02  0.1130116E+00
         25   -1    0    0    0    0  0.00000000000E+00  0.00000000000E+00  0.99999998245E-14  0.12500000000E+03  0.12500000000E+03 0.  0.
        -11    1    1    0    0    0  0.44932140309E+00  0.14098088383E+01 -0.78490001648E+00  0.16749683522E+01  0.51100000000E-03 0.  1.
         11    1    1    0    0    0 -0.24691111162E+02 -0.14136113532E+02 -0.54585467364E+02  0.61555291599E+02  0.51100000000E-03 0. -1.
         22    1    1    0    0    0  0.24241789759E+02  0.12726304694E+02  0.55370367380E+02  0.61769740049E+02  0.00000000000E+00 0. -1.
</event>
<event>
 4    1  0.1964735E-002  0.9118800E+02  0.7818608E-02  0.1130116E+00
         25   -1    0    0    0    0  0.00000000000E+00  0.00000000000E+00  0.99999998245E-14  0.12500000000E+03  0.12500000000E+03 0.  0.
        -11    1    1    0    0    0  0.54907658043E+02 -0.23816381198E+02 -0.96421008537E+00  0.59858170925E+02  0.51100000000E-03 0. -1.
         11    1    1    0    0    0  0.21656405605E+01 -0.12361733402E+01  0.12980373743E+01  0.28112319098E+01  0.51100000000E-03 0.  1.
         22    1    1    0    0    0 -0.57073298603E+02  0.25052554538E+02 -0.33382728897E+00  0.62330597165E+02  0.00000000000E+00 0. -1.
</event>
<event>
 4    1  0.1964735E-002  0.9118800E+02  0.7818608E-02  0.1130116E+00
         25   -1    0    0    0    0  0.00000000000E+00  0.00000000000E+00  0.99999998245E-14  0.12500000000E+03  0.12500000000E+03 0.  0.
        -11    1    1    0    0    0 -0.21227248601E+02 -0.21507681529E+02  0.28030758425E+01  0.30348536741E+02  0.51100000000E-03 0.  1.
         11    1    1    0    0    0 -0.22487791990E+02 -0.22786239307E+02  0.29670020561E+01  0.32151463292E+02  0.51100000000E-03 0. -1.
         22    1    1    0    0    0  0.43715040591E+02  0.44293920836E+02 -0.57700778986E+01  0.62499999967E+02  0.00000000000E+00 0. -1.
</event>
<event>
 4    1  0.1964735E-002  0.9118800E+02  0.7818608E-02  0.1130116E+00
         25   -1    0    0    0    0  0.00000000000E+00  0.00000000000E+00  0.99999998245E-14  0.12500000000E+03  0.12500000000E+03 0.  0.
        -11    1    1    0    0    0 -0.10080050534E+02  0.74376795682E+01  0.49841512301E+01  0.13482145967E+02  0.51100000000E-03 0. -1.
         11    1    1    0    0    0 -0.41090008965E+02  0.27428525298E+02 -0.43548195162E+01  0.49595133733E+02  0.51100000000E-03 0.  1.
         22    1    1    0    0    0  0.51170059499E+02 -0.34866204866E+02 -0.62933171386E+00  0.61922720300E+02  0.00000000000E+00 0.  1.
</event>
<event>
 4    1  0.1964735E-002  0.9118800E+02  0.7818608E-02  0.1130116E+00
         25   -1    0    0    0    0  0.00000000000E+00  0.00000000000E+00  0.99999998245E-14  0.12500000000E+03  0.12500000000E+03 0.  0.
        -11    1    1    0    0    0 -0.43038651208E+01 -0.64085278545E+01 -0.30497566560E+01  0.83002108505E+01  0.51100000000E-03 0.  1.
         11    1    1    0    0    0 -0.29491030973E+02 -0.41036070776E+02 -0.19598857335E+02  0.54201431916E+02  0.51100000000E-03 0. -1.
         22    1    1    0    0    0  0.33794896094E+02  0.47444598631E+02  0.22648613991E+02  0.62498357234E+02  0.00000000000E+00 0. -1.
</event>
<event>
 4    1  0.1964735E-002  0.9118800E+02  0.7818608E-02  0.1130116E+00
         25   -1    0    0    0    0  0.00000000000E+00  0.00000000000E+00  0.99999998245E-14  0.12500000000E+03  0.12500000000E+03 0.  0.
        -11    1    1    0    0    0  0.98721807080E+01  0.40223858656E+02  0.28901528897E+02  0.50504624837E+02  0.51100000000E-03 0. -1.
         11    1    1    0    0    0  0.23482970448E+01  0.95519420610E+01  0.68654887454E+01  0.11995375447E+02  0.51100000000E-03 0.  1.
         22    1    1    0    0    0 -0.12220477753E+02 -0.49775800717E+02 -0.35767017642E+02  0.62499999716E+02  0.00000000000E+00 0. -1.
</event>
<event>
 4    1  0.1964735E-002  0.9118800E+02  0.7818608E-02  0.1130116E+00
         25   -1    0    0    0    0  0.00000000000E+00  0.00000000000E+00  0.99999998245E-14  0.12500000000E+03  0.12500000000E+03 0.  0.
        -11    1    1    0    0    0 -0.55528745575E+01  0.12642345162E+02  0.21941234704E+01  0.13981326301E+02  0.51100000000E-03 0. -1.
         11    1    1    0    0    0 -0.17195448390E+02  0.45013607053E+02  0.57589543101E+01  0.48529102818E+02  0.51100000000E-03 0.  1.
         22    1    1    0    0    0  0.22748322947E+02 -0.57655952216E+02 -0.79530777805E+01  0.62489570882E+02  0.00000000000E+00 0.  1.
</event>
<event>
 4    1  0.1964735E-002  0.9118800E+02  0.7818608E-02  0.1130116E+00
         25   -1    0    0    0    0  0.00000000000E+00  0.00000000000E+00  0.99999998245E-14  0.12500000000E+03  0.12500000000E+03 0.  0.
        -11    1    1    0    0    0 -0.25595525456E+02  0.35493986398E+02  0.15007147556E+02  0.46261954907E+02  0.51100000000E-03 0.  1.
         11    1    1    0    0    0 -0.88128451063E+01  0.12587985577E+02  0.52504911345E+01  0.16238573742E+02  0.51100000000E-03 0. -1.
         22    1    1    0    0    0  0.34408370563E+02 -0.48081971975E+02 -0.20257638691E+02  0.62499471351E+02  0.00000000000E+00 0.  1.
</event>
<event>
 4    1  0.1964735E-002  0.9118800E+02  0.7818608E-02  0.1130116E+00
         25   -1    0    0    0    0  0.00000000000E+00  0.00000000000E+00  0.99999998245E-14  0.12500000000E+03  0.12500000000E+03 0.  0.
        -11    1    1    0    0    0  0.14650077095E+02  0.39535641424E+00 -0.46520596788E+01  0.15376043870E+02  0.51100000000E-03 0. -1.
         11    1    1    0    0    0  0.44903356024E+02  0.12334649300E+01 -0.14241998235E+02  0.47123957092E+02  0.51100000000E-03 0.  1.
         22    1    1    0    0    0 -0.59553433119E+02 -0.16288213443E+01  0.18894057914E+02  0.62499999038E+02  0.00000000000E+00 0.  1.
</event>
<event>
 4    1  0.1964735E-002  0.9118800E+02  0.7818608E-02  0.1130116E+00
         25   -1    0    0    0    0  0.00000000000E+00  0.00000000000E+00  0.99999998245E-14  0.12500000000E+03  0.12500000000E+03 0.  0.
        -11    1    1    0    0    0 -0.78278721127E+01 -0.41522070899E+02  0.11431861473E+02  0.43772655969E+02  0.51100000000E-03 0. -1.
         11    1    1    0    0    0 -0.33592573256E+01 -0.17765117519E+02  0.48815439977E+01  0.18727345842E+02  0.51100000000E-03 0.  1.
         22    1    1    0    0    0  0.11187129438E+02  0.59287188418E+02 -0.16313405470E+02  0.62499998189E+02  0.00000000000E+00 0. -1.
</event>
<event>
 4    1  0.1964735E-002  0.9118800E+02  0.7818608E-02  0.1130116E+00
         25   -1    0    0    0    0  0.00000000000E+00  0.00000000000E+00  0.99999998245E-14  0.12500000000E+03  0.12500000000E+03 0.  0.
        -11    1    1    0    0    0  0.83752180901E+01 -0.54511138644E+01 -0.71942220107E+01  0.12313234791E+02  0.51100000000E-03 0. -1.
         11    1    1    0    0    0  0.25425525142E+02 -0.24613977397E+02 -0.35756632864E+02  0.50307474654E+02  0.51100000000E-03 0.  1.
         22    1    1    0    0    0 -0.33800743233E+02  0.30065091262E+02  0.42950854874E+02  0.62379290555E+02  0.00000000000E+00 0.  1.
</event>
<event>
 4    1  0.1964735E-002  0.9118800E+02  0.7818608E-02  0.1130116E+00
         25   -1    0    0    0    0  0.00000000000E+00  0.00000000000E+00  0.99999998245E-14  0.12500000000E+03  0.12500000000E+03 0.  0.
        -11    1    1    0    0    0 -0.17226854632E+02 -0.27925615713E+02 -0.32255486322E+01  0.32969814948E+02  0.51100000000E-03 0. -1.
         11    1    1    0    0    0 -0.15480613142E+02 -0.24982107058E+02 -0.28771053593E+01  0.29530201350E+02  0.51100000000E-03 0.  1.
         22    1    1    0    0    0  0.32707467774E+02  0.52907722770E+02  0.61026539914E+01  0.62499983702E+02  0.00000000000E+00 0.  1.
</event>
<event>
 4    1  0.1964735E-002  0.9118800E+02  0.7818608E-02  0.1130116E+00
         25   -1    0    0    0    0  0.00000000000E+00  0.00000000000E+00  0.99999998245E-14  0.12500000000E+03  0.12500000000E+03 0.  0.
        -11    1    1    0    0    0  0.36620546139E+01 -0.24018827776E+01 -0.61406267253E+00  0.44223023528E+01  0.51100000000E-03 0.  1.
         11    1    1    0    0    0  0.49630199254E+02 -0.17141032839E+02 -0.25176412379E+02  0.58230777303E+02  0.51100000000E-03 0. -1.
         22    1    1    0    0    0 -0.53292253868E+02  0.19542915616E+02  0.25790475051E+02  0.62346920345E+02  0.00000000000E+00 0. -1.
</event>
<event>
 4    1  0.1964735E-002  0.9118800E+02  0.7818608E-02  0.1130116E+00
         25   -1    0    0    0    0  0.00000000000E+00  0.00000000000E+00  0.99999998245E-14  0.12500000000E+03  0.12500000000E+03 0.  0.
        -11    1    1    0    0    0 -0.23816346382E+01  0.45931156186E+01 -0.62574695754E+00  0.52115692600E+01  0.51100000000E-03 0.  1.
         11    1    1    0    0    0 -0.26446537107E+02  0.50356001853E+02 -0.68426464196E+01  0.57288463567E+02  0.51100000000E-03 0. -1.
         22    1    1    0    0    0  0.28828171745E+02 -0.54949117471E+02  0.74683933771E+01  0.62499967173E+02  0.00000000000E+00 0. -1.
</event>
<event>
 4    1  0.1964735E-002  0.9118800E+02  0.7818608E-02  0.1130116E+00
         25   -1    0    0    0    0  0.00000000000E+00  0.00000000000E+00  0.99999998245E-14  0.12500000000E+03  0.12500000000E+03 0.  0.
        -11    1    1    0    0    0  0.17436786933E+02 -0.19970693221E+02  0.26340373663E+02  0.37372254565E+02  0.51100000000E-03 0. -1.
         11    1    1    0    0    0  0.11723118613E+02 -0.13426510959E+02  0.17711603120E+02  0.25127745460E+02  0.51100000000E-03 0. -1.
         22    1    1    0    0    0 -0.29159905545E+02  0.33397204179E+02 -0.44051976784E+02  0.62499999976E+02  0.00000000000E+00 0. -1.
</event>
<event>
 4    1  0.1964735E-002  0.9118800E+02  0.7818608E-02  0.1130116E+00
         25   -1    0    0    0    0  0.00000000000E+00  0.00000000000E+00  0.99999998245E-14  0.12500000000E+03  0.12500000000E+03 0.  0.
        -11    1    1    0    0    0 -0.12451148558E+02 -0.18589979858E+02  0.34148745282E+01  0.22633599356E+02  0.51100000000E-03 0.  1.
         11    1    1    0    0    0 -0.21852649829E+02 -0.32789937936E+02  0.60508924797E+01  0.39866422394E+02  0.51100000000E-03 0. -1.
         22    1    1    0    0    0  0.34303798386E+02  0.51379917794E+02 -0.94657670079E+01  0.62499978250E+02  0.00000000000E+00 0.  1.
</event>
<event>
 4    1  0.1964735E-002  0.9118800E+02  0.7818608E-02  0.1130116E+00
         25   -1    0    0    0    0  0.00000000000E+00  0.00000000000E+00  0.99999998245E-14  0.12500000000E+03  0.12500000000E+03 0.  0.
        -11    1    1    0    0    0  0.24463608762E+02  0.65427945918E+01 -0.48648094699E+02  0.54844447603E+02  0.51100000000E-03 0.  1.
         11    1    1    0    0    0  0.34162930213E+01  0.90714118899E+00 -0.67906948697E+01  0.76555535540E+01  0.51100000000E-03 0. -1.
         22    1    1    0    0    0 -0.27879901783E+02 -0.74499357808E+01  0.55438789569E+02  0.62499998843E+02  0.00000000000E+00 0.  1.
</event>
<event>
 4    1  0.1964735E-002  0.9118800E+02  0.7818608E-02  0.1130116E+00
         25   -1    0    0    0    0  0.00000000000E+00  0.00000000000E+00  0.99999998245E-14  0.12500000000E+03  0.12500000000E+03 0.  0.
        -11    1    1    0    0    0 -0.44436530453E+02  0.91042380321E+00 -0.24001133919E+02  0.50512261282E+02  0.51100000000E-03 0. -1.
         11    1    1    0    0    0 -0.10611659586E+02  0.67901922068E-01 -0.55776549349E+01  0.11988417939E+02  0.51100000000E-03 0.  1.
         22    1    1    0    0    0  0.55048190039E+02 -0.97832572528E+00  0.29578788854E+02  0.62499320779E+02  0.00000000000E+00 0. -1.
</event>
<event>
 4    1  0.1964735E-002  0.9118800E+02  0.7818608E-02  0.1130116E+00
         25   -1    0    0    0    0  0.00000000000E+00  0.00000000000E+00  0.99999998245E-14  0.12500000000E+03  0.12500000000E+03 0.  0.
        -11    1    1    0    0    0  0.21212387690E+00 -0.22180082419E+01  0.89659632751E+00  0.24017581760E+01  0.51100000000E-03 0.  1.
         11    1    1    0    0    0  0.49794515194E+02  0.36693877736E+02 -0.13605494997E+00  0.61854287789E+02  0.51100000000E-03 0. -1.
         22    1    1    0    0    0 -0.50006639071E+02 -0.34475869494E+02 -0.76054137754E+00  0.60743954035E+02  0.00000000000E+00 0. -1.
</event>
<event>
 4    1  0.1964735E-002  0.9118800E+02  0.7818608E-02  0.1130116E+00
         25   -1    0    0    0    0  0.00000000000E+00  0.00000000000E+00  0.99999998245E-14  0.12500000000E+03  0.12500000000E+03 0.  0.
        -11    1    1    0    0    0 -0.39673327658E+00 -0.34620199670E+00 -0.13159731731E+00  0.54274416653E+00  0.51100000000E-03 0. -1.
         11    1    1    0    0    0 -0.33977971920E+02 -0.47919431445E+02 -0.19720161101E+02  0.61964983982E+02  0.51100000000E-03 0.  1.
         22    1    1    0    0    0  0.34374705196E+02  0.48265633442E+02  0.19851758419E+02  0.62492271851E+02  0.00000000000E+00 0.  1.
</event>
<event>
 4    1  0.1964735E-002  0.9118800E+02  0.7818608E-02  0.1130116E+00
         25   -1    0    0    0    0  0.00000000000E+00  0.00000000000E+00  0.99999998245E-14  0.12500000000E+03  0.12500000000E+03 0.  0.
        -11    1    1    0    0    0 -0.29724253354E+02  0.60221722398E+01 -0.41461727397E+02  0.51369958488E+02  0.51100000000E-03 0. -1.
         11    1    1    0    0    0 -0.63319965830E+01 -0.23220115576E+00 -0.92047102386E+01  0.11174738876E+02  0.51100000000E-03 0.  1.
         22    1    1    0    0    0  0.36056249937E+02 -0.57899710840E+01  0.50666437636E+02  0.62455302637E+02  0.00000000000E+00 0. -1.
</event>
<event>
 4    1  0.1964735E-002  0.9118800E+02  0.7818608E-02  0.1130116E+00
         25   -1    0    0    0    0  0.00000000000E+00  0.00000000000E+00  0.99999998245E-14  0.12500000000E+03  0.12500000000E+03 0.  0.
        -11    1    1    0    0    0 -0.17313209866E+02 -0.52494879316E+02  0.22323301395E+02  0.59613667692E+02  0.51100000000E-03 0. -1.
         11    1    1    0    0    0 -0.87909972673E+00 -0.29185662620E+01 -0.38011321442E+00  0.30716984995E+01  0.51100000000E-03 0.  1.
         22    1    1    0    0    0  0.18192309593E+02  0.55413445578E+02 -0.21943188181E+02  0.62314633808E+02  0.00000000000E+00 0. -1.
</event>
<event>
 4    1  0.1964735E-002  0.9118800E+02  0.7818608E-02  0.1130116E+00
         25   -1    0    0    0    0  0.00000000000E+00  0.00000000000E+00  0.99999998245E-14  0.12500000000E+03  0.12500000000E+03 0.  0.
        -11    1    1    0    0    0 -0.47560081274E+00  0.11944822520E+02 -0.54830460595E+02  0.56118485283E+02  0.51100000000E-03 0.  1.
         11    1    1    0    0    0 -0.53033773599E-01  0.13587475594E+01 -0.62349597465E+01  0.63815147742E+01  0.51100000000E-03 0. -1.
         22    1    1    0    0    0  0.52863458634E+00 -0.13303570080E+02  0.61065420341E+02  0.62499999943E+02  0.00000000000E+00 0.  1.
</event>
<event>
 4    1  0.1964735E-002  0.9118800E+02  0.7818608E-02  0.1130116E+00
         25   -1    0    0    0    0  0.00000000000E+00  0.00000000000E+00  0.99999998245E-14  0.12500000000E+03  0.12500000000E+03 0.  0.
        -11    1    1    0    0    0  0.19473202937E+02 -0.15041602245E+02  0.91034696596E+01  0.26236017053E+02  0.51100000000E-03 0.  1.
         11    1    1    0    0    0  0.26908295278E+02 -0.20834790705E+02  0.12527277108E+02  0.36263997718E+02  0.51100000000E-03 0. -1.
         22    1    1    0    0    0 -0.46381498215E+02  0.35876392950E+02 -0.21630746768E+02  0.62499985228E+02  0.00000000000E+00 0.  1.
</event>
<event>
 4    1  0.1964735E-002  0.9118800E+02  0.7818608E-02  0.1130116E+00
         25   -1    0    0    0    0  0.00000000000E+00  0.00000000000E+00  0.99999998245E-14  0.12500000000E+03  0.12500000000E+03 0.  0.
        -11    1    1    0    0    0 -0.14177850711E+02 -0.19108933654E+02 -0.33721600633E+02  0.41271166032E+02  0.51100000000E-03 0. -1.
         11    1    1    0    0    0 -0.83254250114E+01 -0.80025229853E+01 -0.17856402556E+02  0.21265093187E+02  0.51100000000E-03 0.  1.
         22    1    1    0    0    0  0.22503275723E+02  0.27111456639E+02  0.51578003189E+02  0.62463740780E+02  0.00000000000E+00 0. -1.
</event>
<event>
 4    1  0.1964735E-002  0.9118800E+02  0.7818608E-02  0.1130116E+00
         25   -1    0    0    0    0  0.00000000000E+00  0.00000000000E+00  0.99999998245E-14  0.12500000000E+03  0.12500000000E+03 0.  0.
        -11    1    1    0    0    0  0.17230968930E+01  0.96883013302E+00  0.39849775243E+01  0.44483413605E+01  0.51100000000E-03 0.  1.
         11    1    1    0    0    0  0.22465956260E+02  0.12644064634E+02  0.52013493724E+02  0.58051658811E+02  0.51100000000E-03 0. -1.
         22    1    1    0    0    0 -0.24189053153E+02 -0.13612894767E+02 -0.55998471248E+02  0.62499999828E+02  0.00000000000E+00 0. -1.
</event>
<event>
 4    1  0.1964735E-002  0.9118800E+02  0.7818608E-02  0.1130116E+00
         25   -1    0    0    0    0  0.00000000000E+00  0.00000000000E+00  0.99999998245E-14  0.12500000000E+03  0.12500000000E+03 0.  0.
        -11    1    1    0    0    0  0.34206148249E+02  0.54901243887E+01  0.46242564239E+02  0.57780418755E+02  0.51100000000E-03 0.  1.
         11    1    1    0    0    0  0.27936469914E+01  0.44923826297E+00  0.37773229732E+01  0.47195812986E+01  0.51100000000E-03 0. -1.
         22    1    1    0    0    0 -0.36999795240E+02 -0.59393626517E+01 -0.50019887212E+02  0.62499999946E+02  0.00000000000E+00 0.  1.
</event>
<event>
 4    1  0.1964735E-002  0.9118800E+02  0.7818608E-02  0.1130116E+00
         25   -1    0    0    0    0  0.00000000000E+00  0.00000000000E+00  0.99999998245E-14  0.12500000000E+03  0.12500000000E+03 0.  0.
        -11    1    1    0    0    0  0.13498163595E+02  0.14257550548E+02 -0.77475740564E+01  0.21106943693E+02  0.51100000000E-03 0. -1.
         11    1    1    0    0    0  0.26597694596E+02  0.27971433319E+02 -0.14951898509E+02  0.41393208489E+02  0.51100000000E-03 0.  1.
         22    1    1    0    0    0 -0.40095858191E+02 -0.42228983867E+02  0.22699472565E+02  0.62499847818E+02  0.00000000000E+00 0.  1.
</event>
<event>
 4    1  0.1964735E-002  0.9118800E+02  0.7818608E-02  0.1130116E+00
         25   -1    0    0    0    0  0.00000000000E+00  0.00000000000E+00  0.99999998245E-14  0.12500000000E+03  0.12500000000E+03 0.  0.
        -11    1    1    0    0    0  0.34668247442E+01  0.40877600008E+01 -0.51888668873E+01  0.74600935293E+01  0.51100000000E-03 0. -1.
         11    1    1    0    0    0  0.26728347849E+02  0.14527342211E+02 -0.46067863200E+02  0.55205944159E+02  0.51100000000E-03 0.  1.
         22    1    1    0    0    0 -0.30195172593E+02 -0.18615102212E+02  0.51256730087E+02  0.62333962312E+02  0.00000000000E+00 0.  1.
</event>
<event>
 4    1  0.1964735E-002  0.9118800E+02  0.7818608E-02  0.1130116E+00
         25   -1    0    0    0    0  0.00000000000E+00  0.00000000000E+00  0.99999998245E-14  0.12500000000E+03  0.12500000000E+03 0.  0.
        -11    1    1    0    0    0 -0.30892881948E+01  0.76933077667E+01 -0.57437948542E+00  0.83102706332E+01  0.51100000000E-03 0. -1.
         11    1    1    0    0    0 -0.20287905323E+02  0.50196491892E+02 -0.23187519203E+01  0.54190991054E+02  0.51100000000E-03 0.  1.
         22    1    1    0    0    0  0.23377193518E+02 -0.57889799659E+02  0.28931314057E+01  0.62498738313E+02  0.00000000000E+00 0.  1.
</event>
<event>
 4    1  0.1964735E-002  0.9118800E+02  0.7818608E-02  0.1130116E+00
         25   -1    0    0    0    0  0.00000000000E+00  0.00000000000E+00  0.99999998245E-14  0.12500000000E+03  0.12500000000E+03 0.  0.
        -11    1    1    0    0    0  0.36001315741E+02  0.80793161883E+01 -0.41240406535E+02  0.55336617322E+02  0.51100000000E-03 0. -1.
         11    1    1    0    0    0  0.46595708320E+01  0.10406339965E+01 -0.53403694319E+01  0.71633836546E+01  0.51100000000E-03 0.  1.
         22    1    1    0    0    0 -0.40660886573E+02 -0.91199501849E+01  0.46580775967E+02  0.62499999024E+02  0.00000000000E+00 0. -1.
</event>
<event>
 4    1  0.1964735E-002  0.9118800E+02  0.7818608E-02  0.1130116E+00
         25   -1    0    0    0    0  0.00000000000E+00  0.00000000000E+00  0.99999998245E-14  0.12500000000E+03  0.12500000000E+03 0.  0.
        -11    1    1    0    0    0 -0.10420468765E+02 -0.59062245079E+02 -0.11172731868E+02  0.61006269356E+02  0.51100000000E-03 0. -1.
         11    1    1    0    0    0 -0.25706903089E+00 -0.14456130791E+01 -0.27450286072E+00  0.14937314828E+01  0.51100000000E-03 0.  1.
         22    1    1    0    0    0  0.10677537795E+02  0.60507858158E+02  0.11447234729E+02  0.62499999161E+02  0.00000000000E+00 0. -1.
</event>
<event>
 4    1  0.1964735E-002  0.9118800E+02  0.7818608E-02  0.1130116E+00
         25   -1    0    0    0    0  0.00000000000E+00  0.00000000000E+00  0.99999998245E-14  0.12500000000E+03  0.12500000000E+03 0.  0.
        -11    1    1    0    0    0  0.21742698881E+01  0.14555038631E+01  0.13604991766E+01  0.29490505782E+01  0.51100000000E-03 0.  1.
         11    1    1    0    0    0  0.17488094451E+02 -0.54554848054E+01  0.57245483434E+02  0.60105250485E+02  0.51100000000E-03 0. -1.
         22    1    1    0    0    0 -0.19662364339E+02  0.39999809423E+01 -0.58605982611E+02  0.61945698937E+02  0.00000000000E+00 0. -1.
</event>
<event>
 4    1  0.1964735E-002  0.9118800E+02  0.7818608E-02  0.1130116E+00
         25   -1    0    0    0    0  0.00000000000E+00  0.00000000000E+00  0.99999998245E-14  0.12500000000E+03  0.12500000000E+03 0.  0.
        -11    1    1    0    0    0 -0.14419247943E+02 -0.13263360408E+02 -0.13549084434E+01  0.19638411792E+02  0.51100000000E-03 0. -1.
         11    1    1    0    0    0 -0.33393159063E+02 -0.26493329056E+02 -0.47035093504E+01  0.42884992214E+02  0.51100000000E-03 0.  1.
         22    1    1    0    0    0  0.47812407006E+02  0.39756689464E+02  0.60584177938E+01  0.62476595994E+02  0.00000000000E+00 0.  1.
</event>
<event>
 4    1  0.1964735E-002  0.9118800E+02  0.7818608E-02  0.1130116E+00
         25   -1    0    0    0    0  0.00000000000E+00  0.00000000000E+00  0.99999998245E-14  0.12500000000E+03  0.12500000000E+03 0.  0.
        -11    1    1    0    0    0 -0.30304519395E+01 -0.46463629411E+01 -0.47373280513E+01  0.72948341219E+01  0.51100000000E-03 0.  1.
         11    1    1    0    0    0 -0.25290939685E+02 -0.33892412366E+02 -0.35492379793E+02  0.55209023445E+02  0.51100000000E-03 0. -1.
         22    1    1    0    0    0  0.28321391624E+02  0.38538775307E+02  0.40229707845E+02  0.62496142433E+02  0.00000000000E+00 0. -1.
</event>
<event>
 4    1  0.1964735E-002  0.9118800E+02  0.7818608E-02  0.1130116E+00
         25   -1    0    0    0    0  0.00000000000E+00  0.00000000000E+00  0.99999998245E-14  0.12500000000E+03  0.12500000000E+03 0.  0.
        -11    1    1    0    0    0 -0.28486532621E+02  0.39150372959E+02  0.36763891863E+02  0.60793239663E+02  0.51100000000E-03 0.  1.
         11    1    1    0    0    0 -0.86542623335E+00  0.10748638138E+01  0.10057136881E+01  0.17075582178E+01  0.51100000000E-03 0. -1.
         22    1    1    0    0    0  0.29351958854E+02 -0.40225236773E+02 -0.37769605551E+02  0.62499202119E+02  0.00000000000E+00 0.  1.
</event>
<event>
 4    1  0.1964735E-002  0.9118800E+02  0.7818608E-02  0.1130116E+00
         25   -1    0    0    0    0  0.00000000000E+00  0.00000000000E+00  0.99999998245E-14  0.12500000000E+03  0.12500000000E+03 0.  0.
        -11    1    1    0    0    0 -0.40902538708E+02  0.92059521292E+00 -0.13830971759E+02  0.43187509171E+02  0.51100000000E-03 0. -1.
         11    1    1    0    0    0 -0.16266676033E+02 -0.10271642082E+02 -0.66717752661E+01  0.20362317297E+02  0.51100000000E-03 0.  1.
         22    1    1    0    0    0  0.57169214741E+02  0.93510468692E+01  0.20502747025E+02  0.61450173533E+02  0.00000000000E+00 0. -1.
</event>
<event>
 4    1  0.1964735E-002  0.9118800E+02  0.7818608E-02  0.1130116E+00
         25   -1    0    0    0    0  0.00000000000E+00  0.00000000000E+00  0.99999998245E-14  0.12500000000E+03  0.12500000000E+03 0.  0.
        -11    1    1    0    0    0 -0.12451624253E+02 -0.37952231396E+01 -0.16124842612E+02  0.20723349506E+02  0.51100000000E-03 0. -1.
         11    1    1    0    0    0 -0.25199834325E+02 -0.75694995905E+01 -0.32449388171E+02  0.41776689278E+02  0.51100000000E-03 0.  1.
         22    1    1    0    0    0  0.37651458578E+02  0.11364722730E+02  0.48574230784E+02  0.62499961216E+02  0.00000000000E+00 0.  1.
</event>
<event>
 4    1  0.1964735E-002  0.9118800E+02  0.7818608E-02  0.1130116E+00
         25   -1    0    0    0    0  0.00000000000E+00  0.00000000000E+00  0.99999998245E-14  0.12500000000E+03  0.12500000000E+03 0.  0.
        -11    1    1    0    0    0 -0.24709510548E+02 -0.11975930471E+02 -0.30702855154E+02  0.41190388891E+02  0.51100000000E-03 0.  1.
         11    1    1    0    0    0 -0.12736009937E+02 -0.65710406241E+01 -0.15772326218E+02  0.21310814123E+02  0.51100000000E-03 0. -1.
         22    1    1    0    0    0  0.37445520484E+02  0.18546971095E+02  0.46475181372E+02  0.62498796986E+02  0.00000000000E+00 0.  1.
</event>
<event>
 4    1  0.1964735E-002  0.9118800E+02  0.7818608E-02  0.1130116E+00
         25   -1    0    0    0    0  0.00000000000E+00  0.00000000000E+00  0.99999998245E-14  0.12500000000E+03  0.12500000000E+03 0.  0.
        -11    1    1    0    0    0 -0.15116875509E+02 -0.31534617684E+02  0.50308560841E+01  0.35330745122E+02  0.51100000000E-03 0. -1.
         11    1    1    0    0    0 -0.11624518582E+02 -0.24250118199E+02  0.38692048002E+01  0.27169254884E+02  0.51100000000E-03 0. -1.
         22    1    1    0    0    0  0.26741394091E+02  0.55784735883E+02 -0.89000608843E+01  0.62499999994E+02  0.00000000000E+00 0. -1.
</event>
<event>
 4    1  0.1964735E-002  0.9118800E+02  0.7818608E-02  0.1130116E+00
         25   -1    0    0    0    0  0.00000000000E+00  0.00000000000E+00  0.99999998245E-14  0.12500000000E+03  0.12500000000E+03 0.  0.
        -11    1    1    0    0    0 -0.26169116535E+02 -0.13535835643E+02 -0.12593111573E+02  0.32041035660E+02  0.51100000000E-03 0.  1.
         11    1    1    0    0    0 -0.24881565202E+02 -0.12797428657E+02 -0.12036793765E+02  0.30459003128E+02  0.51100000000E-03 0. -1.
         22    1    1    0    0    0  0.51050681738E+02  0.26333264300E+02  0.24629905338E+02  0.62499961212E+02  0.00000000000E+00 0.  1.
</event>
<event>
 4    1  0.1964735E-002  0.9118800E+02  0.7818608E-02  0.1130116E+00
         25   -1    0    0    0    0  0.00000000000E+00  0.00000000000E+00  0.99999998245E-14  0.12500000000E+03  0.12500000000E+03 0.  0.
        -11    1    1    0    0    0 -0.16102171857E+02  0.45169703906E+02 -0.35953373323E+02  0.59935191191E+02  0.51100000000E-03 0.  1.
         11    1    1    0    0    0 -0.55608175902E+00  0.19768055190E+01 -0.15396949741E+01  0.25666413573E+01  0.51100000000E-03 0. -1.
         22    1    1    0    0    0  0.16658253616E+02 -0.47146509425E+02  0.37493068297E+02  0.62498167452E+02  0.00000000000E+00 0.  1.
</event>
<event>
 4    1  0.1964735E-002  0.9118800E+02  0.7818608E-02  0.1130116E+00
         25   -1    0    0    0    0  0.00000000000E+00  0.00000000000E+00  0.99999998245E-14  0.12500000000E+03  0.12500000000E+03 0.  0.
        -11    1    1    0    0    0  0.61528138837E+01  0.84086053303E+01 -0.38893467359E+01  0.11121545782E+02  0.51100000000E-03 0. -1.
         11    1    1    0    0    0 -0.14208002053E+02  0.20523060000E+02 -0.47898723381E+02  0.54012507958E+02  0.51100000000E-03 0.  1.
         22    1    1    0    0    0  0.80551881691E+01 -0.28931665330E+02  0.51788070117E+02  0.59865946260E+02  0.00000000000E+00 0.  1.
</event>
<event>
 4    1  0.1964735E-002  0.9118800E+02  0.7818608E-02  0.1130116E+00
         25   -1    0    0    0    0  0.00000000000E+00  0.00000000000E+00  0.99999998245E-14  0.12500000000E+03  0.12500000000E+03 0.  0.
        -11    1    1    0    0    0  0.17936372234E+02  0.68386338711E+01 -0.47751392885E+02  0.51465288155E+02  0.51100000000E-03 0. -1.
         11    1    1    0    0    0  0.12214319374E+02  0.75918618466E+01 -0.10094583335E+01  0.14416829417E+02  0.51100000000E-03 0.  1.
         22    1    1    0    0    0 -0.30150691608E+02 -0.14430495718E+02  0.48760851219E+02  0.59117882427E+02  0.00000000000E+00 0. -1.
</event>
<event>
 4    1  0.1964735E-002  0.9118800E+02  0.7818608E-02  0.1130116E+00
         25   -1    0    0    0    0  0.00000000000E+00  0.00000000000E+00  0.99999998245E-14  0.12500000000E+03  0.12500000000E+03 0.  0.
        -11    1    1    0    0    0 -0.21334636729E+02 -0.95065224127E+01  0.92579525497E+01  0.25124696584E+02  0.51100000000E-03 0. -1.
         11    1    1    0    0    0 -0.29517883844E+02 -0.19343279717E+02  0.12576452757E+02  0.37465118457E+02  0.51100000000E-03 0.  1.
         22    1    1    0    0    0  0.50852520573E+02  0.28849802129E+02 -0.21834405307E+02  0.62410184959E+02  0.00000000000E+00 0. -1.
</event>
<event>
 4    1  0.1964735E-002  0.9118800E+02  0.7818608E-02  0.1130116E+00
         25   -1    0    0    0    0  0.00000000000E+00  0.00000000000E+00  0.99999998245E-14  0.12500000000E+03  0.12500000000E+03 0.  0.
        -11    1    1    0    0    0 -0.28312889545E+02  0.13202205360E+02  0.26391085576E+02  0.40895077196E+02  0.51100000000E-03 0.  1.
         11    1    1    0    0    0 -0.13778040069E+02  0.73646868495E+01  0.14951183779E+02  0.21624312641E+02  0.51100000000E-03 0. -1.
         22    1    1    0    0    0  0.42090929614E+02 -0.20566892210E+02 -0.41342269355E+02  0.62480610163E+02  0.00000000000E+00 0.  1.
</event>
<event>
 4    1  0.1964735E-002  0.9118800E+02  0.7818608E-02  0.1130116E+00
         25   -1    0    0    0    0  0.00000000000E+00  0.00000000000E+00  0.99999998245E-14  0.12500000000E+03  0.12500000000E+03 0.  0.
        -11    1    1    0    0    0 -0.13895381649E+02 -0.12126393969E+02 -0.13482689738E+02  0.22845436847E+02  0.51100000000E-03 0. -1.
         11    1    1    0    0    0  0.29147104457E+02 -0.38360969359E+02  0.22475091594E+01  0.48230373896E+02  0.51100000000E-03 0.  1.
         22    1    1    0    0    0 -0.15251722808E+02  0.50487363328E+02  0.11235180579E+02  0.53924189258E+02  0.00000000000E+00 0.  1.
</event>
<event>
 4    1  0.1964735E-002  0.9118800E+02  0.7818608E-02  0.1130116E+00
         25   -1    0    0    0    0  0.00000000000E+00  0.00000000000E+00  0.99999998245E-14  0.12500000000E+03  0.12500000000E+03 0.  0.
        -11    1    1    0    0    0 -0.74305029999E+00  0.25690148098E+02 -0.13156861659E+02  0.28872804540E+02  0.51100000000E-03 0. -1.
         11    1    1    0    0    0  0.26796709237E+01  0.33758769958E+02 -0.43026783599E+01  0.34137197112E+02  0.51100000000E-03 0.  1.
         22    1    1    0    0    0 -0.19366206237E+01 -0.59448918056E+02  0.17459540019E+02  0.61989998348E+02  0.00000000000E+00 0.  1.
</event>
<event>
 4    1  0.1964735E-002  0.9118800E+02  0.7818608E-02  0.1130116E+00
         25   -1    0    0    0    0  0.00000000000E+00  0.00000000000E+00  0.99999998245E-14  0.12500000000E+03  0.12500000000E+03 0.  0.
        -11    1    1    0    0    0  0.25176860122E+02  0.34982503857E+02  0.79449784238E+01  0.43826619128E+02  0.51100000000E-03 0. -1.
         11    1    1    0    0    0  0.10757433172E+02  0.14884989112E+02  0.33779231459E+01  0.18673393756E+02  0.51100000000E-03 0.  1.
         22    1    1    0    0    0 -0.35934293294E+02 -0.49867492969E+02 -0.11322901570E+02  0.62499987117E+02  0.00000000000E+00 0. -1.
</event>
<event>
 4    1  0.1964735E-002  0.9118800E+02  0.7818608E-02  0.1130116E+00
         25   -1    0    0    0    0  0.00000000000E+00  0.00000000000E+00  0.99999998245E-14  0.12500000000E+03  0.12500000000E+03 0.  0.
        -11    1    1    0    0    0 -0.28374581100E+02 -0.23121844710E+01  0.21654290982E+02  0.35768301159E+02  0.51100000000E-03 0. -1.
         11    1    1    0    0    0 -0.21165422724E+02 -0.17118424447E+01  0.16238214221E+02  0.26731725065E+02  0.51100000000E-03 0.  1.
         22    1    1    0    0    0  0.49540003823E+02  0.40240269157E+01 -0.37892505203E+02  0.62499973776E+02  0.00000000000E+00 0. -1.
</event>
<event>
 4    1  0.1964735E-002  0.9118800E+02  0.7818608E-02  0.1130116E+00
         25   -1    0    0    0    0  0.00000000000E+00  0.00000000000E+00  0.99999998245E-14  0.12500000000E+03  0.12500000000E+03 0.  0.
        -11    1    1    0    0    0  0.42708488980E+02  0.33464975416E+02  0.25412347230E+02  0.59914163622E+02  0.51100000000E-03 0.  1.
         11    1    1    0    0    0  0.18456247131E+01  0.14786836076E+01  0.10466549814E+01  0.25861791709E+01  0.51100000000E-03 0. -1.
         22    1    1    0    0    0 -0.44554113693E+02 -0.34943659023E+02 -0.26459002212E+02  0.62499657207E+02  0.00000000000E+00 0.  1.
</event>
<event>
 4    1  0.1964735E-002  0.9118800E+02  0.7818608E-02  0.1130116E+00
         25   -1    0    0    0    0  0.00000000000E+00  0.00000000000E+00  0.99999998245E-14  0.12500000000E+03  0.12500000000E+03 0.  0.
        -11    1    1    0    0    0 -0.23502477774E+01  0.36735861991E+02 -0.46835244621E+02  0.59570020646E+02  0.51100000000E-03 0. -1.
         11    1    1    0    0    0 -0.11573302780E+00  0.18067784415E+01 -0.23036788915E+01  0.29299793799E+01  0.51100000000E-03 0. -1.
         22    1    1    0    0    0  0.24659808052E+01 -0.38542640432E+02  0.49138923512E+02  0.62499999974E+02  0.00000000000E+00 0. -1.
</event>
<event>
 4    1  0.1964735E-002  0.9118800E+02  0.7818608E-02  0.1130116E+00
         25   -1    0    0    0    0  0.00000000000E+00  0.00000000000E+00  0.99999998245E-14  0.12500000000E+03  0.12500000000E+03 0.  0.
        -11    1    1    0    0    0  0.75918294535E+01  0.12250913920E+02  0.39616523789E+01  0.14947088551E+02  0.51100000000E-03 0.  1.
         11    1    1    0    0    0 -0.25684382914E+02 -0.53752148718E+02  0.14249723722E+02  0.61253862278E+02  0.51100000000E-03 0. -1.
         22    1    1    0    0    0  0.18092553461E+02  0.41501234798E+02 -0.18211376101E+02  0.48799049171E+02  0.00000000000E+00 0. -1.
</event>
<event>
 4    1  0.1964735E-002  0.9118800E+02  0.7818608E-02  0.1130116E+00
         25   -1    0    0    0    0  0.00000000000E+00  0.00000000000E+00  0.99999998245E-14  0.12500000000E+03  0.12500000000E+03 0.  0.
        -11    1    1    0    0    0  0.16809754280E+02  0.36033434484E+01  0.17571289884E-01  0.17191632615E+02  0.51100000000E-03 0.  1.
         11    1    1    0    0    0  0.44210638503E+02  0.99087043440E+01 -0.36455479346E+00  0.45308894039E+02  0.51100000000E-03 0. -1.
         22    1    1    0    0    0 -0.61020392783E+02 -0.13512047792E+02  0.34698350357E+00  0.62499473346E+02  0.00000000000E+00 0. -1.
</event>
<event>
 4    1  0.1964735E-002  0.9118800E+02  0.7818608E-02  0.1130116E+00
         25   -1    0    0    0    0  0.00000000000E+00  0.00000000000E+00  0.99999998245E-14  0.12500000000E+03  0.12500000000E+03 0.  0.
        -11    1    1    0    0    0  0.54829711814E+01  0.26662425761E+02  0.51707727265E+02  0.58434895223E+02  0.51100000000E-03 0. -1.
         11    1    1    0    0    0  0.38154433397E+00  0.18535534494E+01  0.35977550213E+01  0.40651049092E+01  0.51100000000E-03 0.  1.
         22    1    1    0    0    0 -0.58645155154E+01 -0.28515979211E+02 -0.55305482287E+02  0.62499999868E+02  0.00000000000E+00 0. -1.
</event>
<event>
 4    1  0.1964735E-002  0.9118800E+02  0.7818608E-02  0.1130116E+00
         25   -1    0    0    0    0  0.00000000000E+00  0.00000000000E+00  0.99999998245E-14  0.12500000000E+03  0.12500000000E+03 0.  0.
        -11    1    1    0    0    0  0.16475316447E+02 -0.91323390706E+01 -0.10035334409E+02  0.21343467523E+02  0.51100000000E-03 0. -1.
         11    1    1    0    0    0  0.31778064630E+02 -0.17593649223E+02 -0.19351442816E+02  0.41156533187E+02  0.51100000000E-03 0.  1.
         22    1    1    0    0    0 -0.48253381078E+02  0.26725988293E+02  0.29386777224E+02  0.62499999291E+02  0.00000000000E+00 0.  1.
</event>
<event>
 4    1  0.1964735E-002  0.9118800E+02  0.7818608E-02  0.1130116E+00
         25   -1    0    0    0    0  0.00000000000E+00  0.00000000000E+00  0.99999998245E-14  0.12500000000E+03  0.12500000000E+03 0.  0.
        -11    1    1    0    0    0  0.22009730803E+00  0.49237113903E+02  0.32389755653E+01  0.49344024879E+02  0.51100000000E-03 0.  1.
         11    1    1    0    0    0  0.81078391845E+00  0.13126547728E+02  0.60483864756E+00  0.13165464514E+02  0.51100000000E-03 0. -1.
         22    1    1    0    0    0 -0.10308812265E+01 -0.62363661631E+02 -0.38438142129E+01  0.62490510606E+02  0.00000000000E+00 0.  1.
</event>
<event>
 4    1  0.1964735E-002  0.9118800E+02  0.7818608E-02  0.1130116E+00
         25   -1    0    0    0    0  0.00000000000E+00  0.00000000000E+00  0.99999998245E-14  0.12500000000E+03  0.12500000000E+03 0.  0.
        -11    1    1    0    0    0  0.16560986581E+01  0.43579397527E+02  0.28680054229E+02  0.52196283990E+02  0.51100000000E-03 0. -1.
         11    1    1    0    0    0 -0.15058077755E+00  0.87049373062E+01  0.55204936476E+01  0.10308950405E+02  0.51100000000E-03 0.  1.
         22    1    1    0    0    0 -0.15055178806E+01 -0.52284334833E+02 -0.34200547876E+02  0.62494765605E+02  0.00000000000E+00 0. -1.
</event>
<event>
 4    1  0.1964735E-002  0.9118800E+02  0.7818608E-02  0.1130116E+00
         25   -1    0    0    0    0  0.00000000000E+00  0.00000000000E+00  0.99999998245E-14  0.12500000000E+03  0.12500000000E+03 0.  0.
        -11    1    1    0    0    0 -0.10160339689E+02 -0.10466252000E+02 -0.87997745268E+01  0.17035579400E+02  0.51100000000E-03 0.  1.
         11    1    1    0    0    0 -0.25572093436E+02 -0.27998529936E+02 -0.25096681744E+02  0.45471893254E+02  0.51100000000E-03 0. -1.
         22    1    1    0    0    0  0.35732433125E+02  0.38464781935E+02  0.33896456271E+02  0.62492527346E+02  0.00000000000E+00 0. -1.
</event>
<event>
 4    1  0.1964735E-002  0.9118800E+02  0.7818608E-02  0.1130116E+00
         25   -1    0    0    0    0  0.00000000000E+00  0.00000000000E+00  0.99999998245E-14  0.12500000000E+03  0.12500000000E+03 0.  0.
        -11    1    1    0    0    0 -0.30669309411E+01  0.20357084716E+01 -0.86032192836E+01  0.93576469629E+01  0.51100000000E-03 0.  1.
         11    1    1    0    0    0  0.14792606954E+02 -0.28209051373E+02  0.53560470024E+02  0.62316095427E+02  0.51100000000E-03 0. -1.
         22    1    1    0    0    0 -0.11725676013E+02  0.26173342901E+02 -0.44957250740E+02  0.53326257610E+02  0.00000000000E+00 0. -1.
</event>
<event>
 4    1  0.1964735E-002  0.9118800E+02  0.7818608E-02  0.1130116E+00
         25   -1    0    0    0    0  0.00000000000E+00  0.00000000000E+00  0.99999998245E-14  0.12500000000E+03  0.12500000000E+03 0.  0.
        -11    1    1    0    0    0  0.48522373420E+02  0.20377839633E+02 -0.18830013224E+02  0.55894959243E+02  0.51100000000E-03 0.  1.
         11    1    1    0    0    0  0.27098330413E+01 -0.20050502610E+01 -0.78112259510E+01  0.85075656201E+01  0.51100000000E-03 0. -1.
         22    1    1    0    0    0 -0.51232206462E+02 -0.18372789372E+02  0.26641239175E+02  0.60597475137E+02  0.00000000000E+00 0.  1.
</event>
<event>
 4    1  0.1964735E-002  0.9118800E+02  0.7818608E-02  0.1130116E+00
         25   -1    0    0    0    0  0.00000000000E+00  0.00000000000E+00  0.99999998245E-14  0.12500000000E+03  0.12500000000E+03 0.  0.
        -11    1    1    0    0    0 -0.40308697176E+01  0.17680132834E+02 -0.72969087870E+01  0.19546863836E+02  0.51100000000E-03 0.  1.
         11    1    1    0    0    0 -0.88304079750E+01  0.38862189350E+02 -0.16022677598E+02  0.42953137996E+02  0.51100000000E-03 0. -1.
         22    1    1    0    0    0  0.12861277693E+02 -0.56542322184E+02  0.23319586385E+02  0.62499998168E+02  0.00000000000E+00 0. -1.
</event>
<event>
 4    1  0.1964735E-002  0.9118800E+02  0.7818608E-02  0.1130116E+00
         25   -1    0    0    0    0  0.00000000000E+00  0.00000000000E+00  0.99999998245E-14  0.12500000000E+03  0.12500000000E+03 0.  0.
        -11    1    1    0    0    0  0.21967282026E+01  0.22240601534E+02  0.13404654672E+02  0.26060597433E+02  0.51100000000E-03 0. -1.
         11    1    1    0    0    0  0.30553440374E+01  0.31099165897E+02  0.18743982188E+02  0.36439403332E+02  0.51100000000E-03 0.  1.
         22    1    1    0    0    0 -0.52520722401E+01 -0.53339767431E+02 -0.32148636861E+02  0.62499999235E+02  0.00000000000E+00 0. -1.
</event>
<event>
 4    1  0.1964735E-002  0.9118800E+02  0.7818608E-02  0.1130116E+00
         25   -1    0    0    0    0  0.00000000000E+00  0.00000000000E+00  0.99999998245E-14  0.12500000000E+03  0.12500000000E+03 0.  0.
        -11    1    1    0    0    0 -0.57855748122E+01 -0.40435805549E+01  0.12350405957E+02  0.14225187070E+02  0.51100000000E-03 0.  1.
         11    1    1    0    0    0 -0.79532726714E+01  0.56195147118E+01  0.47939827377E+02  0.48918918028E+02  0.51100000000E-03 0. -1.
         22    1    1    0    0    0  0.13738847484E+02 -0.15759341570E+01 -0.60290233334E+02  0.61855894902E+02  0.00000000000E+00 0. -1.
</event>
<event>
 4    1  0.1964735E-002  0.9118800E+02  0.7818608E-02  0.1130116E+00
         25   -1    0    0    0    0  0.00000000000E+00  0.00000000000E+00  0.99999998245E-14  0.12500000000E+03  0.12500000000E+03 0.  0.
        -11    1    1    0    0    0 -0.23336994220E+01  0.11305508162E+02  0.10364699824E+02  0.15514111979E+02  0.51100000000E-03 0.  1.
         11    1    1    0    0    0 -0.37306419493E+02  0.30167833569E+02  0.92375060605E+01  0.48858966793E+02  0.51100000000E-03 0. -1.
         22    1    1    0    0    0  0.39640118915E+02 -0.41473341732E+02 -0.19602205885E+02  0.60626921227E+02  0.00000000000E+00 0. -1.
</event>
<event>
 4    1  0.1964735E-002  0.9118800E+02  0.7818608E-02  0.1130116E+00
         25   -1    0    0    0    0  0.00000000000E+00  0.00000000000E+00  0.99999998245E-14  0.12500000000E+03  0.12500000000E+03 0.  0.
        -11    1    1    0    0    0  0.47490699652E+02 -0.20743017803E+02 -0.26468152632E+02  0.58191085615E+02  0.51100000000E-03 0. -1.
         11    1    1    0    0    0  0.32815971007E+01 -0.16474111171E+01 -0.22717150119E+01  0.43178156835E+01  0.51100000000E-03 0.  1.
         22    1    1    0    0    0 -0.50772296753E+02  0.22390428920E+02  0.28739867644E+02  0.62491098702E+02  0.00000000000E+00 0. -1.
</event>
<event>
 4    1  0.1964735E-002  0.9118800E+02  0.7818608E-02  0.1130116E+00
         25   -1    0    0    0    0  0.00000000000E+00  0.00000000000E+00  0.99999998245E-14  0.12500000000E+03  0.12500000000E+03 0.  0.
        -11    1    1    0    0    0  0.31389985204E+02 -0.35807887809E+01 -0.49329560060E+02  0.58579507641E+02  0.51100000000E-03 0.  1.
         11    1    1    0    0    0  0.20529535549E+01 -0.35987802220E+00 -0.33217723577E+01  0.39215178626E+01  0.51100000000E-03 0. -1.
         22    1    1    0    0    0 -0.33442938759E+02  0.39406668030E+01  0.52651332418E+02  0.62498974497E+02  0.00000000000E+00 0.  1.
</event>
<event>
 4    1  0.1964735E-002  0.9118800E+02  0.7818608E-02  0.1130116E+00
         25   -1    0    0    0    0  0.00000000000E+00  0.00000000000E+00  0.99999998245E-14  0.12500000000E+03  0.12500000000E+03 0.  0.
        -11    1    1    0    0    0 -0.13698211408E+01  0.13681963302E+02 -0.10597260579E+02  0.17360140028E+02  0.51100000000E-03 0. -1.
         11    1    1    0    0    0 -0.47061765278E+01  0.35053891559E+02 -0.28052408583E+02  0.45142674251E+02  0.51100000000E-03 0.  1.
         22    1    1    0    0    0  0.60759976686E+01 -0.48735854861E+02  0.38649669162E+02  0.62497185721E+02  0.00000000000E+00 0.  1.
</event>
<event>
 4    1  0.1964735E-002  0.9118800E+02  0.7818608E-02  0.1130116E+00
         25   -1    0    0    0    0  0.00000000000E+00  0.00000000000E+00  0.99999998245E-14  0.12500000000E+03  0.12500000000E+03 0.  0.
        -11    1    1    0    0    0  0.38922376520E+01 -0.30377785010E+01  0.45180326258E+01  0.66925504278E+01  0.51100000000E-03 0.  1.
         11    1    1    0    0    0  0.36004869170E+02 -0.26630475450E+02  0.33327395016E+02  0.55823365049E+02  0.51100000000E-03 0. -1.
         22    1    1    0    0    0 -0.39897106822E+02  0.29668253951E+02 -0.37845427642E+02  0.62484084523E+02  0.00000000000E+00 0. -1.
</event>
<event>
 4    1  0.1964735E-002  0.9118800E+02  0.7818608E-02  0.1130116E+00
         25   -1    0    0    0    0  0.00000000000E+00  0.00000000000E+00  0.99999998245E-14  0.12500000000E+03  0.12500000000E+03 0.  0.
        -11    1    1    0    0    0 -0.26467894321E+02 -0.36359584008E+02 -0.27459663133E+02  0.52693470930E+02  0.51100000000E-03 0. -1.
         11    1    1    0    0    0 -0.49679814461E+01 -0.66808016463E+01 -0.51826755185E+01  0.98068382304E+01  0.51100000000E-03 0.  1.
         22    1    1    0    0    0  0.31435875767E+02  0.43040385654E+02  0.32642338651E+02  0.62499690840E+02  0.00000000000E+00 0.  1.
</event>
<event>
 4    1  0.1964735E-002  0.9118800E+02  0.7818608E-02  0.1130116E+00
         25   -1    0    0    0    0  0.00000000000E+00  0.00000000000E+00  0.99999998245E-14  0.12500000000E+03  0.12500000000E+03 0.  0.
        -11    1    1    0    0    0  0.49316590212E+00  0.31088316212E+00  0.33885095938E-01  0.58396010852E+00  0.51100000000E-03 0.  1.
         11    1    1    0    0    0  0.52351196479E+02  0.32317783055E+02  0.69688119656E+01  0.61916485808E+02  0.51100000000E-03 0. -1.
         22    1    1    0    0    0 -0.52844362381E+02 -0.32628666217E+02 -0.70026970616E+01  0.62499554084E+02  0.00000000000E+00 0. -1.
</event>
<event>
 4    1  0.1964735E-002  0.9118800E+02  0.7818608E-02  0.1130116E+00
         25   -1    0    0    0    0  0.00000000000E+00  0.00000000000E+00  0.99999998245E-14  0.12500000000E+03  0.12500000000E+03 0.  0.
        -11    1    1    0    0    0 -0.18898117059E+02  0.10633339517E+02 -0.12236417654E+02  0.24898527164E+02  0.51100000000E-03 0. -1.
         11    1    1    0    0    0 -0.27004046685E+02  0.22443130540E+02 -0.13918143989E+02  0.37770721176E+02  0.51100000000E-03 0.  1.
         22    1    1    0    0    0  0.45902163744E+02 -0.33076470058E+02  0.26154561642E+02  0.62330751660E+02  0.00000000000E+00 0.  1.
</event>
<event>
 4    1  0.1964735E-002  0.9118800E+02  0.7818608E-02  0.1130116E+00
         25   -1    0    0    0    0  0.00000000000E+00  0.00000000000E+00  0.99999998245E-14  0.12500000000E+03  0.12500000000E+03 0.  0.
        -11    1    1    0    0    0  0.24346183619E+01  0.11752281972E+02 -0.27234990570E+00  0.12004902035E+02  0.51100000000E-03 0.  1.
         11    1    1    0    0    0  0.18005128806E+02  0.45469052847E+02 -0.13413842970E+02  0.50710458621E+02  0.51100000000E-03 0. -1.
         22    1    1    0    0    0 -0.20439747168E+02 -0.57221334819E+02  0.13686192876E+02  0.62284639344E+02  0.00000000000E+00 0. -1.
</event>
<event>
 4    1  0.1964735E-002  0.9118800E+02  0.7818608E-02  0.1130116E+00
         25   -1    0    0    0    0  0.00000000000E+00  0.00000000000E+00  0.99999998245E-14  0.12500000000E+03  0.12500000000E+03 0.  0.
        -11    1    1    0    0    0 -0.14874501665E+02 -0.13128966593E+00  0.52289761007E+01  0.15767378606E+02  0.51100000000E-03 0.  1.
         11    1    1    0    0    0 -0.42951261164E+02 -0.26602442611E+01  0.18271113405E+02  0.46751698584E+02  0.51100000000E-03 0. -1.
         22    1    1    0    0    0  0.57825762830E+02  0.27915339270E+01 -0.23500089506E+02  0.62480922811E+02  0.00000000000E+00 0. -1.
</event>
<event>
 4    1  0.1964735E-002  0.9118800E+02  0.7818608E-02  0.1130116E+00
         25   -1    0    0    0    0  0.00000000000E+00  0.00000000000E+00  0.99999998245E-14  0.12500000000E+03  0.12500000000E+03 0.  0.
        -11    1    1    0    0    0  0.27833463034E+01  0.79478198276E+01 -0.31021086553E+01  0.89742930099E+01  0.51100000000E-03 0.  1.
         11    1    1    0    0    0  0.16556930796E+02  0.45575887051E+02 -0.22698286115E+02  0.53539757477E+02  0.51100000000E-03 0. -1.
         22    1    1    0    0    0 -0.19340277099E+02 -0.53523706879E+02  0.25800394770E+02  0.62485949513E+02  0.00000000000E+00 0. -1.
</event>
<event>
 4    1  0.1964735E-002  0.9118800E+02  0.7818608E-02  0.1130116E+00
         25   -1    0    0    0    0  0.00000000000E+00  0.00000000000E+00  0.99999998245E-14  0.12500000000E+03  0.12500000000E+03 0.  0.
        -11    1    1    0    0    0 -0.15113124626E+02  0.15719308514E+02 -0.14086694662E+02  0.25960319006E+02  0.51100000000E-03 0. -1.
         11    1    1    0    0    0 -0.21410164708E+02  0.22042707448E+02 -0.19770640541E+02  0.36539763712E+02  0.51100000000E-03 0.  1.
         22    1    1    0    0    0  0.36523289334E+02 -0.37762015962E+02  0.33857335202E+02  0.62499917282E+02  0.00000000000E+00 0.  1.
</event>
<event>
 4    1  0.1964735E-002  0.9118800E+02  0.7818608E-02  0.1130116E+00
         25   -1    0    0    0    0  0.00000000000E+00  0.00000000000E+00  0.99999998245E-14  0.12500000000E+03  0.12500000000E+03 0.  0.
        -11    1    1    0    0    0 -0.86302994324E+00 -0.23928131873E+02  0.34333861088E+02  0.41858264812E+02  0.51100000000E-03 0.  1.
         11    1    1    0    0    0  0.19821243325E+01 -0.15131251600E+02  0.14191376270E+02  0.20839355858E+02  0.51100000000E-03 0. -1.
         22    1    1    0    0    0 -0.11190943892E+01  0.39059383473E+02 -0.48525237358E+02  0.62302379330E+02  0.00000000000E+00 0.  1.
</event>
<event>
 4    1  0.1964735E-002  0.9118800E+02  0.7818608E-02  0.1130116E+00
         25   -1    0    0    0    0  0.00000000000E+00  0.00000000000E+00  0.99999998245E-14  0.12500000000E+03  0.12500000000E+03 0.  0.
        -11    1    1    0    0    0 -0.17325199762E+02 -0.52909653865E+02  0.27944123515E+02  0.62293403007E+02  0.51100000000E-03 0.  1.
         11    1    1    0    0    0 -0.70440361415E+00  0.22524337213E+01 -0.13594535331E+01  0.27235558174E+01  0.51100000000E-03 0. -1.
         22    1    1    0    0    0  0.18029603376E+02  0.50657220144E+02 -0.26584669982E+02  0.59983041175E+02  0.00000000000E+00 0.  1.
</event>
<event>
 4    1  0.1964735E-002  0.9118800E+02  0.7818608E-02  0.1130116E+00
         25   -1    0    0    0    0  0.00000000000E+00  0.00000000000E+00  0.99999998245E-14  0.12500000000E+03  0.12500000000E+03 0.  0.
        -11    1    1    0    0    0  0.19026136527E+02  0.53667963472E+01  0.19448409160E+02  0.27731516246E+02  0.51100000000E-03 0. -1.
         11    1    1    0    0    0  0.24612155935E+02  0.81358852378E+01  0.23190074519E+02  0.34781178888E+02  0.51100000000E-03 0.  1.
         22    1    1    0    0    0 -0.43638292462E+02 -0.13502681585E+02 -0.42638483679E+02  0.62487304866E+02  0.00000000000E+00 0.  1.
</event>
<event>
 4    1  0.1964735E-002  0.9118800E+02  0.7818608E-02  0.1130116E+00
         25   -1    0    0    0    0  0.00000000000E+00  0.00000000000E+00  0.99999998245E-14  0.12500000000E+03  0.12500000000E+03 0.  0.
        -11    1    1    0    0    0  0.44983342570E+02  0.38984720726E+01  0.23825301998E+02  0.51052367319E+02  0.51100000000E-03 0.  1.
         11    1    1    0    0    0  0.96092818597E+01 -0.56985305345E+00  0.63013938182E+01  0.11505242052E+02  0.51100000000E-03 0. -1.
         22    1    1    0    0    0 -0.54592624430E+02 -0.33286190191E+01 -0.30126695817E+02  0.62442390629E+02  0.00000000000E+00 0.  1.
</event>
<event>
 4    1  0.1964735E-002  0.9118800E+02  0.7818608E-02  0.1130116E+00
         25   -1    0    0    0    0  0.00000000000E+00  0.00000000000E+00  0.99999998245E-14  0.12500000000E+03  0.12500000000E+03 0.  0.
        -11    1    1    0    0    0 -0.10406610656E+02 -0.30864927300E+02  0.78834826849E+00  0.32581632492E+02  0.51100000000E-03 0. -1.
         11    1    1    0    0    0 -0.75695470999E+01 -0.28750305697E+02 -0.43669881038E+01  0.30049104918E+02  0.51100000000E-03 0.  1.
         22    1    1    0    0    0  0.17976157756E+02  0.59615232998E+02  0.35786398353E+01  0.62369262590E+02  0.00000000000E+00 0.  1.
</event>
<event>
 4    1  0.1964735E-002  0.9118800E+02  0.7818608E-02  0.1130116E+00
         25   -1    0    0    0    0  0.00000000000E+00  0.00000000000E+00  0.99999998245E-14  0.12500000000E+03  0.12500000000E+03 0.  0.
        -11    1    1    0    0    0  0.70432168034E+01  0.63076720975E+01  0.86437281248E+01  0.12810451451E+02  0.51100000000E-03 0. -1.
         11    1    1    0    0    0  0.27391689710E+02  0.24436327308E+02  0.33490494863E+02  0.49689556286E+02  0.51100000000E-03 0.  1.
         22    1    1    0    0    0 -0.34434906514E+02 -0.30743999406E+02 -0.42134222987E+02  0.62499992263E+02  0.00000000000E+00 0.  1.
</event>
<event>
 4    1  0.1964735E-002  0.9118800E+02  0.7818608E-02  0.1130116E+00
         25   -1    0    0    0    0  0.00000000000E+00  0.00000000000E+00  0.99999998245E-14  0.12500000000E+03  0.12500000000E+03 0.  0.
        -11    1    1    0    0    0  0.42361666132E+01  0.81179759260E+01  0.65759801257E+01  0.11273426967E+02  0.51100000000E-03 0. -1.
         11    1    1    0    0    0  0.19211920938E+02  0.36908935560E+02  0.29879667321E+02  0.51226574644E+02  0.51100000000E-03 0.  1.
         22    1    1    0    0    0 -0.23448087551E+02 -0.45026911486E+02 -0.36455647447E+02  0.62499998388E+02  0.00000000000E+00 0.  1.
</event>
<event>
 4    1  0.1964735E-002  0.9118800E+02  0.7818608E-02  0.1130116E+00
         25   -1    0    0    0    0  0.00000000000E+00  0.00000000000E+00  0.99999998245E-14  0.12500000000E+03  0.12500000000E+03 0.  0.
        -11    1    1    0    0    0 -0.57140712554E+01 -0.75876109056E+01  0.14446067488E+02  0.17289051903E+02  0.51100000000E-03 0. -1.
         11    1    1    0    0    0 -0.14953480656E+02 -0.19838008034E+02  0.37774021516E+02  0.45210948323E+02  0.51100000000E-03 0.  1.
         22    1    1    0    0    0  0.20667551912E+02  0.27425618940E+02 -0.52220089004E+02  0.62499999775E+02  0.00000000000E+00 0.  1.
</event>
<event>
 4    1  0.1964735E-002  0.9118800E+02  0.7818608E-02  0.1130116E+00
         25   -1    0    0    0    0  0.00000000000E+00  0.00000000000E+00  0.99999998245E-14  0.12500000000E+03  0.12500000000E+03 0.  0.
        -11    1    1    0    0    0  0.97743073758E+00  0.26875919897E+02 -0.41996743271E+02  0.49869799346E+02  0.51100000000E-03 0.  1.
         11    1    1    0    0    0  0.23900719096E+00  0.68015083460E+01 -0.10639754367E+02  0.12630202432E+02  0.51100000000E-03 0. -1.
         22    1    1    0    0    0 -0.12164379285E+01 -0.33677428243E+02  0.52636497638E+02  0.62499998223E+02  0.00000000000E+00 0.  1.
</event>
<event>
 4    1  0.1964735E-002  0.9118800E+02  0.7818608E-02  0.1130116E+00
         25   -1    0    0    0    0  0.00000000000E+00  0.00000000000E+00  0.99999998245E-14  0.12500000000E+03  0.12500000000E+03 0.  0.
        -11    1    1    0    0    0 -0.69748550161E+01  0.18371753903E+02 -0.26165735264E+02  0.32723319608E+02  0.51100000000E-03 0. -1.
         11    1    1    0    0    0 -0.44058744704E+01  0.36254681086E+01 -0.30187044375E+02  0.30721546139E+02  0.51100000000E-03 0.  1.
         22    1    1    0    0    0  0.11380729486E+02 -0.21997222012E+02  0.56352779639E+02  0.61555134253E+02  0.00000000000E+00 0.  1.
</event>
<event>
 4    1  0.1964735E-002  0.9118800E+02  0.7818608E-02  0.1130116E+00
         25   -1    0    0    0    0  0.00000000000E+00  0.00000000000E+00  0.99999998245E-14  0.12500000000E+03  0.12500000000E+03 0.  0.
        -11    1    1    0    0    0  0.11757351156E+02 -0.40230813365E+02  0.14428381625E+02  0.44327551780E+02  0.51100000000E-03 0. -1.
         11    1    1    0    0    0 -0.37445431124E+01 -0.18809656352E+02  0.73020981407E+00  0.19192654372E+02  0.51100000000E-03 0.  1.
         22    1    1    0    0    0 -0.80128080435E+01  0.59040469717E+02 -0.15158591439E+02  0.61479793848E+02  0.00000000000E+00 0. -1.
</event>
<event>
 4    1  0.1964735E-002  0.9118800E+02  0.7818608E-02  0.1130116E+00
         25   -1    0    0    0    0  0.00000000000E+00  0.00000000000E+00  0.99999998245E-14  0.12500000000E+03  0.12500000000E+03 0.  0.
        -11    1    1    0    0    0 -0.32727351621E+01  0.30500504901E+02 -0.47881060889E+02  0.56864642677E+02  0.51100000000E-03 0.  1.
         11    1    1    0    0    0 -0.31304019688E+00  0.30314892382E+01 -0.47401935981E+01  0.56353666052E+01  0.51100000000E-03 0. -1.
         22    1    1    0    0    0  0.35857753589E+01 -0.33531994140E+02  0.52621254487E+02  0.62499990718E+02  0.00000000000E+00 0.  1.
</event>
<event>
 4    1  0.1964735E-002  0.9118800E+02  0.7818608E-02  0.1130116E+00
         25   -1    0    0    0    0  0.00000000000E+00  0.00000000000E+00  0.99999998245E-14  0.12500000000E+03  0.12500000000E+03 0.  0.
        -11    1    1    0    0    0 -0.55272458884E+02 -0.89120450153E+01  0.13483839551E+01  0.56002565986E+02  0.51100000000E-03 0.  1.
         11    1    1    0    0    0 -0.64126167217E+01 -0.10348275392E+01  0.15533278930E+00  0.64974340929E+01  0.51100000000E-03 0. -1.
         22    1    1    0    0    0  0.61685075606E+02  0.99468725545E+01 -0.15037167444E+01  0.62499999921E+02  0.00000000000E+00 0.  1.
</event>
<event>
 4    1  0.1964735E-002  0.9118800E+02  0.7818608E-02  0.1130116E+00
         25   -1    0    0    0    0  0.00000000000E+00  0.00000000000E+00  0.99999998245E-14  0.12500000000E+03  0.12500000000E+03 0.  0.
        -11    1    1    0    0    0 -0.39649880384E+02 -0.25398270746E+02  0.22385399742E+02  0.52137235190E+02  0.51100000000E-03 0. -1.
         11    1    1    0    0    0 -0.76927345713E+01 -0.54110905188E+01  0.43591194843E+01  0.10366290982E+02  0.51100000000E-03 0.  1.
         22    1    1    0    0    0  0.47342614955E+02  0.30809361265E+02 -0.26744519226E+02  0.62496473828E+02  0.00000000000E+00 0.  1.
</event>
<event>
 4    1  0.1964735E-002  0.9118800E+02  0.7818608E-02  0.1130116E+00
         25   -1    0    0    0    0  0.00000000000E+00  0.00000000000E+00  0.99999998245E-14  0.12500000000E+03  0.12500000000E+03 0.  0.
        -11    1    1    0    0    0  0.56756894929E+01 -0.62928281299E+01 -0.28880339156E+01  0.89528697774E+01  0.51100000000E-03 0. -1.
         11    1    1    0    0    0  0.24290572585E+02  0.53000227890E+02 -0.98051812281E+01  0.59120196651E+02  0.51100000000E-03 0.  1.
         22    1    1    0    0    0 -0.29966262078E+02 -0.46707399760E+02  0.12693215144E+02  0.56926933572E+02  0.00000000000E+00 0.  1.
</event>
<event>
 4    1  0.1964735E-002  0.9118800E+02  0.7818608E-02  0.1130116E+00
         25   -1    0    0    0    0  0.00000000000E+00  0.00000000000E+00  0.99999998245E-14  0.12500000000E+03  0.12500000000E+03 0.  0.
        -11    1    1    0    0    0  0.15144085000E+02 -0.44312376842E+02 -0.13998874859E+02  0.48876359822E+02  0.51100000000E-03 0.  1.
         11    1    1    0    0    0  0.42897124351E+01 -0.12335461146E+02 -0.38782075291E+01  0.13623719329E+02  0.51100000000E-03 0. -1.
         22    1    1    0    0    0 -0.19433797435E+02  0.56647837988E+02  0.17877082388E+02  0.62499920849E+02  0.00000000000E+00 0.  1.
</event>
<event>
 4    1  0.1964735E-002  0.9118800E+02  0.7818608E-02  0.1130116E+00
         25   -1    0    0    0    0  0.00000000000E+00  0.00000000000E+00  0.99999998245E-14  0.12500000000E+03  0.12500000000E+03 0.  0.
        -11    1    1    0    0    0  0.13551441235E+02 -0.29751813627E+01  0.32264374732E+02  0.35120978643E+02  0.51100000000E-03 0.  1.
         11    1    1    0    0    0  0.10519384688E+02 -0.23667781127E+01  0.25166504970E+02  0.27379044277E+02  0.51100000000E-03 0. -1.
         22    1    1    0    0    0 -0.24070825923E+02  0.53419594754E+01 -0.57430879702E+02  0.62499977080E+02  0.00000000000E+00 0. -1.
</event>
<event>
 4    1  0.1964735E-002  0.9118800E+02  0.7818608E-02  0.1130116E+00
         25   -1    0    0    0    0  0.00000000000E+00  0.00000000000E+00  0.99999998245E-14  0.12500000000E+03  0.12500000000E+03 0.  0.
        -11    1    1    0    0    0  0.26543622016E+01  0.11314410248E+02 -0.49207998717E+00  0.11632010184E+02  0.51100000000E-03 0.  1.
         11    1    1    0    0    0  0.11775384782E+02  0.49448473913E+02 -0.19360184378E+01  0.50868059003E+02  0.51100000000E-03 0. -1.
         22    1    1    0    0    0 -0.14429746983E+02 -0.60762884161E+02  0.24280984250E+01  0.62499930812E+02  0.00000000000E+00 0. -1.
</event>
<event>
 4    1  0.1964735E-002  0.9118800E+02  0.7818608E-02  0.1130116E+00
         25   -1    0    0    0    0  0.00000000000E+00  0.00000000000E+00  0.99999998245E-14  0.12500000000E+03  0.12500000000E+03 0.  0.
        -11    1    1    0    0    0  0.28301199642E+02  0.30594904024E+02  0.59752935994E+01  0.42103565018E+02  0.51100000000E-03 0. -1.
         11    1    1    0    0    0  0.13709819018E+02  0.14821925359E+02  0.28923957067E+01  0.20396435032E+02  0.51100000000E-03 0.  1.
         22    1    1    0    0    0 -0.42011018660E+02 -0.45416829383E+02 -0.88676893060E+01  0.62499999949E+02  0.00000000000E+00 0. -1.
</event>
<event>
 4    1  0.1964735E-002  0.9118800E+02  0.7818608E-02  0.1130116E+00
         25   -1    0    0    0    0  0.00000000000E+00  0.00000000000E+00  0.99999998245E-14  0.12500000000E+03  0.12500000000E+03 0.  0.
        -11    1    1    0    0    0 -0.45995928698E+01  0.17767865489E+02 -0.24069354108E+02  0.30268582822E+02  0.51100000000E-03 0. -1.
         11    1    1    0    0    0 -0.50738998970E+01  0.18891888041E+02 -0.25616871363E+02  0.32231537237E+02  0.51100000000E-03 0.  1.
         22    1    1    0    0    0  0.96734927667E+01 -0.36659753530E+02  0.49686225471E+02  0.62499879942E+02  0.00000000000E+00 0.  1.
</event>
<event>
 4    1  0.1964735E-002  0.9118800E+02  0.7818608E-02  0.1130116E+00
         25   -1    0    0    0    0  0.00000000000E+00  0.00000000000E+00  0.99999998245E-14  0.12500000000E+03  0.12500000000E+03 0.  0.
        -11    1    1    0    0    0 -0.54557045791E+00  0.57304545149E+00 -0.66426077970E+00  0.10330880207E+01  0.51100000000E-03 0. -1.
         11    1    1    0    0    0 -0.31696515620E+02  0.34524197156E+02 -0.39769320248E+02  0.61466967755E+02  0.51100000000E-03 0.  1.
         22    1    1    0    0    0  0.32242086077E+02 -0.35097242608E+02  0.40433581028E+02  0.62499944224E+02  0.00000000000E+00 0.  1.
</event>
<event>
 4    1  0.1964735E-002  0.9118800E+02  0.7818608E-02  0.1130116E+00
         25   -1    0    0    0    0  0.00000000000E+00  0.00000000000E+00  0.99999998245E-14  0.12500000000E+03  0.12500000000E+03 0.  0.
        -11    1    1    0    0    0  0.85202168963E+01  0.33111839038E+01 -0.23171684876E+02  0.24909536629E+02  0.51100000000E-03 0.  1.
         11    1    1    0    0    0  0.20025161567E+02  0.60210266274E+00 -0.32054425733E+02  0.37800209427E+02  0.51100000000E-03 0. -1.
         22    1    1    0    0    0 -0.28545378463E+02 -0.39132865666E+01  0.55226110609E+02  0.62290253944E+02  0.00000000000E+00 0.  1.
</event>
<event>
 4    1  0.1964735E-002  0.9118800E+02  0.7818608E-02  0.1130116E+00
         25   -1    0    0    0    0  0.00000000000E+00  0.00000000000E+00  0.99999998245E-14  0.12500000000E+03  0.12500000000E+03 0.  0.
        -11    1    1    0    0    0 -0.21805707320E+01 -0.51306506081E+00 -0.27233812331E+01  0.35263196219E+01  0.51100000000E-03 0. -1.
         11    1    1    0    0    0 -0.41759886436E+02 -0.78993455626E+01 -0.40902551157E+02  0.58985646279E+02  0.51100000000E-03 0.  1.
         22    1    1    0    0    0  0.43940457168E+02  0.84124106234E+01  0.43625932390E+02  0.62488034099E+02  0.00000000000E+00 0.  1.
</event>
<event>
 4    1  0.1964735E-002  0.9118800E+02  0.7818608E-02  0.1130116E+00
         25   -1    0    0    0    0  0.00000000000E+00  0.00000000000E+00  0.99999998245E-14  0.12500000000E+03  0.12500000000E+03 0.  0.
        -11    1    1    0    0    0 -0.33677773997E+02 -0.14941226027E+00  0.32475491799E+01  0.33834322239E+02  0.51100000000E-03 0. -1.
         11    1    1    0    0    0 -0.28532792325E+02 -0.12869171630E+00  0.27539580592E+01  0.28665677817E+02  0.51100000000E-03 0.  1.
         22    1    1    0    0    0  0.62210566322E+02  0.27810397657E+00 -0.60015072390E+01  0.62499999945E+02  0.00000000000E+00 0.  1.
</event>
<event>
 4    1  0.1964735E-002  0.9118800E+02  0.7818608E-02  0.1130116E+00
         25   -1    0    0    0    0  0.00000000000E+00  0.00000000000E+00  0.99999998245E-14  0.12500000000E+03  0.12500000000E+03 0.  0.
        -11    1    1    0    0    0 -0.57434797960E+01 -0.38210234891E+01  0.24989939345E+01  0.73370805922E+01  0.51100000000E-03 0.  1.
         11    1    1    0    0    0 -0.43945643285E+02 -0.30313003674E+02  0.13943093605E+02  0.55177056962E+02  0.51100000000E-03 0. -1.
         22    1    1    0    0    0  0.49689123081E+02  0.34134027163E+02 -0.16442087540E+02  0.62485862446E+02  0.00000000000E+00 0. -1.
</event>
<event>
 4    1  0.1964735E-002  0.9118800E+02  0.7818608E-02  0.1130116E+00
         25   -1    0    0    0    0  0.00000000000E+00  0.00000000000E+00  0.99999998245E-14  0.12500000000E+03  0.12500000000E+03 0.  0.
        -11    1    1    0    0    0 -0.24579555071E+01  0.20325423263E+01  0.32564216231E+01  0.45581855636E+01  0.51100000000E-03 0. -1.
         11    1    1    0    0    0  0.41597388947E+02  0.27151303238E+02  0.32993860338E+02  0.59633303238E+02  0.51100000000E-03 0.  1.
         22    1    1    0    0    0 -0.39139433440E+02 -0.29183845564E+02 -0.36250281961E+02  0.60808511199E+02  0.00000000000E+00 0.  1.
</event>
<event>
 4    1  0.1964735E-002  0.9118800E+02  0.7818608E-02  0.1130116E+00
         25   -1    0    0    0    0  0.00000000000E+00  0.00000000000E+00  0.99999998245E-14  0.12500000000E+03  0.12500000000E+03 0.  0.
        -11    1    1    0    0    0 -0.12285592409E+01 -0.15914149663E+02 -0.99904788385E+01  0.18830273099E+02  0.51100000000E-03 0.  1.
         11    1    1    0    0    0 -0.28551389106E+01 -0.36908498397E+02 -0.23165836550E+02  0.43669726991E+02  0.51100000000E-03 0. -1.
         22    1    1    0    0    0  0.40836981515E+01  0.52822648060E+02  0.33156315389E+02  0.62499999910E+02  0.00000000000E+00 0. -1.
</event>
<event>
 4    1  0.1964735E-002  0.9118800E+02  0.7818608E-02  0.1130116E+00
         25   -1    0    0    0    0  0.00000000000E+00  0.00000000000E+00  0.99999998245E-14  0.12500000000E+03  0.12500000000E+03 0.  0.
        -11    1    1    0    0    0 -0.17691598323E+01 -0.10168230997E+02  0.14053589631E+02  0.17436347952E+02  0.51100000000E-03 0. -1.
         11    1    1    0    0    0 -0.38379904041E+01 -0.31828253825E+02  0.31783832225E+02  0.45143990774E+02  0.51100000000E-03 0.  1.
         22    1    1    0    0    0  0.56071502364E+01  0.41996484822E+02 -0.45837421856E+02  0.62419661274E+02  0.00000000000E+00 0.  1.
</event>
<event>
 4    1  0.1964735E-002  0.9118800E+02  0.7818608E-02  0.1130116E+00
         25   -1    0    0    0    0  0.00000000000E+00  0.00000000000E+00  0.99999998245E-14  0.12500000000E+03  0.12500000000E+03 0.  0.
        -11    1    1    0    0    0  0.45263653387E+02 -0.15341537698E+02  0.20594003745E+02  0.52041080767E+02  0.51100000000E-03 0.  1.
         11    1    1    0    0    0  0.90990756800E+01 -0.30803440709E+01  0.41360974849E+01  0.10458919662E+02  0.51100000000E-03 0. -1.
         22    1    1    0    0    0 -0.54362729067E+02  0.18421881769E+02 -0.24730101230E+02  0.62499999571E+02  0.00000000000E+00 0.  1.
</event>
<event>
 4    1  0.1964735E-002  0.9118800E+02  0.7818608E-02  0.1130116E+00
         25   -1    0    0    0    0  0.00000000000E+00  0.00000000000E+00  0.99999998245E-14  0.12500000000E+03  0.12500000000E+03 0.  0.
        -11    1    1    0    0    0 -0.40251836987E+01  0.51954028225E+02  0.17447071513E+02  0.54952920371E+02  0.51100000000E-03 0.  1.
         11    1    1    0    0    0 -0.15617168201E+02 -0.43618127490E+01 -0.22878464469E+01  0.16375457083E+02  0.51100000000E-03 0. -1.
         22    1    1    0    0    0  0.19642351899E+02 -0.47592215476E+02 -0.15159225066E+02  0.53671622546E+02  0.00000000000E+00 0.  1.
</event>
<event>
 4    1  0.1964735E-002  0.9118800E+02  0.7818608E-02  0.1130116E+00
         25   -1    0    0    0    0  0.00000000000E+00  0.00000000000E+00  0.99999998245E-14  0.12500000000E+03  0.12500000000E+03 0.  0.
        -11    1    1    0    0    0  0.56807859172E+00 -0.25744820672E+02 -0.38981527365E+02  0.46719139340E+02  0.51100000000E-03 0.  1.
         11    1    1    0    0    0 -0.24186624345E+02 -0.30304142890E+01 -0.45371465481E-02  0.24375730324E+02  0.51100000000E-03 0. -1.
         22    1    1    0    0    0  0.23618545753E+02  0.28775234961E+02  0.38986064511E+02  0.53905130337E+02  0.00000000000E+00 0.  1.
</event>
<event>
 4    1  0.1964735E-002  0.9118800E+02  0.7818608E-02  0.1130116E+00
         25   -1    0    0    0    0  0.00000000000E+00  0.00000000000E+00  0.99999998245E-14  0.12500000000E+03  0.12500000000E+03 0.  0.
        -11    1    1    0    0    0 -0.19859343611E+02  0.11121113424E+02 -0.14789989465E+02  0.27144363708E+02  0.51100000000E-03 0. -1.
         11    1    1    0    0    0 -0.25866726946E+02  0.14485602245E+02 -0.19263976287E+02  0.35355636297E+02  0.51100000000E-03 0. -1.
         22    1    1    0    0    0  0.45726070557E+02 -0.25606715670E+02  0.34053965753E+02  0.62499999995E+02  0.00000000000E+00 0. -1.
</event>
<event>
 4    1  0.1964735E-002  0.9118800E+02  0.7818608E-02  0.1130116E+00
         25   -1    0    0    0    0  0.00000000000E+00  0.00000000000E+00  0.99999998245E-14  0.12500000000E+03  0.12500000000E+03 0.  0.
        -11    1    1    0    0    0  0.30753884635E+02  0.18604579109E+02 -0.29085742840E+02  0.46237562876E+02  0.51100000000E-03 0.  1.
         11    1    1    0    0    0  0.10087544584E+02  0.75498499279E+01 -0.10309307328E+02  0.16280067798E+02  0.51100000000E-03 0. -1.
         22    1    1    0    0    0 -0.40841429219E+02 -0.26154429037E+02  0.39395050167E+02  0.62482369326E+02  0.00000000000E+00 0.  1.
</event>
<event>
 4    1  0.1964735E-002  0.9118800E+02  0.7818608E-02  0.1130116E+00
         25   -1    0    0    0    0  0.00000000000E+00  0.00000000000E+00  0.99999998245E-14  0.12500000000E+03  0.12500000000E+03 0.  0.
        -11    1    1    0    0    0  0.86991724543E+00  0.30510145521E+01 -0.85814199238E+01  0.91491100103E+01  0.51100000000E-03 0. -1.
         11    1    1    0    0    0  0.10086273661E+02 -0.26274351109E+02  0.55577561831E+02  0.62297189518E+02  0.51100000000E-03 0.  1.
         22    1    1    0    0    0 -0.10956190906E+02  0.23223336557E+02 -0.46996141907E+02  0.53553700471E+02  0.00000000000E+00 0.  1.
</event>
<event>
 4    1  0.1964735E-002  0.9118800E+02  0.7818608E-02  0.1130116E+00
         25   -1    0    0    0    0  0.00000000000E+00  0.00000000000E+00  0.99999998245E-14  0.12500000000E+03  0.12500000000E+03 0.  0.
        -11    1    1    0    0    0  0.10721496001E+02 -0.64366688998E+01 -0.11573320488E+02  0.17038865291E+02  0.51100000000E-03 0. -1.
         11    1    1    0    0    0  0.28628852782E+02 -0.17167389854E+02 -0.30860725916E+02  0.45461136043E+02  0.51100000000E-03 0.  1.
         22    1    1    0    0    0 -0.39350348783E+02  0.23604058754E+02  0.42434046404E+02  0.62499998666E+02  0.00000000000E+00 0.  1.
</event>
<event>
 4    1  0.1964735E-002  0.9118800E+02  0.7818608E-02  0.1130116E+00
         25   -1    0    0    0    0  0.00000000000E+00  0.00000000000E+00  0.99999998245E-14  0.12500000000E+03  0.12500000000E+03 0.  0.
        -11    1    1    0    0    0  0.23284471619E+01 -0.82544894165E+00  0.32243707031E+00  0.24913847689E+01  0.51100000000E-03 0. -1.
         11    1    1    0    0    0  0.55998814151E+02 -0.20056774659E+02  0.79305610707E+01  0.60008626006E+02  0.51100000000E-03 0.  1.
         22    1    1    0    0    0 -0.58327261313E+02  0.20882223600E+02 -0.82529981411E+01  0.62499989225E+02  0.00000000000E+00 0.  1.
</event>
<event>
 4    1  0.1964735E-002  0.9118800E+02  0.7818608E-02  0.1130116E+00
         25   -1    0    0    0    0  0.00000000000E+00  0.00000000000E+00  0.99999998245E-14  0.12500000000E+03  0.12500000000E+03 0.  0.
        -11    1    1    0    0    0  0.45327403964E+01  0.80433282637E+01  0.23551147905E+00  0.92356012786E+01  0.51100000000E-03 0.  1.
         11    1    1    0    0    0  0.26140074103E+02  0.46389080456E+02  0.13586435560E+01  0.53264398732E+02  0.51100000000E-03 0.  1.
         22    1    1    0    0    0 -0.30672814500E+02 -0.54432408720E+02 -0.15941550350E+01  0.62499999989E+02  0.00000000000E+00 0.  1.
</event>
<event>
 4    1  0.1964735E-002  0.9118800E+02  0.7818608E-02  0.1130116E+00
         25   -1    0    0    0    0  0.00000000000E+00  0.00000000000E+00  0.99999998245E-14  0.12500000000E+03  0.12500000000E+03 0.  0.
        -11    1    1    0    0    0 -0.15188808482E+02 -0.24489051718E+01  0.17430620356E+02  0.23249162692E+02  0.51100000000E-03 0.  1.
         11    1    1    0    0    0 -0.36639531405E+02  0.10096222742E+02  0.14179097563E+02  0.40563971492E+02  0.51100000000E-03 0. -1.
         22    1    1    0    0    0  0.51828339886E+02 -0.76473175699E+01 -0.31609717920E+02  0.61186865816E+02  0.00000000000E+00 0. -1.
</event>
<event>
 4    1  0.1964735E-002  0.9118800E+02  0.7818608E-02  0.1130116E+00
         25   -1    0    0    0    0  0.00000000000E+00  0.00000000000E+00  0.99999998245E-14  0.12500000000E+03  0.12500000000E+03 0.  0.
        -11    1    1    0    0    0  0.35364988497E+02  0.29136478913E+02  0.73508839787E+01  0.46407459642E+02  0.51100000000E-03 0. -1.
         11    1    1    0    0    0  0.90682052376E+01  0.12690000511E+02  0.49073449706E+01  0.16350856067E+02  0.51100000000E-03 0.  1.
         22    1    1    0    0    0 -0.44433193735E+02 -0.41826479424E+02 -0.12258228949E+02  0.62241684292E+02  0.00000000000E+00 0. -1.
</event>
<event>
 4    1  0.1964735E-002  0.9118800E+02  0.7818608E-02  0.1130116E+00
         25   -1    0    0    0    0  0.00000000000E+00  0.00000000000E+00  0.99999998245E-14  0.12500000000E+03  0.12500000000E+03 0.  0.
        -11    1    1    0    0    0  0.45051248844E+01  0.93171383103E+00  0.16252947501E+02  0.16891493233E+02  0.51100000000E-03 0. -1.
         11    1    1    0    0    0  0.12163021631E+02  0.25157285081E+01  0.43884711516E+02  0.45608506775E+02  0.51100000000E-03 0. -1.
         22    1    1    0    0    0 -0.16668146515E+02 -0.34474423391E+01 -0.60137659018E+02  0.62499999992E+02  0.00000000000E+00 0. -1.
</event>
<event>
 4    1  0.1964735E-002  0.9118800E+02  0.7818608E-02  0.1130116E+00
         25   -1    0    0    0    0  0.00000000000E+00  0.00000000000E+00  0.99999998245E-14  0.12500000000E+03  0.12500000000E+03 0.  0.
        -11    1    1    0    0    0 -0.11395013689E+02  0.44171379767E+02  0.16558643207E+02  0.48529844350E+02  0.51100000000E-03 0.  1.
         11    1    1    0    0    0 -0.32808000684E+01  0.12715358242E+02  0.47666827675E+01  0.13970155661E+02  0.51100000000E-03 0. -1.
         22    1    1    0    0    0  0.14675813758E+02 -0.56886738009E+02 -0.21325325974E+02  0.62499999990E+02  0.00000000000E+00 0.  1.
</event>
<event>
 4    1  0.1964735E-002  0.9118800E+02  0.7818608E-02  0.1130116E+00
         25   -1    0    0    0    0  0.00000000000E+00  0.00000000000E+00  0.99999998245E-14  0.12500000000E+03  0.12500000000E+03 0.  0.
        -11    1    1    0    0    0 -0.18576072000E+02  0.36518166388E+02 -0.43026148036E+02  0.59412930767E+02  0.51100000000E-03 0. -1.
         11    1    1    0    0    0  0.17027688002E+00  0.17909222556E+01 -0.26454156254E+01  0.31991593949E+01  0.51100000000E-03 0.  1.
         22    1    1    0    0    0  0.18405795120E+02 -0.38309088643E+02  0.45671563661E+02  0.62387909838E+02  0.00000000000E+00 0. -1.
</event>
<event>
 4    1  0.1964735E-002  0.9118800E+02  0.7818608E-02  0.1130116E+00
         25   -1    0    0    0    0  0.00000000000E+00  0.00000000000E+00  0.99999998245E-14  0.12500000000E+03  0.12500000000E+03 0.  0.
        -11    1    1    0    0    0 -0.59628376100E+01  0.35615151755E+02  0.81633994583E+01  0.37022095536E+02  0.51100000000E-03 0.  1.
         11    1    1    0    0    0 -0.41029833305E+01  0.24506892554E+02  0.56304004877E+01  0.25477905423E+02  0.51100000000E-03 0. -1.
         22    1    1    0    0    0  0.10065820941E+02 -0.60122044309E+02 -0.13793799946E+02  0.62499999040E+02  0.00000000000E+00 0.  1.
</event>
<event>
 4    1  0.1964735E-002  0.9118800E+02  0.7818608E-02  0.1130116E+00
         25   -1    0    0    0    0  0.00000000000E+00  0.00000000000E+00  0.99999998245E-14  0.12500000000E+03  0.12500000000E+03 0.  0.
        -11    1    1    0    0    0 -0.31833086931E+02 -0.37373448052E+02 -0.37289262330E+02  0.61649080514E+02  0.51100000000E-03 0. -1.
         11    1    1    0    0    0 -0.38609799578E+00 -0.53642459193E+00 -0.53769069257E+00  0.85201792655E+00  0.51100000000E-03 0.  1.
         22    1    1    0    0    0  0.32219184927E+02  0.37909872643E+02  0.37826953022E+02  0.62498901560E+02  0.00000000000E+00 0. -1.
</event>
<event>
 4    1  0.1964735E-002  0.9118800E+02  0.7818608E-02  0.1130116E+00
         25   -1    0    0    0    0  0.00000000000E+00  0.00000000000E+00  0.99999998245E-14  0.12500000000E+03  0.12500000000E+03 0.  0.
        -11    1    1    0    0    0 -0.17530596419E+02  0.28668833784E+02  0.35764396802E+02  0.49074595467E+02  0.51100000000E-03 0. -1.
         11    1    1    0    0    0 -0.10507960140E+02 -0.78807995289E+01  0.11302630829E+02  0.17328407066E+02  0.51100000000E-03 0.  1.
         22    1    1    0    0    0  0.28038556559E+02 -0.20788034255E+02 -0.47067027631E+02  0.58596997467E+02  0.00000000000E+00 0. -1.
</event>
<event>
 4    1  0.1964735E-002  0.9118800E+02  0.7818608E-02  0.1130116E+00
         25   -1    0    0    0    0  0.00000000000E+00  0.00000000000E+00  0.99999998245E-14  0.12500000000E+03  0.12500000000E+03 0.  0.
        -11    1    1    0    0    0 -0.10674045505E+02  0.56427372827E+01  0.55723343111E+01  0.13297617885E+02  0.51100000000E-03 0.  1.
         11    1    1    0    0    0 -0.45121185846E+02  0.15065893250E+02  0.13076681522E+02  0.49334593861E+02  0.51100000000E-03 0. -1.
         22    1    1    0    0    0  0.55795231351E+02 -0.20708630533E+02 -0.18649015833E+02  0.62367788253E+02  0.00000000000E+00 0. -1.
</event>
<event>
 4    1  0.1964735E-002  0.9118800E+02  0.7818608E-02  0.1130116E+00
         25   -1    0    0    0    0  0.00000000000E+00  0.00000000000E+00  0.99999998245E-14  0.12500000000E+03  0.12500000000E+03 0.  0.
        -11    1    1    0    0    0 -0.48673616818E+01 -0.91145280989E+01 -0.25513934251E+02  0.27526835514E+02  0.51100000000E-03 0.  1.
         11    1    1    0    0    0  0.54507289835E+01 -0.66915760550E+01 -0.34420895453E+02  0.35486415438E+02  0.51100000000E-03 0. -1.
         22    1    1    0    0    0 -0.58336730170E+00  0.15806104154E+02  0.59934829704E+02  0.61986749048E+02  0.00000000000E+00 0. -1.
</event>
<event>
 4    1  0.1964735E-002  0.9118800E+02  0.7818608E-02  0.1130116E+00
         25   -1    0    0    0    0  0.00000000000E+00  0.00000000000E+00  0.99999998245E-14  0.12500000000E+03  0.12500000000E+03 0.  0.
        -11    1    1    0    0    0  0.12026136647E+01  0.66806230321E+01  0.25385520075E+02  0.26277397768E+02  0.51100000000E-03 0. -1.
         11    1    1    0    0    0  0.15993562709E+01  0.91540270442E+01  0.35010343846E+02  0.36222621773E+02  0.51100000000E-03 0.  1.
         22    1    1    0    0    0 -0.28019699356E+01 -0.15834650076E+02 -0.60395863921E+02  0.62499980459E+02  0.00000000000E+00 0. -1.
</event>
<event>
 4    1  0.1964735E-002  0.9118800E+02  0.7818608E-02  0.1130116E+00
         25   -1    0    0    0    0  0.00000000000E+00  0.00000000000E+00  0.99999998245E-14  0.12500000000E+03  0.12500000000E+03 0.  0.
        -11    1    1    0    0    0 -0.84874368842E+01 -0.22130884144E+01  0.13472944612E+01  0.88740941972E+01  0.51100000000E-03 0. -1.
         11    1    1    0    0    0 -0.50693748307E+02 -0.14253105178E+02  0.10153726498E+02  0.53629332335E+02  0.51100000000E-03 0.  1.
         22    1    1    0    0    0  0.59181185192E+02  0.16466193592E+02 -0.11501020959E+02  0.62496573468E+02  0.00000000000E+00 0.  1.
</event>
<event>
 4    1  0.1964735E-002  0.9118800E+02  0.7818608E-02  0.1130116E+00
         25   -1    0    0    0    0  0.00000000000E+00  0.00000000000E+00  0.99999998245E-14  0.12500000000E+03  0.12500000000E+03 0.  0.
        -11    1    1    0    0    0 -0.55429865420E+01 -0.23235632300E+02  0.12134438806E+02  0.26792982544E+02  0.51100000000E-03 0.  1.
         11    1    1    0    0    0 -0.97895608795E+01 -0.24837635431E+02  0.24195387377E+02  0.36029993153E+02  0.51100000000E-03 0. -1.
         22    1    1    0    0    0  0.15332547421E+02  0.48073267731E+02 -0.36329826183E+02  0.62177024304E+02  0.00000000000E+00 0. -1.
</event>
<event>
 4    1  0.1964735E-002  0.9118800E+02  0.7818608E-02  0.1130116E+00
         25   -1    0    0    0    0  0.00000000000E+00  0.00000000000E+00  0.99999998245E-14  0.12500000000E+03  0.12500000000E+03 0.  0.
        -11    1    1    0    0    0 -0.63474184602E+01  0.62156979679E+01  0.32271309869E+02  0.33471809979E+02  0.51100000000E-03 0.  1.
         11    1    1    0    0    0 -0.54839125888E+01  0.53847642847E+01  0.27992266157E+02  0.29028192306E+02  0.51100000000E-03 0. -1.
         22    1    1    0    0    0  0.11831331049E+02 -0.11600462253E+02 -0.60263576026E+02  0.62499997715E+02  0.00000000000E+00 0.  1.
</event>
<event>
 4    1  0.1964735E-002  0.9118800E+02  0.7818608E-02  0.1130116E+00
         25   -1    0    0    0    0  0.00000000000E+00  0.00000000000E+00  0.99999998245E-14  0.12500000000E+03  0.12500000000E+03 0.  0.
        -11    1    1    0    0    0  0.52312603873E+02  0.17097996776E+02 -0.25375613571E+02  0.60604222477E+02  0.51100000000E-03 0. -1.
         11    1    1    0    0    0  0.16424354766E+01  0.52111299334E+00 -0.79052733110E+00  0.18958076825E+01  0.51100000000E-03 0.  1.
         22    1    1    0    0    0 -0.53955039350E+02 -0.17619109769E+02  0.26166140902E+02  0.62499969840E+02  0.00000000000E+00 0. -1.
</event>
<event>
 4    1  0.1964735E-002  0.9118800E+02  0.7818608E-02  0.1130116E+00
         25   -1    0    0    0    0  0.00000000000E+00  0.00000000000E+00  0.99999998245E-14  0.12500000000E+03  0.12500000000E+03 0.  0.
        -11    1    1    0    0    0 -0.44082648127E+02 -0.10182747377E+02  0.10005549144E+02  0.46336586236E+02  0.51100000000E-03 0. -1.
         11    1    1    0    0    0 -0.14990057955E+02 -0.43781828435E+01  0.42305482450E+01  0.16179241676E+02  0.51100000000E-03 0.  1.
         22    1    1    0    0    0  0.59072706082E+02  0.14560930220E+02 -0.14236097389E+02  0.62484172088E+02  0.00000000000E+00 0. -1.
</event>
<event>
 4    1  0.1964735E-002  0.9118800E+02  0.7818608E-02  0.1130116E+00
         25   -1    0    0    0    0  0.00000000000E+00  0.00000000000E+00  0.99999998245E-14  0.12500000000E+03  0.12500000000E+03 0.  0.
        -11    1    1    0    0    0  0.88572705189E+01  0.55895827648E+02 -0.16305911811E+02  0.58895479876E+02  0.51100000000E-03 0. -1.
         11    1    1    0    0    0  0.59379162427E+00  0.34127295733E+01 -0.99726894453E+00  0.36046993276E+01  0.51100000000E-03 0.  1.
         22    1    1    0    0    0 -0.94510621431E+01 -0.59308557222E+02  0.17303180756E+02  0.62499820797E+02  0.00000000000E+00 0. -1.
</event>
<event>
 4    1  0.1964735E-002  0.9118800E+02  0.7818608E-02  0.1130116E+00
         25   -1    0    0    0    0  0.00000000000E+00  0.00000000000E+00  0.99999998245E-14  0.12500000000E+03  0.12500000000E+03 0.  0.
        -11    1    1    0    0    0  0.20280081726E+01 -0.37227427767E+00  0.37546589469E+01  0.42835580251E+01  0.51100000000E-03 0.  1.
         11    1    1    0    0    0  0.27563126113E+02 -0.50633866616E+01  0.51027348676E+02  0.58216441996E+02  0.51100000000E-03 0.  1.
         22    1    1    0    0    0 -0.29591134285E+02  0.54356609393E+01 -0.54782007623E+02  0.62499999978E+02  0.00000000000E+00 0.  1.
</event>
<event>
 4    1  0.1964735E-002  0.9118800E+02  0.7818608E-02  0.1130116E+00
         25   -1    0    0    0    0  0.00000000000E+00  0.00000000000E+00  0.99999998245E-14  0.12500000000E+03  0.12500000000E+03 0.  0.
        -11    1    1    0    0    0 -0.75435699047E+01  0.19348026379E+02  0.30355850943E+01  0.20987290173E+02  0.51100000000E-03 0.  1.
         11    1    1    0    0    0 -0.14879970247E+02  0.38306564271E+02  0.58738456285E+01  0.41512750373E+02  0.51100000000E-03 0. -1.
         22    1    1    0    0    0  0.22423540152E+02 -0.57654590650E+02 -0.89094307228E+01  0.62499959454E+02  0.00000000000E+00 0. -1.
</event>
<event>
 4    1  0.1964735E-002  0.9118800E+02  0.7818608E-02  0.1130116E+00
         25   -1    0    0    0    0  0.00000000000E+00  0.00000000000E+00  0.99999998245E-14  0.12500000000E+03  0.12500000000E+03 0.  0.
        -11    1    1    0    0    0 -0.43705143203E+02 -0.38387025897E+02  0.15774959100E+02  0.60270661474E+02  0.51100000000E-03 0.  1.
         11    1    1    0    0    0 -0.10800798140E+01 -0.20182959574E+01 -0.15249591196E+01  0.27505620433E+01  0.51100000000E-03 0. -1.
         22    1    1    0    0    0  0.44785223017E+02  0.40405321855E+02 -0.14249999980E+02  0.61978776483E+02  0.00000000000E+00 0.  1.
</event>
<event>
 4    1  0.1964735E-002  0.9118800E+02  0.7818608E-02  0.1130116E+00
         25   -1    0    0    0    0  0.00000000000E+00  0.00000000000E+00  0.99999998245E-14  0.12500000000E+03  0.12500000000E+03 0.  0.
        -11    1    1    0    0    0 -0.11788520477E+01 -0.21437479531E+01  0.18266078543E+02  0.18429188073E+02  0.51100000000E-03 0.  1.
         11    1    1    0    0    0 -0.27028901445E+01 -0.51064634331E+01  0.43690467412E+02  0.44070835332E+02  0.51100000000E-03 0. -1.
         22    1    1    0    0    0  0.38817421922E+01  0.72502113862E+01 -0.61956545955E+02  0.62499976594E+02  0.00000000000E+00 0. -1.
</event>
<event>
 4    1  0.1964735E-002  0.9118800E+02  0.7818608E-02  0.1130116E+00
         25   -1    0    0    0    0  0.00000000000E+00  0.00000000000E+00  0.99999998245E-14  0.12500000000E+03  0.12500000000E+03 0.  0.
        -11    1    1    0    0    0 -0.93201829239E+01  0.10022030136E+02 -0.51072326629E+01  0.14607899353E+02  0.51100000000E-03 0.  1.
         11    1    1    0    0    0 -0.41700286354E+02 -0.21392244270E+02 -0.21699679732E+02  0.51647053136E+02  0.51100000000E-03 0. -1.
         22    1    1    0    0    0  0.51020469278E+02  0.11370214134E+02  0.26806912395E+02  0.58745047510E+02  0.00000000000E+00 0. -1.
</event>
<event>
 4    1  0.1964735E-002  0.9118800E+02  0.7818608E-02  0.1130116E+00
         25   -1    0    0    0    0  0.00000000000E+00  0.00000000000E+00  0.99999998245E-14  0.12500000000E+03  0.12500000000E+03 0.  0.
        -11    1    1    0    0    0  0.17700350827E+01  0.22645908343E+01  0.20795260240E-01  0.28743396711E+01  0.51100000000E-03 0.  1.
         11    1    1    0    0    0  0.39347729511E+02  0.43479178637E+02  0.10932205736E+02  0.59650615379E+02  0.51100000000E-03 0. -1.
         22    1    1    0    0    0 -0.41117764594E+02 -0.45743769471E+02 -0.10953000996E+02  0.62475044950E+02  0.00000000000E+00 0. -1.
</event>
<event>
 4    1  0.1964735E-002  0.9118800E+02  0.7818608E-02  0.1130116E+00
         25   -1    0    0    0    0  0.00000000000E+00  0.00000000000E+00  0.99999998245E-14  0.12500000000E+03  0.12500000000E+03 0.  0.
        -11    1    1    0    0    0 -0.27435952558E+02 -0.27949423866E+02  0.34142702932E+02  0.51957924814E+02  0.51100000000E-03 0. -1.
         11    1    1    0    0    0 -0.89491479018E+01 -0.40806031055E+01  0.47226638903E+01  0.10910642710E+02  0.51100000000E-03 0.  1.
         22    1    1    0    0    0  0.36385100460E+02  0.32030026971E+02 -0.38865366822E+02  0.62131432476E+02  0.00000000000E+00 0. -1.
</event>
<event>
 4    1  0.1964735E-002  0.9118800E+02  0.7818608E-02  0.1130116E+00
         25   -1    0    0    0    0  0.00000000000E+00  0.00000000000E+00  0.99999998245E-14  0.12500000000E+03  0.12500000000E+03 0.  0.
        -11    1    1    0    0    0 -0.49090418369E+02 -0.23430504411E+02  0.27319421318E+02  0.60870423803E+02  0.51100000000E-03 0. -1.
         11    1    1    0    0    0 -0.13127123481E+01 -0.62972295905E+00  0.73195487759E+00  0.16295775275E+01  0.51100000000E-03 0.  1.
         22    1    1    0    0    0  0.50403130717E+02  0.24060227370E+02 -0.28051376195E+02  0.62499998669E+02  0.00000000000E+00 0. -1.
</event>
<event>
 4    1  0.1964735E-002  0.9118800E+02  0.7818608E-02  0.1130116E+00
         25   -1    0    0    0    0  0.00000000000E+00  0.00000000000E+00  0.99999998245E-14  0.12500000000E+03  0.12500000000E+03 0.  0.
        -11    1    1    0    0    0 -0.19354361187E+02 -0.43304437342E+02  0.21046613589E+02  0.51892441976E+02  0.51100000000E-03 0. -1.
         11    1    1    0    0    0 -0.40053297570E+01 -0.88051544043E+01  0.43531440632E+01  0.10607698810E+02  0.51100000000E-03 0.  1.
         22    1    1    0    0    0  0.23359690944E+02  0.52109591746E+02 -0.25399757652E+02  0.62499859214E+02  0.00000000000E+00 0. -1.
</event>
<event>
 4    1  0.1964735E-002  0.9118800E+02  0.7818608E-02  0.1130116E+00
         25   -1    0    0    0    0  0.00000000000E+00  0.00000000000E+00  0.99999998245E-14  0.12500000000E+03  0.12500000000E+03 0.  0.
        -11    1    1    0    0    0 -0.11490309913E+02  0.71397734989E+01  0.14230587878E+02  0.19634490549E+02  0.51100000000E-03 0.  1.
         11    1    1    0    0    0 -0.25137652528E+02  0.15588189293E+02  0.31025141369E+02  0.42865517812E+02  0.51100000000E-03 0. -1.
         22    1    1    0    0    0  0.36627962442E+02 -0.22727962792E+02 -0.45255729246E+02  0.62499991639E+02  0.00000000000E+00 0. -1.
</event>
<event>
 4    1  0.1964735E-002  0.9118800E+02  0.7818608E-02  0.1130116E+00
         25   -1    0    0    0    0  0.00000000000E+00  0.00000000000E+00  0.99999998245E-14  0.12500000000E+03  0.12500000000E+03 0.  0.
        -11    1    1    0    0    0 -0.80589866808E+01  0.20444891134E+02 -0.14160924014E+02  0.26143309068E+02  0.51100000000E-03 0.  1.
         11    1    1    0    0    0  0.86152737814E+01  0.20061053602E+02 -0.31174333725E+02  0.38059268219E+02  0.51100000000E-03 0. -1.
         22    1    1    0    0    0 -0.55628710051E+00 -0.40505944736E+02  0.45335257739E+02  0.60797422713E+02  0.00000000000E+00 0. -1.
</event>
<event>
 4    1  0.1964735E-002  0.9118800E+02  0.7818608E-02  0.1130116E+00
         25   -1    0    0    0    0  0.00000000000E+00  0.00000000000E+00  0.99999998245E-14  0.12500000000E+03  0.12500000000E+03 0.  0.
        -11    1    1    0    0    0 -0.47609061773E+01 -0.88864222337E+00 -0.65312259305E+01  0.81309793412E+01  0.51100000000E-03 0.  1.
         11    1    1    0    0    0 -0.31851124507E+02 -0.59466884696E+01 -0.43659285403E+02  0.54369020943E+02  0.51100000000E-03 0. -1.
         22    1    1    0    0    0  0.36612030684E+02  0.68353306930E+01  0.50190511334E+02  0.62499999716E+02  0.00000000000E+00 0. -1.
</event>
<event>
 4    1  0.1964735E-002  0.9118800E+02  0.7818608E-02  0.1130116E+00
         25   -1    0    0    0    0  0.00000000000E+00  0.00000000000E+00  0.99999998245E-14  0.12500000000E+03  0.12500000000E+03 0.  0.
        -11    1    1    0    0    0 -0.49865588684E+02  0.21475281509E+02  0.18721067173E+02  0.57430331769E+02  0.51100000000E-03 0. -1.
         11    1    1    0    0    0 -0.44086231712E+01  0.18872870031E+01  0.16443267433E+01  0.50696766364E+01  0.51100000000E-03 0.  1.
         22    1    1    0    0    0  0.54274211855E+02 -0.23362568512E+02 -0.20365393917E+02  0.62499991595E+02  0.00000000000E+00 0. -1.
</event>
<event>
 4    1  0.1964735E-002  0.9118800E+02  0.7818608E-02  0.1130116E+00
         25   -1    0    0    0    0  0.00000000000E+00  0.00000000000E+00  0.99999998245E-14  0.12500000000E+03  0.12500000000E+03 0.  0.
        -11    1    1    0    0    0  0.21304660760E+01  0.18591963257E+01 -0.30672708020E+01  0.41717678641E+01  0.51100000000E-03 0.  1.
         11    1    1    0    0    0  0.32788818490E+02  0.24986396069E+02 -0.41269574644E+02  0.58331847203E+02  0.51100000000E-03 0. -1.
         22    1    1    0    0    0 -0.34919284566E+02 -0.26845592395E+02  0.44336845446E+02  0.62496384933E+02  0.00000000000E+00 0. -1.
</event>
<event>
 4    1  0.1964735E-002  0.9118800E+02  0.7818608E-02  0.1130116E+00
         25   -1    0    0    0    0  0.00000000000E+00  0.00000000000E+00  0.99999998245E-14  0.12500000000E+03  0.12500000000E+03 0.  0.
        -11    1    1    0    0    0  0.14283984111E+02 -0.27632579798E+02 -0.96962026062E+01  0.32582326706E+02  0.51100000000E-03 0. -1.
         11    1    1    0    0    0  0.13132438014E+02 -0.25380656242E+02 -0.88560264795E+01  0.29917684481E+02  0.51100000000E-03 0.  1.
         22    1    1    0    0    0 -0.27416422125E+02  0.53013236040E+02  0.18552229086E+02  0.62499988812E+02  0.00000000000E+00 0.  1.
</event>
<event>
 4    1  0.1964735E-002  0.9118800E+02  0.7818608E-02  0.1130116E+00
         25   -1    0    0    0    0  0.00000000000E+00  0.00000000000E+00  0.99999998245E-14  0.12500000000E+03  0.12500000000E+03 0.  0.
        -11    1    1    0    0    0 -0.43807330472E+02  0.33952421877E+01  0.42525007145E+02  0.61147249370E+02  0.51100000000E-03 0.  1.
         11    1    1    0    0    0  0.13607590188E+01 -0.26566026406E+01  0.90634794812E+00  0.31194021161E+01  0.51100000000E-03 0. -1.
         22    1    1    0    0    0  0.42446571453E+02 -0.73863954706E+00 -0.43431355093E+02  0.60733348514E+02  0.00000000000E+00 0.  1.
</event>
<event>
 4    1  0.1964735E-002  0.9118800E+02  0.7818608E-02  0.1130116E+00
         25   -1    0    0    0    0  0.00000000000E+00  0.00000000000E+00  0.99999998245E-14  0.12500000000E+03  0.12500000000E+03 0.  0.
        -11    1    1    0    0    0  0.74702423743E+01  0.47266277037E+02 -0.29811271247E+02  0.56379228087E+02  0.51100000000E-03 0.  1.
         11    1    1    0    0    0 -0.58855462557E+00  0.22335838450E+01 -0.64659743911E+01  0.68661574718E+01  0.51100000000E-03 0. -1.
         22    1    1    0    0    0 -0.68816877487E+01 -0.49499860882E+02  0.36277245638E+02  0.61754614441E+02  0.00000000000E+00 0.  1.
</event>
<event>
 4    1  0.1964735E-002  0.9118800E+02  0.7818608E-02  0.1130116E+00
         25   -1    0    0    0    0  0.00000000000E+00  0.00000000000E+00  0.99999998245E-14  0.12500000000E+03  0.12500000000E+03 0.  0.
        -11    1    1    0    0    0 -0.18373011214E+01 -0.30483945909E+02  0.20553813939E+01  0.30608352235E+02  0.51100000000E-03 0.  1.
         11    1    1    0    0    0 -0.18959544913E+01 -0.31761924447E+02  0.21593678621E+01  0.31891650284E+02  0.51100000000E-03 0. -1.
         22    1    1    0    0    0  0.37332556128E+01  0.62245870356E+02 -0.42147492561E+01  0.62499997481E+02  0.00000000000E+00 0.  1.
</event>
<event>
 4    1  0.1964735E-002  0.9118800E+02  0.7818608E-02  0.1130116E+00
         25   -1    0    0    0    0  0.00000000000E+00  0.00000000000E+00  0.99999998245E-14  0.12500000000E+03  0.12500000000E+03 0.  0.
        -11    1    1    0    0    0  0.19552370079E+02 -0.46393569714E+02  0.13032074510E+02  0.52004744522E+02  0.51100000000E-03 0.  1.
         11    1    1    0    0    0  0.39466176840E+01 -0.93626564094E+01  0.26296884844E+01  0.10495255498E+02  0.51100000000E-03 0. -1.
         22    1    1    0    0    0 -0.23498987763E+02  0.55756226123E+02 -0.15661762995E+02  0.62499999980E+02  0.00000000000E+00 0.  1.
</event>
<event>
 4    1  0.1964735E-002  0.9118800E+02  0.7818608E-02  0.1130116E+00
         25   -1    0    0    0    0  0.00000000000E+00  0.00000000000E+00  0.99999998245E-14  0.12500000000E+03  0.12500000000E+03 0.  0.
        -11    1    1    0    0    0  0.18370292294E+01 -0.44482760127E+00  0.22187432059E+01  0.29146817423E+01  0.51100000000E-03 0. -1.
         11    1    1    0    0    0  0.18646713480E+02 -0.17173744129E+02  0.54031423183E+02  0.59682762188E+02  0.51100000000E-03 0.  1.
         22    1    1    0    0    0 -0.20483742710E+02  0.17618571730E+02 -0.56250166389E+02  0.62402556069E+02  0.00000000000E+00 0.  1.
</event>
<event>
 4    1  0.1964735E-002  0.9118800E+02  0.7818608E-02  0.1130116E+00
         25   -1    0    0    0    0  0.00000000000E+00  0.00000000000E+00  0.99999998245E-14  0.12500000000E+03  0.12500000000E+03 0.  0.
        -11    1    1    0    0    0  0.10291549376E+02  0.17964522153E+02  0.10795734326E+02  0.23349259617E+02  0.51100000000E-03 0. -1.
         11    1    1    0    0    0  0.17251109600E+02  0.30146114584E+02  0.18066317109E+02  0.39150744834E+02  0.51100000000E-03 0.  1.
         22    1    1    0    0    0 -0.27542658975E+02 -0.48110636737E+02 -0.28862051435E+02  0.62499995549E+02  0.00000000000E+00 0. -1.
</event>
<event>
 4    1  0.1964735E-002  0.9118800E+02  0.7818608E-02  0.1130116E+00
         25   -1    0    0    0    0  0.00000000000E+00  0.00000000000E+00  0.99999998245E-14  0.12500000000E+03  0.12500000000E+03 0.  0.
        -11    1    1    0    0    0 -0.47373891283E+01 -0.12712140947E+01  0.33496162090E+02  0.33853385592E+02  0.51100000000E-03 0. -1.
         11    1    1    0    0    0 -0.40075028521E+01 -0.10740485143E+01  0.28344573711E+02  0.28646614433E+02  0.51100000000E-03 0.  1.
         22    1    1    0    0    0  0.87448919804E+01  0.23452626090E+01 -0.61840735801E+02  0.62499999975E+02  0.00000000000E+00 0. -1.
</event>
<event>
 4    1  0.1964735E-002  0.9118800E+02  0.7818608E-02  0.1130116E+00
         25   -1    0    0    0    0  0.00000000000E+00  0.00000000000E+00  0.99999998245E-14  0.12500000000E+03  0.12500000000E+03 0.  0.
        -11    1    1    0    0    0 -0.18954968065E+02 -0.17833666830E+01  0.13012543767E+00  0.19039121408E+02  0.51100000000E-03 0. -1.
         11    1    1    0    0    0 -0.43235628707E+02 -0.44209605026E+01 -0.19978294738E+00  0.43461527757E+02  0.51100000000E-03 0.  1.
         22    1    1    0    0    0  0.62190596772E+02  0.62043271856E+01  0.69657509708E-01  0.62499350836E+02  0.00000000000E+00 0.  1.
</event>
<event>
 4    1  0.1964735E-002  0.9118800E+02  0.7818608E-02  0.1130116E+00
         25   -1    0    0    0    0  0.00000000000E+00  0.00000000000E+00  0.99999998245E-14  0.12500000000E+03  0.12500000000E+03 0.  0.
        -11    1    1    0    0    0  0.75082672348E+01 -0.47030547536E+02  0.70917572596E+01  0.48151214935E+02  0.51100000000E-03 0.  1.
         11    1    1    0    0    0  0.22367473372E+01 -0.14014888044E+02  0.21136478989E+01  0.14348785079E+02  0.51100000000E-03 0. -1.
         22    1    1    0    0    0 -0.97450145720E+01  0.61045435580E+02 -0.92054051585E+01  0.62499999986E+02  0.00000000000E+00 0.  1.
</event>
<event>
 4    1  0.1964735E-002  0.9118800E+02  0.7818608E-02  0.1130116E+00
         25   -1    0    0    0    0  0.00000000000E+00  0.00000000000E+00  0.99999998245E-14  0.12500000000E+03  0.12500000000E+03 0.  0.
        -11    1    1    0    0    0 -0.49301732933E+01 -0.18902627868E+02  0.84233518617E+00  0.19553144961E+02  0.51100000000E-03 0.  1.
         11    1    1    0    0    0 -0.10825737193E+02 -0.41518837178E+02  0.18498467575E+01  0.42946855061E+02  0.51100000000E-03 0. -1.
         22    1    1    0    0    0  0.15755910486E+02  0.60421465046E+02 -0.26921819437E+01  0.62499999978E+02  0.00000000000E+00 0. -1.
</event>
<event>
 4    1  0.1964735E-002  0.9118800E+02  0.7818608E-02  0.1130116E+00
         25   -1    0    0    0    0  0.00000000000E+00  0.00000000000E+00  0.99999998245E-14  0.12500000000E+03  0.12500000000E+03 0.  0.
        -11    1    1    0    0    0 -0.20497976808E+02 -0.27298033911E+02  0.10763552425E+02  0.35793906879E+02  0.51100000000E-03 0. -1.
         11    1    1    0    0    0 -0.15508572259E+02 -0.20481300678E+02  0.73063760878E+01  0.26709223552E+02  0.51100000000E-03 0.  1.
         22    1    1    0    0    0  0.36006549067E+02  0.47779334589E+02 -0.18069928512E+02  0.62496869569E+02  0.00000000000E+00 0.  1.
</event>
<event>
 4    1  0.1964735E-002  0.9118800E+02  0.7818608E-02  0.1130116E+00
         25   -1    0    0    0    0  0.00000000000E+00  0.00000000000E+00  0.99999998245E-14  0.12500000000E+03  0.12500000000E+03 0.  0.
        -11    1    1    0    0    0  0.12376660415E+02  0.15198190884E+01  0.11412596690E+02  0.16903814260E+02  0.51100000000E-03 0. -1.
         11    1    1    0    0    0  0.33465947874E+02  0.40075968859E+01  0.30708052289E+02  0.45596216680E+02  0.51100000000E-03 0.  1.
         22    1    1    0    0    0 -0.45842608289E+02 -0.55274159743E+01 -0.42120648978E+02  0.62499969060E+02  0.00000000000E+00 0.  1.
</event>
<event>
 4    1  0.1964735E-002  0.9118800E+02  0.7818608E-02  0.1130116E+00
         25   -1    0    0    0    0  0.00000000000E+00  0.00000000000E+00  0.99999998245E-14  0.12500000000E+03  0.12500000000E+03 0.  0.
        -11    1    1    0    0    0  0.10711367592E+02  0.28524823388E+02 -0.96221631819E+01  0.31952855421E+02  0.51100000000E-03 0.  1.
         11    1    1    0    0    0  0.98059068806E+01  0.27467169066E+02 -0.90878024711E+01  0.30548147902E+02  0.51100000000E-03 0. -1.
         22    1    1    0    0    0 -0.20517274473E+02 -0.55991992454E+02  0.18709965653E+02  0.62498996676E+02  0.00000000000E+00 0. -1.
</event>
<event>
 4    1  0.1964735E-002  0.9118800E+02  0.7818608E-02  0.1130116E+00
         25   -1    0    0    0    0  0.00000000000E+00  0.00000000000E+00  0.99999998245E-14  0.12500000000E+03  0.12500000000E+03 0.  0.
        -11    1    1    0    0    0 -0.30690909796E+02  0.29908361852E+02  0.30706191560E+02  0.52719182972E+02  0.51100000000E-03 0.  1.
         11    1    1    0    0    0 -0.56935963260E+01  0.55504873789E+01  0.56955626851E+01  0.97808171350E+01  0.51100000000E-03 0. -1.
         22    1    1    0    0    0  0.36384506122E+02 -0.35458849231E+02 -0.36401754245E+02  0.62499999893E+02  0.00000000000E+00 0.  1.
</event>
<event>
 4    1  0.1964735E-002  0.9118800E+02  0.7818608E-02  0.1130116E+00
         25   -1    0    0    0    0  0.00000000000E+00  0.00000000000E+00  0.99999998245E-14  0.12500000000E+03  0.12500000000E+03 0.  0.
        -11    1    1    0    0    0  0.32904912466E+01 -0.49892263753E+01 -0.83487011635E-01  0.59771801722E+01  0.51100000000E-03 0. -1.
         11    1    1    0    0    0  0.30465506922E+02 -0.47533006457E+02 -0.27392203987E+01  0.56524659605E+02  0.51100000000E-03 0.  1.
         22    1    1    0    0    0 -0.33755998169E+02  0.52522232832E+02  0.28227074103E+01  0.62498160222E+02  0.00000000000E+00 0.  1.
</event>
<event>
 4    1  0.1964735E-002  0.9118800E+02  0.7818608E-02  0.1130116E+00
         25   -1    0    0    0    0  0.00000000000E+00  0.00000000000E+00  0.99999998245E-14  0.12500000000E+03  0.12500000000E+03 0.  0.
        -11    1    1    0    0    0 -0.61803165427E+00 -0.40327475275E+01  0.27848377677E+01  0.49396697662E+01  0.51100000000E-03 0.  1.
         11    1    1    0    0    0 -0.22825060422E+02 -0.42385146594E+02 -0.34431074361E+02  0.59186002712E+02  0.51100000000E-03 0. -1.
         22    1    1    0    0    0  0.23443092076E+02  0.46417894121E+02  0.31646236593E+02  0.60874327522E+02  0.00000000000E+00 0. -1.
</event>
<event>
 4    1  0.1964735E-002  0.9118800E+02  0.7818608E-02  0.1130116E+00
         25   -1    0    0    0    0  0.00000000000E+00  0.00000000000E+00  0.99999998245E-14  0.12500000000E+03  0.12500000000E+03 0.  0.
        -11    1    1    0    0    0 -0.16849231934E+02 -0.85677001594E+01 -0.20125202595E+01  0.19009269866E+02  0.51100000000E-03 0. -1.
         11    1    1    0    0    0 -0.39397956586E+02 -0.52561659047E+00  0.22582144704E+02  0.45413968288E+02  0.51100000000E-03 0.  1.
         22    1    1    0    0    0  0.56247188520E+02  0.90933167499E+01 -0.20569624444E+02  0.60576761846E+02  0.00000000000E+00 0.  1.
</event>
<event>
 4    1  0.1964735E-002  0.9118800E+02  0.7818608E-02  0.1130116E+00
         25   -1    0    0    0    0  0.00000000000E+00  0.00000000000E+00  0.99999998245E-14  0.12500000000E+03  0.12500000000E+03 0.  0.
        -11    1    1    0    0    0  0.19840357052E+02 -0.36323856028E+01  0.33767324290E+02  0.39332762211E+02  0.51100000000E-03 0.  1.
         11    1    1    0    0    0  0.11744166679E+02 -0.21093888908E+01  0.19858186791E+02  0.23167273370E+02  0.51100000000E-03 0. -1.
         22    1    1    0    0    0 -0.31584523731E+02  0.57417744936E+01 -0.53625511082E+02  0.62499964420E+02  0.00000000000E+00 0.  1.
</event>
<event>
 4    1  0.1964735E-002  0.9118800E+02  0.7818608E-02  0.1130116E+00
         25   -1    0    0    0    0  0.00000000000E+00  0.00000000000E+00  0.99999998245E-14  0.12500000000E+03  0.12500000000E+03 0.  0.
        -11    1    1    0    0    0  0.38364630311E+02  0.68146869209E+01 -0.30059947475E+02  0.49212653446E+02  0.51100000000E-03 0. -1.
         11    1    1    0    0    0  0.10358596180E+02  0.18398818834E+01 -0.81159040306E+01  0.13287346562E+02  0.51100000000E-03 0. -1.
         22    1    1    0    0    0 -0.48723226491E+02 -0.86545688044E+01  0.38175851505E+02  0.62499999992E+02  0.00000000000E+00 0. -1.
</event>
<event>
 4    1  0.1964735E-002  0.9118800E+02  0.7818608E-02  0.1130116E+00
         25   -1    0    0    0    0  0.00000000000E+00  0.00000000000E+00  0.99999998245E-14  0.12500000000E+03  0.12500000000E+03 0.  0.
        -11    1    1    0    0    0 -0.16731216300E+01  0.31137663671E+01 -0.22165856298E+01  0.41723050095E+01  0.51100000000E-03 0.  1.
         11    1    1    0    0    0 -0.27314582079E+02  0.42038273757E+02 -0.29823661255E+02  0.58333126314E+02  0.51100000000E-03 0. -1.
         22    1    1    0    0    0  0.28987703709E+02 -0.45152040124E+02  0.32040246885E+02  0.62494568677E+02  0.00000000000E+00 0. -1.
</event>
<event>
 4    1  0.1964735E-002  0.9118800E+02  0.7818608E-02  0.1130116E+00
         25   -1    0    0    0    0  0.00000000000E+00  0.00000000000E+00  0.99999998245E-14  0.12500000000E+03  0.12500000000E+03 0.  0.
        -11    1    1    0    0    0 -0.18410346608E+02 -0.20110207865E+02  0.20660588753E+02  0.34208496759E+02  0.51100000000E-03 0.  1.
         11    1    1    0    0    0 -0.15198813891E+02 -0.16651431613E+02  0.17091967444E+02  0.28291508794E+02  0.51100000000E-03 0. -1.
         22    1    1    0    0    0  0.33609160499E+02  0.36761639478E+02 -0.37752556197E+02  0.62499994448E+02  0.00000000000E+00 0.  1.
</event>
<event>
 4    1  0.1964735E-002  0.9118800E+02  0.7818608E-02  0.1130116E+00
         25   -1    0    0    0    0  0.00000000000E+00  0.00000000000E+00  0.99999998245E-14  0.12500000000E+03  0.12500000000E+03 0.  0.
        -11    1    1    0    0    0  0.97428701581E+01 -0.24914648579E+02 -0.23082148731E+02  0.35333395295E+02  0.51100000000E-03 0.  1.
         11    1    1    0    0    0  0.74861533623E+01 -0.19160271384E+02 -0.17744462039E+02  0.27166604959E+02  0.51100000000E-03 0. -1.
         22    1    1    0    0    0 -0.17229023520E+02  0.44074919964E+02  0.40826610770E+02  0.62499999746E+02  0.00000000000E+00 0.  1.
</event>
<event>
 4    1  0.1964735E-002  0.9118800E+02  0.7818608E-02  0.1130116E+00
         25   -1    0    0    0    0  0.00000000000E+00  0.00000000000E+00  0.99999998245E-14  0.12500000000E+03  0.12500000000E+03 0.  0.
        -11    1    1    0    0    0 -0.64280050735E+01 -0.44385886936E+02  0.21216271890E+02  0.49614074631E+02  0.51100000000E-03 0. -1.
         11    1    1    0    0    0 -0.16687984155E+01 -0.11528035738E+02  0.55105876821E+01  0.12885925384E+02  0.51100000000E-03 0.  1.
         22    1    1    0    0    0  0.80968034890E+01  0.55913922674E+02 -0.26726859572E+02  0.62499999985E+02  0.00000000000E+00 0. -1.
</event>
<event>
 4    1  0.1964735E-002  0.9118800E+02  0.7818608E-02  0.1130116E+00
         25   -1    0    0    0    0  0.00000000000E+00  0.00000000000E+00  0.99999998245E-14  0.12500000000E+03  0.12500000000E+03 0.  0.
        -11    1    1    0    0    0 -0.49271944773E+02 -0.20329909142E+02  0.33523546699E+01  0.53406629078E+02  0.51100000000E-03 0. -1.
         11    1    1    0    0    0 -0.84082123144E+01 -0.34118372317E+01  0.59342354456E+00  0.90934492567E+01  0.51100000000E-03 0.  1.
         22    1    1    0    0    0  0.57680157087E+02  0.23741746373E+02 -0.39457782145E+01  0.62499921665E+02  0.00000000000E+00 0. -1.
</event>
<event>
 4    1  0.1964735E-002  0.9118800E+02  0.7818608E-02  0.1130116E+00
         25   -1    0    0    0    0  0.00000000000E+00  0.00000000000E+00  0.99999998245E-14  0.12500000000E+03  0.12500000000E+03 0.  0.
        -11    1    1    0    0    0  0.47226950413E+01 -0.13846149499E+02  0.79110937190E+01  0.16631449381E+02  0.51100000000E-03 0.  1.
         11    1    1    0    0    0  0.13030059923E+02 -0.38186916148E+02  0.21815153324E+02  0.45868550678E+02  0.51100000000E-03 0.  1.
         22    1    1    0    0    0 -0.17752754964E+02  0.52033065647E+02 -0.29726247043E+02  0.62499999942E+02  0.00000000000E+00 0.  1.
</event>
<event>
 4    1  0.1964735E-002  0.9118800E+02  0.7818608E-02  0.1130116E+00
         25   -1    0    0    0    0  0.00000000000E+00  0.00000000000E+00  0.99999998245E-14  0.12500000000E+03  0.12500000000E+03 0.  0.
        -11    1    1    0    0    0  0.39784006743E+00  0.69908354343E+01 -0.13889205899E+02  0.15554423729E+02  0.51100000000E-03 0. -1.
         11    1    1    0    0    0  0.11921469938E+01  0.21092919363E+02 -0.41923199853E+02  0.46945576446E+02  0.51100000000E-03 0.  1.
         22    1    1    0    0    0 -0.15899870613E+01 -0.28083754797E+02  0.55812405751E+02  0.62499999825E+02  0.00000000000E+00 0.  1.
</event>
<event>
 4    1  0.1964735E-002  0.9118800E+02  0.7818608E-02  0.1130116E+00
         25   -1    0    0    0    0  0.00000000000E+00  0.00000000000E+00  0.99999998245E-14  0.12500000000E+03  0.12500000000E+03 0.  0.
        -11    1    1    0    0    0 -0.21054855378E+01  0.13355817776E+02  0.12419969548E+02  0.18359373129E+02  0.51100000000E-03 0.  1.
         11    1    1    0    0    0 -0.50574151103E+01  0.32116050282E+02  0.29855934389E+02  0.44140626998E+02  0.51100000000E-03 0. -1.
         22    1    1    0    0    0  0.71629006481E+01 -0.45471868058E+02 -0.42275903937E+02  0.62499999873E+02  0.00000000000E+00 0. -1.
</event>
<event>
 4    1  0.1964735E-002  0.9118800E+02  0.7818608E-02  0.1130116E+00
         25   -1    0    0    0    0  0.00000000000E+00  0.00000000000E+00  0.99999998245E-14  0.12500000000E+03  0.12500000000E+03 0.  0.
        -11    1    1    0    0    0 -0.18149838938E+02  0.21627720977E+02  0.25183685260E+02  0.37833754396E+02  0.51100000000E-03 0. -1.
         11    1    1    0    0    0 -0.74026717923E+01 -0.28746144633E+01  0.25876924466E+02  0.27068028707E+02  0.51100000000E-03 0.  1.
         22    1    1    0    0    0  0.25552510730E+02 -0.18753106514E+02 -0.51060609727E+02  0.60098216897E+02  0.00000000000E+00 0.  1.
</event>
<event>
 4    1  0.1964735E-002  0.9118800E+02  0.7818608E-02  0.1130116E+00
         25   -1    0    0    0    0  0.00000000000E+00  0.00000000000E+00  0.99999998245E-14  0.12500000000E+03  0.12500000000E+03 0.  0.
        -11    1    1    0    0    0 -0.89211413719E+01 -0.10873601775E+02 -0.78461956548E+01  0.16105426584E+02  0.51100000000E-03 0. -1.
         11    1    1    0    0    0 -0.25660789041E+02 -0.31345551754E+02 -0.22614973032E+02  0.46394576348E+02  0.51100000000E-03 0.  1.
         22    1    1    0    0    0  0.34581930413E+02  0.42219153529E+02  0.30461168687E+02  0.62499997068E+02  0.00000000000E+00 0.  1.
</event>
<event>
 4    1  0.1964735E-002  0.9118800E+02  0.7818608E-02  0.1130116E+00
         25   -1    0    0    0    0  0.00000000000E+00  0.00000000000E+00  0.99999998245E-14  0.12500000000E+03  0.12500000000E+03 0.  0.
        -11    1    1    0    0    0  0.13470800423E+02  0.29415582209E+01  0.21512514117E+02  0.25551976297E+02  0.51100000000E-03 0.  1.
         11    1    1    0    0    0  0.19478432845E+02  0.42545245070E+01  0.31107010962E+02  0.36948023710E+02  0.51100000000E-03 0. -1.
         22    1    1    0    0    0 -0.32949233268E+02 -0.71960827278E+01 -0.52619525079E+02  0.62499999992E+02  0.00000000000E+00 0. -1.
</event>
<event>
 4    1  0.1964735E-002  0.9118800E+02  0.7818608E-02  0.1130116E+00
         25   -1    0    0    0    0  0.00000000000E+00  0.00000000000E+00  0.99999998245E-14  0.12500000000E+03  0.12500000000E+03 0.  0.
        -11    1    1    0    0    0  0.85107299038E+01 -0.18583879930E+02 -0.73116111890E+01  0.21708357266E+02  0.51100000000E-03 0. -1.
         11    1    1    0    0    0  0.15988339152E+02 -0.34921648780E+02 -0.13740799765E+02  0.40791642781E+02  0.51100000000E-03 0.  1.
         22    1    1    0    0    0 -0.24499069056E+02  0.53505528710E+02  0.21052410954E+02  0.62499999953E+02  0.00000000000E+00 0.  1.
</event>
<event>
 4    1  0.1964735E-002  0.9118800E+02  0.7818608E-02  0.1130116E+00
         25   -1    0    0    0    0  0.00000000000E+00  0.00000000000E+00  0.99999998245E-14  0.12500000000E+03  0.12500000000E+03 0.  0.
        -11    1    1    0    0    0  0.12651351327E+00 -0.32322667510E+01  0.63692428539E+00  0.32968510468E+01  0.51100000000E-03 0. -1.
         11    1    1    0    0    0  0.21861359376E+01 -0.57989405256E+02  0.11724546001E+02  0.59203169606E+02  0.51100000000E-03 0.  1.
         22    1    1    0    0    0 -0.23126494509E+01  0.61221672006E+02 -0.12361470286E+02  0.62499979347E+02  0.00000000000E+00 0.  1.
</event>
<event>
 4    1  0.1964735E-002  0.9118800E+02  0.7818608E-02  0.1130116E+00
         25   -1    0    0    0    0  0.00000000000E+00  0.00000000000E+00  0.99999998245E-14  0.12500000000E+03  0.12500000000E+03 0.  0.
        -11    1    1    0    0    0 -0.11427359584E+01 -0.23990421443E+01  0.76871783403E+00  0.27662566856E+01  0.51100000000E-03 0.  1.
         11    1    1    0    0    0 -0.25684552220E+02 -0.51857133319E+02  0.14810637578E+02  0.59734525063E+02  0.51100000000E-03 0. -1.
         22    1    1    0    0    0  0.26827288179E+02  0.54256175463E+02 -0.15579355412E+02  0.62499218251E+02  0.00000000000E+00 0. -1.
</event>
<event>
 4    1  0.1964735E-002  0.9118800E+02  0.7818608E-02  0.1130116E+00
         25   -1    0    0    0    0  0.00000000000E+00  0.00000000000E+00  0.99999998245E-14  0.12500000000E+03  0.12500000000E+03 0.  0.
        -11    1    1    0    0    0  0.51641516885E+02  0.12619078165E+02  0.56128560428E+00  0.53163920489E+02  0.51100000000E-03 0.  1.
         11    1    1    0    0    0  0.92423272919E+01  0.14219771290E+01  0.45420309843E-01  0.93511868761E+01  0.51100000000E-03 0. -1.
         22    1    1    0    0    0 -0.60883844177E+02 -0.14041055294E+02 -0.60670591412E+00  0.62484892635E+02  0.00000000000E+00 0.  1.
</event>
<event>
 4    1  0.1964735E-002  0.9118800E+02  0.7818608E-02  0.1130116E+00
         25   -1    0    0    0    0  0.00000000000E+00  0.00000000000E+00  0.99999998245E-14  0.12500000000E+03  0.12500000000E+03 0.  0.
        -11    1    1    0    0    0 -0.27163517830E+02  0.28310703786E+02  0.79947564869E+01  0.40040838919E+02  0.51100000000E-03 0.  1.
         11    1    1    0    0    0 -0.15443043888E+02  0.15749707971E+02  0.42323123915E+01  0.22460039496E+02  0.51100000000E-03 0. -1.
         22    1    1    0    0    0  0.42606561718E+02 -0.44060411757E+02 -0.12227068878E+02  0.62499121586E+02  0.00000000000E+00 0.  1.
</event>
<event>
 4    1  0.1964735E-002  0.9118800E+02  0.7818608E-02  0.1130116E+00
         25   -1    0    0    0    0  0.00000000000E+00  0.00000000000E+00  0.99999998245E-14  0.12500000000E+03  0.12500000000E+03 0.  0.
        -11    1    1    0    0    0  0.22367349237E+01  0.22317578965E+01  0.98622175306E+00  0.33100392800E+01  0.51100000000E-03 0.  1.
         11    1    1    0    0    0  0.39636707954E+02  0.40066813395E+02  0.18084323020E+02  0.59190040483E+02  0.51100000000E-03 0. -1.
         22    1    1    0    0    0 -0.41873442877E+02 -0.42298571291E+02 -0.19070544773E+02  0.62499920237E+02  0.00000000000E+00 0. -1.
</event>
<event>
 4    1  0.1964735E-002  0.9118800E+02  0.7818608E-02  0.1130116E+00
         25   -1    0    0    0    0  0.00000000000E+00  0.00000000000E+00  0.99999998245E-14  0.12500000000E+03  0.12500000000E+03 0.  0.
        -11    1    1    0    0    0  0.76425270970E+01  0.10907022421E+00  0.59535661644E+02  0.60024287787E+02  0.51100000000E-03 0. -1.
         11    1    1    0    0    0  0.30718229394E+00 -0.22070565082E-02  0.24565907493E+01  0.24757229658E+01  0.51100000000E-03 0.  1.
         22    1    1    0    0    0 -0.79497093909E+01 -0.10686316770E+00 -0.61992252393E+02  0.62499989247E+02  0.00000000000E+00 0. -1.
</event>
<event>
 4    1  0.1964735E-002  0.9118800E+02  0.7818608E-02  0.1130116E+00
         25   -1    0    0    0    0  0.00000000000E+00  0.00000000000E+00  0.99999998245E-14  0.12500000000E+03  0.12500000000E+03 0.  0.
        -11    1    1    0    0    0 -0.35264820207E+02  0.26355572892E+02 -0.11689779190E+02  0.45550792578E+02  0.51100000000E-03 0. -1.
         11    1    1    0    0    0 -0.13170874380E+02  0.97411570545E+01 -0.43492532687E+01  0.16949279541E+02  0.51100000000E-03 0.  1.
         22    1    1    0    0    0  0.48435694587E+02 -0.36096729947E+02  0.16039032459E+02  0.62499927881E+02  0.00000000000E+00 0. -1.
</event>
<event>
 4    1  0.1964735E-002  0.9118800E+02  0.7818608E-02  0.1130116E+00
         25   -1    0    0    0    0  0.00000000000E+00  0.00000000000E+00  0.99999998245E-14  0.12500000000E+03  0.12500000000E+03 0.  0.
        -11    1    1    0    0    0 -0.13642832997E+02  0.33344101572E+01  0.11259386105E+02  0.18000526631E+02  0.51100000000E-03 0. -1.
         11    1    1    0    0    0 -0.33741694786E+02  0.82426362697E+01  0.27816545250E+02  0.44499474262E+02  0.51100000000E-03 0.  1.
         22    1    1    0    0    0  0.47384527783E+02 -0.11577046427E+02 -0.39075931355E+02  0.62499999107E+02  0.00000000000E+00 0.  1.
</event>
<event>
 4    1  0.1964735E-002  0.9118800E+02  0.7818608E-02  0.1130116E+00
         25   -1    0    0    0    0  0.00000000000E+00  0.00000000000E+00  0.99999998245E-14  0.12500000000E+03  0.12500000000E+03 0.  0.
        -11    1    1    0    0    0 -0.42199124681E+02 -0.53824802249E-01  0.18937675981E+02  0.46253698152E+02  0.51100000000E-03 0. -1.
         11    1    1    0    0    0 -0.14822061530E+02 -0.18909711668E-01  0.66519514486E+01  0.16246301854E+02  0.51100000000E-03 0. -1.
         22    1    1    0    0    0  0.57021186211E+02  0.72734513917E-01 -0.25589627430E+02  0.62499999994E+02  0.00000000000E+00 0. -1.
</event>
<event>
 4    1  0.1964735E-002  0.9118800E+02  0.7818608E-02  0.1130116E+00
         25   -1    0    0    0    0  0.00000000000E+00  0.00000000000E+00  0.99999998245E-14  0.12500000000E+03  0.12500000000E+03 0.  0.
        -11    1    1    0    0    0 -0.12231156255E+02  0.16454213410E+01 -0.41872105024E+01  0.13032318550E+02  0.51100000000E-03 0. -1.
         11    1    1    0    0    0 -0.47062761104E+02  0.11910675367E+01 -0.15279895600E+02  0.49495427409E+02  0.51100000000E-03 0.  1.
         22    1    1    0    0    0  0.59293917359E+02 -0.28364888776E+01  0.19467106102E+02  0.62472254041E+02  0.00000000000E+00 0.  1.
</event>
<event>
 4    1  0.1964735E-002  0.9118800E+02  0.7818608E-02  0.1130116E+00
         25   -1    0    0    0    0  0.00000000000E+00  0.00000000000E+00  0.99999998245E-14  0.12500000000E+03  0.12500000000E+03 0.  0.
        -11    1    1    0    0    0  0.23727433144E+01 -0.12838235931E+02  0.19519738054E+02  0.23483406622E+02  0.51100000000E-03 0. -1.
         11    1    1    0    0    0 -0.36016848061E+01 -0.18717272034E+02  0.34228471836E+02  0.39177757597E+02  0.51100000000E-03 0.  1.
         22    1    1    0    0    0  0.12289414917E+01  0.31555507965E+02 -0.53748209890E+02  0.62338835780E+02  0.00000000000E+00 0.  1.
</event>
<event>
 4    1  0.1964735E-002  0.9118800E+02  0.7818608E-02  0.1130116E+00
         25   -1    0    0    0    0  0.00000000000E+00  0.00000000000E+00  0.99999998245E-14  0.12500000000E+03  0.12500000000E+03 0.  0.
        -11    1    1    0    0    0  0.36273796059E+00  0.34618601178E+01 -0.18188653671E+01  0.39273815435E+01  0.51100000000E-03 0. -1.
         11    1    1    0    0    0  0.54760293115E+01  0.51776003015E+02 -0.26833072154E+02  0.58572648453E+02  0.51100000000E-03 0.  1.
         22    1    1    0    0    0 -0.58387672721E+01 -0.55237863133E+02  0.28651937522E+02  0.62499970004E+02  0.00000000000E+00 0.  1.
</event>
<event>
 4    1  0.1964735E-002  0.9118800E+02  0.7818608E-02  0.1130116E+00
         25   -1    0    0    0    0  0.00000000000E+00  0.00000000000E+00  0.99999998245E-14  0.12500000000E+03  0.12500000000E+03 0.  0.
        -11    1    1    0    0    0 -0.16463174840E+02 -0.10851217412E+02  0.97815676982E+01  0.22010545474E+02  0.51100000000E-03 0.  1.
         11    1    1    0    0    0 -0.32004460553E+02 -0.15122209301E+02  0.19790021542E+02  0.40553811933E+02  0.51100000000E-03 0. -1.
         22    1    1    0    0    0  0.48467635394E+02  0.25973426713E+02 -0.29571589240E+02  0.62435642593E+02  0.00000000000E+00 0. -1.
</event>
<event>
 4    1  0.1964735E-002  0.9118800E+02  0.7818608E-02  0.1130116E+00
         25   -1    0    0    0    0  0.00000000000E+00  0.00000000000E+00  0.99999998245E-14  0.12500000000E+03  0.12500000000E+03 0.  0.
        -11    1    1    0    0    0  0.79699470563E+01  0.27474377595E+01 -0.17539711138E+02  0.19460471150E+02  0.51100000000E-03 0.  1.
         11    1    1    0    0    0  0.19885623514E+02  0.17482747519E+01 -0.38179539319E+02  0.43083311271E+02  0.51100000000E-03 0. -1.
         22    1    1    0    0    0 -0.27855570570E+02 -0.44957125114E+01  0.55719250457E+02  0.62456217579E+02  0.00000000000E+00 0. -1.
</event>
<event>
 4    1  0.1964735E-002  0.9118800E+02  0.7818608E-02  0.1130116E+00
         25   -1    0    0    0    0  0.00000000000E+00  0.00000000000E+00  0.99999998245E-14  0.12500000000E+03  0.12500000000E+03 0.  0.
        -11    1    1    0    0    0 -0.43389345789E+02  0.25056687093E+00 -0.14694851748E+02  0.45810880585E+02  0.51100000000E-03 0.  1.
         11    1    1    0    0    0 -0.15791912364E+02  0.95546304462E-01 -0.53975815228E+01  0.16689143530E+02  0.51100000000E-03 0. -1.
         22    1    1    0    0    0  0.59181258153E+02 -0.34611317539E+00  0.20092433271E+02  0.62499975885E+02  0.00000000000E+00 0.  1.
</event>
<event>
 4    1  0.1964735E-002  0.9118800E+02  0.7818608E-02  0.1130116E+00
         25   -1    0    0    0    0  0.00000000000E+00  0.00000000000E+00  0.99999998245E-14  0.12500000000E+03  0.12500000000E+03 0.  0.
        -11    1    1    0    0    0  0.99369962253E+01  0.12605289163E+02  0.37114289259E+02  0.40436464686E+02  0.51100000000E-03 0. -1.
         11    1    1    0    0    0  0.97560626873E+01  0.24263114815E+01  0.19957478016E+02  0.22346558473E+02  0.51100000000E-03 0.  1.
         22    1    1    0    0    0 -0.19693058913E+02 -0.15031600644E+02 -0.57071767275E+02  0.62216976841E+02  0.00000000000E+00 0.  1.
</event>
<event>
 4    1  0.1964735E-002  0.9118800E+02  0.7818608E-02  0.1130116E+00
         25   -1    0    0    0    0  0.00000000000E+00  0.00000000000E+00  0.99999998245E-14  0.12500000000E+03  0.12500000000E+03 0.  0.
        -11    1    1    0    0    0 -0.31229417758E+02 -0.38740679904E+02 -0.10990204760E+02  0.50959801941E+02  0.51100000000E-03 0. -1.
         11    1    1    0    0    0 -0.78902127447E+01 -0.76214212155E+01 -0.37864501155E+01  0.11605116253E+02  0.51100000000E-03 0.  1.
         22    1    1    0    0    0  0.39119630503E+02  0.46362101119E+02  0.14776654876E+02  0.62435081806E+02  0.00000000000E+00 0. -1.
</event>
<event>
 4    1  0.1964735E-002  0.9118800E+02  0.7818608E-02  0.1130116E+00
         25   -1    0    0    0    0  0.00000000000E+00  0.00000000000E+00  0.99999998245E-14  0.12500000000E+03  0.12500000000E+03 0.  0.
        -11    1    1    0    0    0  0.32091569012E+02 -0.13688751971E+02 -0.20645819924E+02  0.40540111159E+02  0.51100000000E-03 0. -1.
         11    1    1    0    0    0  0.17383729270E+02 -0.74137656391E+01 -0.11183861325E+02  0.21959888858E+02  0.51100000000E-03 0.  1.
         22    1    1    0    0    0 -0.49475298282E+02  0.21102517610E+02  0.31829681249E+02  0.62499999983E+02  0.00000000000E+00 0. -1.
</event>
<event>
 4    1  0.1964735E-002  0.9118800E+02  0.7818608E-02  0.1130116E+00
         25   -1    0    0    0    0  0.00000000000E+00  0.00000000000E+00  0.99999998245E-14  0.12500000000E+03  0.12500000000E+03 0.  0.
        -11    1    1    0    0    0  0.89707347336E+01 -0.28252365436E+01  0.52566375560E+01  0.10774427217E+02  0.51100000000E-03 0. -1.
         11    1    1    0    0    0  0.26436368594E+02 -0.14559306161E+02  0.42600547905E+02  0.52207869736E+02  0.51100000000E-03 0.  1.
         22    1    1    0    0    0 -0.35407103328E+02  0.17384542705E+02 -0.47857185461E+02  0.62017703048E+02  0.00000000000E+00 0. -1.
</event>
<event>
 4    1  0.1964735E-002  0.9118800E+02  0.7818608E-02  0.1130116E+00
         25   -1    0    0    0    0  0.00000000000E+00  0.00000000000E+00  0.99999998245E-14  0.12500000000E+03  0.12500000000E+03 0.  0.
        -11    1    1    0    0    0  0.19609856267E+02 -0.16656579681E+02  0.28303183877E+02  0.38249945456E+02  0.51100000000E-03 0.  1.
         11    1    1    0    0    0  0.12504253744E+02 -0.10458147082E+02  0.17953850058E+02  0.24250153283E+02  0.51100000000E-03 0. -1.
         22    1    1    0    0    0 -0.32114110011E+02  0.27114726764E+02 -0.46257033935E+02  0.62499901262E+02  0.00000000000E+00 0.  1.
</event>
<event>
 4    1  0.1964735E-002  0.9118800E+02  0.7818608E-02  0.1130116E+00
         25   -1    0    0    0    0  0.00000000000E+00  0.00000000000E+00  0.99999998245E-14  0.12500000000E+03  0.12500000000E+03 0.  0.
        -11    1    1    0    0    0  0.68958505996E+01 -0.13973221011E+01 -0.16242945383E+01  0.72210523855E+01  0.51100000000E-03 0.  1.
         11    1    1    0    0    0  0.52762910954E+02 -0.11052968325E+02 -0.12234330708E+02  0.55279035170E+02  0.51100000000E-03 0. -1.
         22    1    1    0    0    0 -0.59658761554E+02  0.12450290426E+02  0.13858625246E+02  0.62499912445E+02  0.00000000000E+00 0. -1.
</event>
<event>
 4    1  0.1964735E-002  0.9118800E+02  0.7818608E-02  0.1130116E+00
         25   -1    0    0    0    0  0.00000000000E+00  0.00000000000E+00  0.99999998245E-14  0.12500000000E+03  0.12500000000E+03 0.  0.
        -11    1    1    0    0    0  0.40878972606E+02 -0.11212712572E+02  0.42370724231E+02  0.59934077091E+02  0.51100000000E-03 0.  1.
         11    1    1    0    0    0  0.17518130246E+01 -0.47804600986E+00  0.18128947139E+01  0.25659236866E+01  0.51100000000E-03 0. -1.
         22    1    1    0    0    0 -0.42630785631E+02  0.11690758582E+02 -0.44183618945E+02  0.62499999223E+02  0.00000000000E+00 0.  1.
</event>
<event>
 4    1  0.1964735E-002  0.9118800E+02  0.7818608E-02  0.1130116E+00
         25   -1    0    0    0    0  0.00000000000E+00  0.00000000000E+00  0.99999998245E-14  0.12500000000E+03  0.12500000000E+03 0.  0.
        -11    1    1    0    0    0  0.29555247350E+01 -0.45381664675E+00  0.12310212674E+01  0.32336495837E+01  0.51100000000E-03 0.  1.
         11    1    1    0    0    0  0.54156497771E+02 -0.82791292427E+01  0.22605976066E+02  0.59266351212E+02  0.51100000000E-03 0. -1.
         22    1    1    0    0    0 -0.57112022506E+02  0.87329458895E+01 -0.23836997334E+02  0.62499999204E+02  0.00000000000E+00 0. -1.
</event>
<event>
 4    1  0.1964735E-002  0.9118800E+02  0.7818608E-02  0.1130116E+00
         25   -1    0    0    0    0  0.00000000000E+00  0.00000000000E+00  0.99999998245E-14  0.12500000000E+03  0.12500000000E+03 0.  0.
        -11    1    1    0    0    0  0.25724064468E+02 -0.12799894531E+01  0.97136434102E+01  0.27526727636E+02  0.51100000000E-03 0.  1.
         11    1    1    0    0    0  0.32361856729E+02 -0.13343680162E+01  0.13200895002E+02  0.34976191017E+02  0.51100000000E-03 0. -1.
         22    1    1    0    0    0 -0.58085921197E+02  0.26143574694E+01 -0.22914538412E+02  0.62497081347E+02  0.00000000000E+00 0.  1.
</event>
<event>
 4    1  0.1964735E-002  0.9118800E+02  0.7818608E-02  0.1130116E+00
         25   -1    0    0    0    0  0.00000000000E+00  0.00000000000E+00  0.99999998245E-14  0.12500000000E+03  0.12500000000E+03 0.  0.
        -11    1    1    0    0    0  0.20283978001E+02 -0.36345305179E+02  0.22505536048E+02  0.47317228630E+02  0.51100000000E-03 0. -1.
         11    1    1    0    0    0  0.62321858504E+01 -0.11880361280E+02  0.71123034432E+01  0.15184465257E+02  0.51100000000E-03 0.  1.
         22    1    1    0    0    0 -0.26516163851E+02  0.48225666459E+02 -0.29617839492E+02  0.62498306113E+02  0.00000000000E+00 0. -1.
</event>
<event>
 4    1  0.1964735E-002  0.9118800E+02  0.7818608E-02  0.1130116E+00
         25   -1    0    0    0    0  0.00000000000E+00  0.00000000000E+00  0.99999998245E-14  0.12500000000E+03  0.12500000000E+03 0.  0.
        -11    1    1    0    0    0  0.12654594971E+01 -0.61341438159E+00 -0.77990503343E+01  0.79248250025E+01  0.51100000000E-03 0. -1.
         11    1    1    0    0    0 -0.51895895705E+02  0.17800711098E+02  0.25841204868E+02  0.60645009489E+02  0.51100000000E-03 0.  1.
         22    1    1    0    0    0  0.50630436208E+02 -0.17187296716E+02 -0.18042154534E+02  0.56430165508E+02  0.00000000000E+00 0.  1.
</event>
<event>
 4    1  0.1964735E-002  0.9118800E+02  0.7818608E-02  0.1130116E+00
         25   -1    0    0    0    0  0.00000000000E+00  0.00000000000E+00  0.99999998245E-14  0.12500000000E+03  0.12500000000E+03 0.  0.
        -11    1    1    0    0    0  0.26011614555E+01  0.39785187367E+02 -0.16953665764E+01  0.39906157956E+02  0.51100000000E-03 0.  1.
         11    1    1    0    0    0 -0.44371459212E+00  0.22105638025E+02  0.63124618032E+01  0.22993548865E+02  0.51100000000E-03 0. -1.
         22    1    1    0    0    0 -0.21574468633E+01 -0.61890825391E+02 -0.46170952268E+01  0.62100293179E+02  0.00000000000E+00 0.  1.
</event>
<event>
 4    1  0.1964735E-002  0.9118800E+02  0.7818608E-02  0.1130116E+00
         25   -1    0    0    0    0  0.00000000000E+00  0.00000000000E+00  0.99999998245E-14  0.12500000000E+03  0.12500000000E+03 0.  0.
        -11    1    1    0    0    0 -0.93605304508E+01 -0.62351112722E+01  0.76850977452E+01  0.13621926094E+02  0.51100000000E-03 0. -1.
         11    1    1    0    0    0 -0.32010524268E+02 -0.23621902424E+02  0.28406238472E+02  0.48883354247E+02  0.51100000000E-03 0.  1.
         22    1    1    0    0    0  0.41371054719E+02  0.29857013696E+02 -0.36091336217E+02  0.62494719659E+02  0.00000000000E+00 0.  1.
</event>
<event>
 4    1  0.1964735E-002  0.9118800E+02  0.7818608E-02  0.1130116E+00
         25   -1    0    0    0    0  0.00000000000E+00  0.00000000000E+00  0.99999998245E-14  0.12500000000E+03  0.12500000000E+03 0.  0.
        -11    1    1    0    0    0  0.27679610749E+02 -0.11518664594E+02  0.88626634279E+01  0.31263193831E+02  0.51100000000E-03 0. -1.
         11    1    1    0    0    0  0.27973985090E+02 -0.11073752169E+02  0.84076714298E+01  0.31238770271E+02  0.51100000000E-03 0.  1.
         22    1    1    0    0    0 -0.55653595839E+02  0.22592416763E+02 -0.17270334858E+02  0.62498035898E+02  0.00000000000E+00 0. -1.
</event>
<event>
 4    1  0.1964735E-002  0.9118800E+02  0.7818608E-02  0.1130116E+00
         25   -1    0    0    0    0  0.00000000000E+00  0.00000000000E+00  0.99999998245E-14  0.12500000000E+03  0.12500000000E+03 0.  0.
        -11    1    1    0    0    0 -0.23143497310E+02 -0.23293353268E+02  0.32584702302E+02  0.46259751389E+02  0.51100000000E-03 0. -1.
         11    1    1    0    0    0 -0.81212199713E+01 -0.81824177869E+01  0.11438510148E+02  0.16240249054E+02  0.51100000000E-03 0.  1.
         22    1    1    0    0    0  0.31264717282E+02  0.31475771055E+02 -0.44023212450E+02  0.62499999557E+02  0.00000000000E+00 0. -1.
</event>
<event>
 4    1  0.1964735E-002  0.9118800E+02  0.7818608E-02  0.1130116E+00
         25   -1    0    0    0    0  0.00000000000E+00  0.00000000000E+00  0.99999998245E-14  0.12500000000E+03  0.12500000000E+03 0.  0.
        -11    1    1    0    0    0  0.99218644001E+01  0.59730540656E+01  0.58552215417E+02  0.59686536996E+02  0.51100000000E-03 0.  1.
         11    1    1    0    0    0  0.75901776760E+00  0.35428646875E+00  0.26942707345E+01  0.28214751329E+01  0.51100000000E-03 0. -1.
         22    1    1    0    0    0 -0.10680882168E+02 -0.63273405343E+01 -0.61246486152E+02  0.62491987871E+02  0.00000000000E+00 0.  1.
</event>
<event>
 4    1  0.1964735E-002  0.9118800E+02  0.7818608E-02  0.1130116E+00
         25   -1    0    0    0    0  0.00000000000E+00  0.00000000000E+00  0.99999998245E-14  0.12500000000E+03  0.12500000000E+03 0.  0.
        -11    1    1    0    0    0 -0.30993537169E+02  0.37367860550E+02  0.31460538660E+02  0.57850858605E+02  0.51100000000E-03 0.  1.
         11    1    1    0    0    0 -0.24947381311E+01  0.30070294641E+01  0.25196468728E+01  0.46491467137E+01  0.51100000000E-03 0. -1.
         22    1    1    0    0    0  0.33488275300E+02 -0.40374890014E+02 -0.33980185533E+02  0.62499994681E+02  0.00000000000E+00 0.  1.
</event>
<event>
 4    1  0.1964735E-002  0.9118800E+02  0.7818608E-02  0.1130116E+00
         25   -1    0    0    0    0  0.00000000000E+00  0.00000000000E+00  0.99999998245E-14  0.12500000000E+03  0.12500000000E+03 0.  0.
        -11    1    1    0    0    0 -0.18493786099E+02  0.24009597765E+02  0.59758492736E+01  0.30889993265E+02  0.51100000000E-03 0. -1.
         11    1    1    0    0    0 -0.16216390406E+02  0.27130303179E+02  0.25859962959E+01  0.31712963366E+02  0.51100000000E-03 0.  1.
         22    1    1    0    0    0  0.34710176505E+02 -0.51139900944E+02 -0.85618455695E+01  0.62397043368E+02  0.00000000000E+00 0.  1.
</event>
<event>
 4    1  0.1964735E-002  0.9118800E+02  0.7818608E-02  0.1130116E+00
         25   -1    0    0    0    0  0.00000000000E+00  0.00000000000E+00  0.99999998245E-14  0.12500000000E+03  0.12500000000E+03 0.  0.
        -11    1    1    0    0    0 -0.53554466068E+01  0.25130640892E+01 -0.18556027671E+02  0.19476202470E+02  0.51100000000E-03 0. -1.
         11    1    1    0    0    0 -0.11813396663E+02  0.55490031003E+01 -0.40996334328E+02  0.43023798120E+02  0.51100000000E-03 0.  1.
         22    1    1    0    0    0  0.17168843270E+02 -0.80620671896E+01  0.59552361999E+02  0.62499999410E+02  0.00000000000E+00 0.  1.
</event>
<event>
 4    1  0.1964735E-002  0.9118800E+02  0.7818608E-02  0.1130116E+00
         25   -1    0    0    0    0  0.00000000000E+00  0.00000000000E+00  0.99999998245E-14  0.12500000000E+03  0.12500000000E+03 0.  0.
        -11    1    1    0    0    0 -0.31562795797E+02  0.10395239127E+02 -0.13712161228E+02  0.35948497060E+02  0.51100000000E-03 0.  1.
         11    1    1    0    0    0 -0.23313199320E+02  0.76748174009E+01 -0.10127893498E+02  0.26551503001E+02  0.51100000000E-03 0. -1.
         22    1    1    0    0    0  0.54875995117E+02 -0.18070056528E+02  0.23840054726E+02  0.62499999939E+02  0.00000000000E+00 0.  1.
</event>
<event>
 4    1  0.1964735E-002  0.9118800E+02  0.7818608E-02  0.1130116E+00
         25   -1    0    0    0    0  0.00000000000E+00  0.00000000000E+00  0.99999998245E-14  0.12500000000E+03  0.12500000000E+03 0.  0.
        -11    1    1    0    0    0 -0.89383241049E+01  0.22490669031E+02  0.49184299976E+01  0.24696452886E+02  0.51100000000E-03 0.  1.
         11    1    1    0    0    0 -0.19024905997E+02  0.32970585007E+02 -0.23616069222E+01  0.38139005118E+02  0.51100000000E-03 0. -1.
         22    1    1    0    0    0  0.27963230102E+02 -0.55461254038E+02 -0.25568230754E+01  0.62164541995E+02  0.00000000000E+00 0. -1.
</event>
<event>
 4    1  0.1964735E-002  0.9118800E+02  0.7818608E-02  0.1130116E+00
         25   -1    0    0    0    0  0.00000000000E+00  0.00000000000E+00  0.99999998245E-14  0.12500000000E+03  0.12500000000E+03 0.  0.
        -11    1    1    0    0    0  0.28134968550E+02  0.20605197560E+02  0.36396478991E+02  0.50406887476E+02  0.51100000000E-03 0.  1.
         11    1    1    0    0    0 -0.40756629592E+01 -0.20035352257E+02  0.96715064673E+01  0.22617789597E+02  0.51100000000E-03 0. -1.
         22    1    1    0    0    0 -0.24059305591E+02 -0.56984530319E+00 -0.46067985459E+02  0.51975322927E+02  0.00000000000E+00 0. -1.
</event>
<event>
 4    1  0.1964735E-002  0.9118800E+02  0.7818608E-02  0.1130116E+00
         25   -1    0    0    0    0  0.00000000000E+00  0.00000000000E+00  0.99999998245E-14  0.12500000000E+03  0.12500000000E+03 0.  0.
        -11    1    1    0    0    0 -0.60208569991E+01 -0.34708438053E+01 -0.24849814180E+01  0.73805561196E+01  0.51100000000E-03 0.  1.
         11    1    1    0    0    0 -0.18627525296E+02 -0.13245089563E+02 -0.51287705283E+02  0.56150207565E+02  0.51100000000E-03 0. -1.
         22    1    1    0    0    0  0.24648382295E+02  0.16715933369E+02  0.53772686701E+02  0.61469236315E+02  0.00000000000E+00 0. -1.
</event>
<event>
 4    1  0.1964735E-002  0.9118800E+02  0.7818608E-02  0.1130116E+00
         25   -1    0    0    0    0  0.00000000000E+00  0.00000000000E+00  0.99999998245E-14  0.12500000000E+03  0.12500000000E+03 0.  0.
        -11    1    1    0    0    0 -0.47452884306E+02  0.11487250289E+02  0.33424835449E+02  0.59168849686E+02  0.51100000000E-03 0. -1.
         11    1    1    0    0    0 -0.26441413301E+01  0.67617724675E+00  0.19102389442E+01  0.33313228795E+01  0.51100000000E-03 0.  1.
         22    1    1    0    0    0  0.50097025636E+02 -0.12163427536E+02 -0.35335074393E+02  0.62499827434E+02  0.00000000000E+00 0. -1.
</event>
<event>
 4    1  0.1964735E-002  0.9118800E+02  0.7818608E-02  0.1130116E+00
         25   -1    0    0    0    0  0.00000000000E+00  0.00000000000E+00  0.99999998245E-14  0.12500000000E+03  0.12500000000E+03 0.  0.
        -11    1    1    0    0    0  0.47262575888E+01  0.83796782601E+01 -0.73579490051E+01  0.12111809624E+02  0.51100000000E-03 0. -1.
         11    1    1    0    0    0  0.19675595713E+02  0.34841762977E+02 -0.30625027183E+02  0.50388191118E+02  0.51100000000E-03 0.  1.
         22    1    1    0    0    0 -0.24401853301E+02 -0.43221441237E+02  0.37982976188E+02  0.62499999258E+02  0.00000000000E+00 0.  1.
</event>
<event>
 4    1  0.1964735E-002  0.9118800E+02  0.7818608E-02  0.1130116E+00
         25   -1    0    0    0    0  0.00000000000E+00  0.00000000000E+00  0.99999998245E-14  0.12500000000E+03  0.12500000000E+03 0.  0.
        -11    1    1    0    0    0 -0.21437831976E+02  0.27692966057E+02  0.16735317870E+02  0.38814325620E+02  0.51100000000E-03 0.  1.
         11    1    1    0    0    0 -0.13069751288E+02  0.16915011278E+02  0.10201731533E+02  0.23685677778E+02  0.51100000000E-03 0. -1.
         22    1    1    0    0    0  0.34507583264E+02 -0.44607977335E+02 -0.26937049403E+02  0.62499996602E+02  0.00000000000E+00 0. -1.
</event>
<event>
 4    1  0.1964735E-002  0.9118800E+02  0.7818608E-02  0.1130116E+00
         25   -1    0    0    0    0  0.00000000000E+00  0.00000000000E+00  0.99999998245E-14  0.12500000000E+03  0.12500000000E+03 0.  0.
        -11    1    1    0    0    0  0.84726022744E+00  0.89482991209E+01 -0.59084590776E+01  0.10756383964E+02  0.51100000000E-03 0. -1.
         11    1    1    0    0    0  0.40919215373E+01  0.43039390907E+02 -0.28430069298E+02  0.51743616341E+02  0.51100000000E-03 0.  1.
         22    1    1    0    0    0 -0.49391817647E+01 -0.51987690028E+02  0.34338528375E+02  0.62499999695E+02  0.00000000000E+00 0.  1.
</event>
<event>
 4    1  0.1964735E-002  0.9118800E+02  0.7818608E-02  0.1130116E+00
         25   -1    0    0    0    0  0.00000000000E+00  0.00000000000E+00  0.99999998245E-14  0.12500000000E+03  0.12500000000E+03 0.  0.
        -11    1    1    0    0    0  0.99752055756E+01  0.63674124566E+01  0.34888324819E+00  0.11839357561E+02  0.51100000000E-03 0. -1.
         11    1    1    0    0    0  0.42680338191E+02  0.27245810829E+02  0.15988376139E+01  0.50660652955E+02  0.51100000000E-03 0.  1.
         22    1    1    0    0    0 -0.52655543767E+02 -0.33613223285E+02 -0.19477208621E+01  0.62499989485E+02  0.00000000000E+00 0.  1.
</event>
<event>
 4    1  0.1964735E-002  0.9118800E+02  0.7818608E-02  0.1130116E+00
         25   -1    0    0    0    0  0.00000000000E+00  0.00000000000E+00  0.99999998245E-14  0.12500000000E+03  0.12500000000E+03 0.  0.
        -11    1    1    0    0    0  0.11687229220E+02 -0.15542735484E+02 -0.13480702676E+02  0.23662149059E+02  0.51100000000E-03 0. -1.
         11    1    1    0    0    0  0.30272960657E+02 -0.21974634500E+02 -0.12368211851E+02  0.39399357520E+02  0.51100000000E-03 0.  1.
         22    1    1    0    0    0 -0.41960189878E+02  0.37517369984E+02  0.25848914527E+02  0.61938493421E+02  0.00000000000E+00 0.  1.
</event>
<event>
 4    1  0.1964735E-002  0.9118800E+02  0.7818608E-02  0.1130116E+00
         25   -1    0    0    0    0  0.00000000000E+00  0.00000000000E+00  0.99999998245E-14  0.12500000000E+03  0.12500000000E+03 0.  0.
        -11    1    1    0    0    0 -0.53401736682E+01  0.78793781000E+01  0.28600997496E+02  0.30143309574E+02  0.51100000000E-03 0. -1.
         11    1    1    0    0    0 -0.57346309119E+01  0.84996626956E+01  0.30689177458E+02  0.32356697467E+02  0.51100000000E-03 0.  1.
         22    1    1    0    0    0  0.11074804580E+02 -0.16379040796E+02 -0.59290174954E+02  0.62499992959E+02  0.00000000000E+00 0.  1.
</event>
<event>
 4    1  0.1964735E-002  0.9118800E+02  0.7818608E-02  0.1130116E+00
         25   -1    0    0    0    0  0.00000000000E+00  0.00000000000E+00  0.99999998245E-14  0.12500000000E+03  0.12500000000E+03 0.  0.
        -11    1    1    0    0    0 -0.61444888986E+00 -0.40480523752E+01  0.24260719452E+01  0.47592122053E+01  0.51100000000E-03 0.  1.
         11    1    1    0    0    0 -0.79748247504E+01 -0.48090285227E+02  0.30949357426E+02  0.57741978563E+02  0.51100000000E-03 0. -1.
         22    1    1    0    0    0  0.85892736403E+01  0.52138337602E+02 -0.33375429372E+02  0.62498809231E+02  0.00000000000E+00 0. -1.
</event>
<event>
 4    1  0.1964735E-002  0.9118800E+02  0.7818608E-02  0.1130116E+00
         25   -1    0    0    0    0  0.00000000000E+00  0.00000000000E+00  0.99999998245E-14  0.12500000000E+03  0.12500000000E+03 0.  0.
        -11    1    1    0    0    0 -0.39999231167E+01 -0.35340471788E+01  0.92204648175E+00  0.54165528131E+01  0.51100000000E-03 0.  1.
         11    1    1    0    0    0 -0.42149168596E+02 -0.37247140908E+02  0.97271799880E+01  0.57083447250E+02  0.51100000000E-03 0. -1.
         22    1    1    0    0    0  0.46149091713E+02  0.40781188087E+02 -0.10649226470E+02  0.62499999937E+02  0.00000000000E+00 0. -1.
</event>
<event>
 4    1  0.1964735E-002  0.9118800E+02  0.7818608E-02  0.1130116E+00
         25   -1    0    0    0    0  0.00000000000E+00  0.00000000000E+00  0.99999998245E-14  0.12500000000E+03  0.12500000000E+03 0.  0.
        -11    1    1    0    0    0  0.98404088731E+01 -0.13490976158E+02  0.15529279374E+02  0.22803477863E+02  0.51100000000E-03 0.  1.
         11    1    1    0    0    0  0.17128117019E+02 -0.23485484510E+02  0.27034672103E+02  0.39696522156E+02  0.51100000000E-03 0. -1.
         22    1    1    0    0    0 -0.26968525892E+02  0.36976460668E+02 -0.42563951477E+02  0.62499999982E+02  0.00000000000E+00 0. -1.
</event>
<event>
 4    1  0.1964735E-002  0.9118800E+02  0.7818608E-02  0.1130116E+00
         25   -1    0    0    0    0  0.00000000000E+00  0.00000000000E+00  0.99999998245E-14  0.12500000000E+03  0.12500000000E+03 0.  0.
        -11    1    1    0    0    0  0.14352743818E+02  0.79088324154E+01 -0.36538026689E+02  0.40044703519E+02  0.51100000000E-03 0. -1.
         11    1    1    0    0    0  0.80003337997E+01  0.43891670553E+01 -0.20517599414E+02  0.22455333761E+02  0.51100000000E-03 0.  1.
         22    1    1    0    0    0 -0.22353077618E+02 -0.12297999471E+02  0.57055626103E+02  0.62499962720E+02  0.00000000000E+00 0.  1.
</event>
<event>
 4    1  0.1964735E-002  0.9118800E+02  0.7818608E-02  0.1130116E+00
         25   -1    0    0    0    0  0.00000000000E+00  0.00000000000E+00  0.99999998245E-14  0.12500000000E+03  0.12500000000E+03 0.  0.
        -11    1    1    0    0    0  0.25193973399E+02 -0.17350924088E+01  0.38911203558E+02  0.46387806629E+02  0.51100000000E-03 0. -1.
         11    1    1    0    0    0  0.87679425876E+01 -0.60478301347E+00  0.13504086523E+02  0.16112198261E+02  0.51100000000E-03 0.  1.
         22    1    1    0    0    0 -0.33961915986E+02  0.23398754222E+01 -0.52415290081E+02  0.62499995110E+02  0.00000000000E+00 0. -1.
</event>
<event>
 4    1  0.1964735E-002  0.9118800E+02  0.7818608E-02  0.1130116E+00
         25   -1    0    0    0    0  0.00000000000E+00  0.00000000000E+00  0.99999998245E-14  0.12500000000E+03  0.12500000000E+03 0.  0.
        -11    1    1    0    0    0 -0.23360830458E+02  0.68639901013E+01  0.21525225215E+02  0.32498893529E+02  0.51100000000E-03 0.  1.
         11    1    1    0    0    0 -0.19813900653E+02  0.44248763662E+01  0.22158668763E+02  0.30052899886E+02  0.51100000000E-03 0. -1.
         22    1    1    0    0    0  0.43174731111E+02 -0.11288866467E+02 -0.43683893978E+02  0.62448206585E+02  0.00000000000E+00 0. -1.
</event>
<event>
 4    1  0.1964735E-002  0.9118800E+02  0.7818608E-02  0.1130116E+00
         25   -1    0    0    0    0  0.00000000000E+00  0.00000000000E+00  0.99999998245E-14  0.12500000000E+03  0.12500000000E+03 0.  0.
        -11    1    1    0    0    0  0.24928823025E+02 -0.33394776357E+02  0.10358900830E+02  0.42941403470E+02  0.51100000000E-03 0. -1.
         11    1    1    0    0    0  0.95763746520E+01 -0.14898229877E+02  0.86842225213E+01  0.19725109024E+02  0.51100000000E-03 0.  1.
         22    1    1    0    0    0 -0.34505197677E+02  0.48293006233E+02 -0.19043123351E+02  0.62333487506E+02  0.00000000000E+00 0. -1.
</event>
<event>
 4    1  0.1964735E-002  0.9118800E+02  0.7818608E-02  0.1130116E+00
         25   -1    0    0    0    0  0.00000000000E+00  0.00000000000E+00  0.99999998245E-14  0.12500000000E+03  0.12500000000E+03 0.  0.
        -11    1    1    0    0    0  0.97128242969E+01 -0.83712578964E+01 -0.56414528784E+01  0.14008672508E+02  0.51100000000E-03 0. -1.
         11    1    1    0    0    0  0.31317111380E+02 -0.30835827202E+02 -0.20515618351E+02  0.48502580354E+02  0.51100000000E-03 0.  1.
         22    1    1    0    0    0 -0.41029935677E+02  0.39207085099E+02  0.26157071229E+02  0.62488747138E+02  0.00000000000E+00 0.  1.
</event>
<event>
 4    1  0.1964735E-002  0.9118800E+02  0.7818608E-02  0.1130116E+00
         25   -1    0    0    0    0  0.00000000000E+00  0.00000000000E+00  0.99999998245E-14  0.12500000000E+03  0.12500000000E+03 0.  0.
        -11    1    1    0    0    0  0.13162015927E+02 -0.81571063964E+00  0.12778064447E+02  0.18362542809E+02  0.51100000000E-03 0. -1.
         11    1    1    0    0    0  0.31572356911E+02 -0.24150460464E+01  0.30748984989E+02  0.44137809715E+02  0.51100000000E-03 0.  1.
         22    1    1    0    0    0 -0.44734372839E+02  0.32307566860E+01 -0.43527049436E+02  0.62499647476E+02  0.00000000000E+00 0.  1.
</event>
<event>
 4    1  0.1964735E-002  0.9118800E+02  0.7818608E-02  0.1130116E+00
         25   -1    0    0    0    0  0.00000000000E+00  0.00000000000E+00  0.99999998245E-14  0.12500000000E+03  0.12500000000E+03 0.  0.
        -11    1    1    0    0    0 -0.25214024860E+01  0.15209345518E+02  0.15277451543E+02  0.21704427831E+02  0.51100000000E-03 0. -1.
         11    1    1    0    0    0 -0.47407750164E+01  0.28588823413E+02  0.28713810928E+02  0.40795572188E+02  0.51100000000E-03 0. -1.
         22    1    1    0    0    0  0.72621775025E+01 -0.43798168931E+02 -0.43991262471E+02  0.62499999980E+02  0.00000000000E+00 0. -1.
</event>
<event>
 4    1  0.1964735E-002  0.9118800E+02  0.7818608E-02  0.1130116E+00
         25   -1    0    0    0    0  0.00000000000E+00  0.00000000000E+00  0.99999998245E-14  0.12500000000E+03  0.12500000000E+03 0.  0.
        -11    1    1    0    0    0  0.34186443962E+00  0.48594487733E+01  0.11330132033E+02  0.12333004736E+02  0.51100000000E-03 0. -1.
         11    1    1    0    0    0 -0.11116738023E+00  0.23311990542E+02  0.44440932963E+02  0.50184238403E+02  0.51100000000E-03 0.  1.
         22    1    1    0    0    0 -0.23069705939E+00 -0.28171439315E+02 -0.55771064996E+02  0.62482756861E+02  0.00000000000E+00 0.  1.
</event>
<event>
 4    1  0.1964735E-002  0.9118800E+02  0.7818608E-02  0.1130116E+00
         25   -1    0    0    0    0  0.00000000000E+00  0.00000000000E+00  0.99999998245E-14  0.12500000000E+03  0.12500000000E+03 0.  0.
        -11    1    1    0    0    0  0.16633004996E+02 -0.43566869798E+02  0.29801693664E+02  0.55343201432E+02  0.51100000000E-03 0.  1.
         11    1    1    0    0    0  0.21503995915E+01 -0.56343998808E+01  0.38534511169E+01  0.71567985993E+01  0.51100000000E-03 0. -1.
         22    1    1    0    0    0 -0.18783404587E+02  0.49201269679E+02 -0.33655144781E+02  0.62499999969E+02  0.00000000000E+00 0.  1.
</event>
<event>
 4    1  0.1964735E-002  0.9118800E+02  0.7818608E-02  0.1130116E+00
         25   -1    0    0    0    0  0.00000000000E+00  0.00000000000E+00  0.99999998245E-14  0.12500000000E+03  0.12500000000E+03 0.  0.
        -11    1    1    0    0    0  0.31521697881E+02  0.16993597883E+02 -0.33036396950E+02  0.48721692602E+02  0.51100000000E-03 0.  1.
         11    1    1    0    0    0  0.82399404893E+01  0.50567408126E+01 -0.98320773070E+01  0.13789017055E+02  0.51100000000E-03 0. -1.
         22    1    1    0    0    0 -0.39761638370E+02 -0.22050338695E+02  0.42868474257E+02  0.62489290343E+02  0.00000000000E+00 0.  1.
</event>
<event>
 4    1  0.1964735E-002  0.9118800E+02  0.7818608E-02  0.1130116E+00
         25   -1    0    0    0    0  0.00000000000E+00  0.00000000000E+00  0.99999998245E-14  0.12500000000E+03  0.12500000000E+03 0.  0.
        -11    1    1    0    0    0  0.97170057156E+01 -0.25213956171E+02  0.85887971055E+01  0.28353680923E+02  0.51100000000E-03 0.  1.
         11    1    1    0    0    0  0.11650119146E+02 -0.30381173839E+02  0.10355231096E+02  0.34146329396E+02  0.51100000000E-03 0. -1.
         22    1    1    0    0    0 -0.21367124862E+02  0.55595130010E+02 -0.18944028201E+02  0.62499989681E+02  0.00000000000E+00 0. -1.
</event>
<event>
 4    1  0.1964735E-002  0.9118800E+02  0.7818608E-02  0.1130116E+00
         25   -1    0    0    0    0  0.00000000000E+00  0.00000000000E+00  0.99999998245E-14  0.12500000000E+03  0.12500000000E+03 0.  0.
        -11    1    1    0    0    0 -0.67817203401E+00  0.36672697222E+01  0.64898219348E+00  0.37854937157E+01  0.51100000000E-03 0. -1.
         11    1    1    0    0    0 -0.11893837680E+02  0.56393410723E+02  0.11216847799E+02  0.58715396809E+02  0.51100000000E-03 0.  1.
         22    1    1    0    0    0  0.12572009714E+02 -0.60060680445E+02 -0.11865829993E+02  0.62499109475E+02  0.00000000000E+00 0.  1.
</event>
<event>
 4    1  0.1964735E-002  0.9118800E+02  0.7818608E-02  0.1130116E+00
         25   -1    0    0    0    0  0.00000000000E+00  0.00000000000E+00  0.99999998245E-14  0.12500000000E+03  0.12500000000E+03 0.  0.
        -11    1    1    0    0    0 -0.15307181734E+01 -0.98526483551E+01 -0.54464239333E+01  0.11361395674E+02  0.51100000000E-03 0.  1.
         11    1    1    0    0    0 -0.30299006411E+01 -0.44214882730E+02 -0.25543549284E+02  0.51152801126E+02  0.51100000000E-03 0. -1.
         22    1    1    0    0    0  0.45606188145E+01  0.54067531085E+02  0.30989973217E+02  0.62485803200E+02  0.00000000000E+00 0. -1.
</event>
<event>
 4    1  0.1964735E-002  0.9118800E+02  0.7818608E-02  0.1130116E+00
         25   -1    0    0    0    0  0.00000000000E+00  0.00000000000E+00  0.99999998245E-14  0.12500000000E+03  0.12500000000E+03 0.  0.
        -11    1    1    0    0    0 -0.86286991709E+01 -0.11600297561E+02  0.68893665956E+01  0.16015140500E+02  0.51100000000E-03 0.  1.
         11    1    1    0    0    0 -0.24887602370E+02 -0.33521592300E+02  0.20439751201E+02  0.46485194755E+02  0.51100000000E-03 0. -1.
         22    1    1    0    0    0  0.33516301541E+02  0.45121889861E+02 -0.27329117796E+02  0.62499664744E+02  0.00000000000E+00 0. -1.
</event>
<event>
 4    1  0.1964735E-002  0.9118800E+02  0.7818608E-02  0.1130116E+00
         25   -1    0    0    0    0  0.00000000000E+00  0.00000000000E+00  0.99999998245E-14  0.12500000000E+03  0.12500000000E+03 0.  0.
        -11    1    1    0    0    0 -0.22453935444E+02 -0.43798440697E+02  0.19334394570E+02  0.52880066547E+02  0.51100000000E-03 0.  1.
         11    1    1    0    0    0 -0.71786594574E+01 -0.70963690018E+01  0.12655754363E+00  0.10094930494E+02  0.51100000000E-03 0. -1.
         22    1    1    0    0    0  0.29632594902E+02  0.50894809698E+02 -0.19460952113E+02  0.62025002958E+02  0.00000000000E+00 0. -1.
</event>
<event>
 4    1  0.1964735E-002  0.9118800E+02  0.7818608E-02  0.1130116E+00
         25   -1    0    0    0    0  0.00000000000E+00  0.00000000000E+00  0.99999998245E-14  0.12500000000E+03  0.12500000000E+03 0.  0.
        -11    1    1    0    0    0 -0.16023734812E+02 -0.51829409552E+02  0.26774445629E+02  0.60497262011E+02  0.51100000000E-03 0. -1.
         11    1    1    0    0    0 -0.19033887515E+00 -0.17740501716E+01  0.94164644629E+00  0.20174690059E+01  0.51100000000E-03 0.  1.
         22    1    1    0    0    0  0.16214073687E+02  0.53603459724E+02 -0.27716092076E+02  0.62485268983E+02  0.00000000000E+00 0. -1.
</event>
<event>
 4    1  0.1964735E-002  0.9118800E+02  0.7818608E-02  0.1130116E+00
         25   -1    0    0    0    0  0.00000000000E+00  0.00000000000E+00  0.99999998245E-14  0.12500000000E+03  0.12500000000E+03 0.  0.
        -11    1    1    0    0    0  0.11163992780E+01  0.76214783547E+00  0.54961415734E+01  0.56599283676E+01  0.51100000000E-03 0.  1.
         11    1    1    0    0    0  0.42359789083E+02 -0.40995877577E+01  0.38506155748E+02  0.57392354732E+02  0.51100000000E-03 0. -1.
         22    1    1    0    0    0 -0.43476188361E+02  0.33374399222E+01 -0.44002297321E+02  0.61947716900E+02  0.00000000000E+00 0. -1.
</event>
<event>
 4    1  0.1964735E-002  0.9118800E+02  0.7818608E-02  0.1130116E+00
         25   -1    0    0    0    0  0.00000000000E+00  0.00000000000E+00  0.99999998245E-14  0.12500000000E+03  0.12500000000E+03 0.  0.
        -11    1    1    0    0    0 -0.37351641780E+01 -0.35555216586E+02  0.18187494555E+02  0.40111218336E+02  0.51100000000E-03 0. -1.
         11    1    1    0    0    0 -0.20848283465E+01 -0.19845358268E+02  0.10152477067E+02  0.22388781675E+02  0.51100000000E-03 0. -1.
         22    1    1    0    0    0  0.58199925246E+01  0.55400574854E+02 -0.28339971623E+02  0.62499999990E+02  0.00000000000E+00 0. -1.
</event>
<event>
 4    1  0.1964735E-002  0.9118800E+02  0.7818608E-02  0.1130116E+00
         25   -1    0    0    0    0  0.00000000000E+00  0.00000000000E+00  0.99999998245E-14  0.12500000000E+03  0.12500000000E+03 0.  0.
        -11    1    1    0    0    0 -0.15590194657E+02 -0.26129714437E+02 -0.22030761669E+02  0.37565550788E+02  0.51100000000E-03 0.  1.
         11    1    1    0    0    0 -0.92792140611E+01 -0.18344368095E+02 -0.14135869791E+02  0.24948796953E+02  0.51100000000E-03 0. -1.
         22    1    1    0    0    0  0.24869408718E+02  0.44474082532E+02  0.36166631460E+02  0.62485652259E+02  0.00000000000E+00 0.  1.
</event>
<event>
 4    1  0.1964735E-002  0.9118800E+02  0.7818608E-02  0.1130116E+00
         25   -1    0    0    0    0  0.00000000000E+00  0.00000000000E+00  0.99999998245E-14  0.12500000000E+03  0.12500000000E+03 0.  0.
        -11    1    1    0    0    0  0.42300557813E+00  0.78941313896E-01 -0.12237323178E+01  0.12971840644E+01  0.51100000000E-03 0.  1.
         11    1    1    0    0    0  0.19939438992E+02  0.37402389711E+01 -0.57742653871E+02  0.61202816039E+02  0.51100000000E-03 0.  1.
         22    1    1    0    0    0 -0.20362444570E+02 -0.38191802850E+01  0.58966386188E+02  0.62499999896E+02  0.00000000000E+00 0.  1.
</event>
<event>
 4    1  0.1964735E-002  0.9118800E+02  0.7818608E-02  0.1130116E+00
         25   -1    0    0    0    0  0.00000000000E+00  0.00000000000E+00  0.99999998245E-14  0.12500000000E+03  0.12500000000E+03 0.  0.
        -11    1    1    0    0    0  0.28034718634E+02 -0.42546847821E+02  0.20279277960E+01  0.50993060310E+02  0.51100000000E-03 0.  1.
         11    1    1    0    0    0  0.63254555765E+01 -0.96017062957E+01  0.45333960062E+00  0.11506940040E+02  0.51100000000E-03 0. -1.
         22    1    1    0    0    0 -0.34360174210E+02  0.52148554117E+02 -0.24812673966E+01  0.62499999649E+02  0.00000000000E+00 0.  1.
</event>
<event>
 4    1  0.1964735E-002  0.9118800E+02  0.7818608E-02  0.1130116E+00
         25   -1    0    0    0    0  0.00000000000E+00  0.00000000000E+00  0.99999998245E-14  0.12500000000E+03  0.12500000000E+03 0.  0.
        -11    1    1    0    0    0  0.65742171124E+01 -0.17215841247E+02  0.51856261920E+02  0.55033420947E+02  0.51100000000E-03 0. -1.
         11    1    1    0    0    0  0.89669868083E+00 -0.23417965451E+01  0.70329049619E+01  0.74665810145E+01  0.51100000000E-03 0.  1.
         22    1    1    0    0    0 -0.74709157932E+01  0.19557637792E+02 -0.58889166882E+02  0.62499998039E+02  0.00000000000E+00 0. -1.
</event>
<event>
 4    1  0.1964735E-002  0.9118800E+02  0.7818608E-02  0.1130116E+00
         25   -1    0    0    0    0  0.00000000000E+00  0.00000000000E+00  0.99999998245E-14  0.12500000000E+03  0.12500000000E+03 0.  0.
        -11    1    1    0    0    0 -0.24487713030E+02 -0.10163695974E+02 -0.80662980326E+01  0.27713064960E+02  0.51100000000E-03 0. -1.
         11    1    1    0    0    0 -0.31349850465E+02 -0.11478002167E+02 -0.98001442474E+01  0.34793684563E+02  0.51100000000E-03 0.  1.
         22    1    1    0    0    0  0.55837563495E+02  0.21641698141E+02  0.17866442280E+02  0.62493250477E+02  0.00000000000E+00 0.  1.
</event>
<event>
 4    1  0.1964735E-002  0.9118800E+02  0.7818608E-02  0.1130116E+00
         25   -1    0    0    0    0  0.00000000000E+00  0.00000000000E+00  0.99999998245E-14  0.12500000000E+03  0.12500000000E+03 0.  0.
        -11    1    1    0    0    0 -0.12618918240E+02  0.38106613306E+02  0.27508505493E+02  0.48662808693E+02  0.51100000000E-03 0.  1.
         11    1    1    0    0    0 -0.35873449923E+01  0.10835570327E+02  0.78223548296E+01  0.13837191324E+02  0.51100000000E-03 0. -1.
         22    1    1    0    0    0  0.16206263232E+02 -0.48942183633E+02 -0.35330860322E+02  0.62499999983E+02  0.00000000000E+00 0.  1.
</event>
<event>
 4    1  0.1964735E-002  0.9118800E+02  0.7818608E-02  0.1130116E+00
         25   -1    0    0    0    0  0.00000000000E+00  0.00000000000E+00  0.99999998245E-14  0.12500000000E+03  0.12500000000E+03 0.  0.
        -11    1    1    0    0    0  0.88886238260E+01  0.21825058032E+02  0.15003012515E+02  0.27936198317E+02  0.51100000000E-03 0.  1.
         11    1    1    0    0    0  0.11062521660E+02  0.28259230784E+02  0.16580842584E+02  0.34581611458E+02  0.51100000000E-03 0. -1.
         22    1    1    0    0    0 -0.19951145486E+02 -0.50084288816E+02 -0.31583855099E+02  0.62482190225E+02  0.00000000000E+00 0.  1.
</event>
<event>
 4    1  0.1964735E-002  0.9118800E+02  0.7818608E-02  0.1130116E+00
         25   -1    0    0    0    0  0.00000000000E+00  0.00000000000E+00  0.99999998245E-14  0.12500000000E+03  0.12500000000E+03 0.  0.
        -11    1    1    0    0    0 -0.87631851841E+00  0.38756564182E+02 -0.13122032600E+00  0.38766692151E+02  0.51100000000E-03 0.  1.
         11    1    1    0    0    0 -0.75595230046E+00  0.23718457149E+02 -0.43187473904E+00  0.23734430464E+02  0.51100000000E-03 0. -1.
         22    1    1    0    0    0  0.16322708189E+01 -0.62475021331E+02  0.56309506505E+00  0.62498877385E+02  0.00000000000E+00 0.  1.
</event>
<event>
 4    1  0.1964735E-002  0.9118800E+02  0.7818608E-02  0.1130116E+00
         25   -1    0    0    0    0  0.00000000000E+00  0.00000000000E+00  0.99999998245E-14  0.12500000000E+03  0.12500000000E+03 0.  0.
        -11    1    1    0    0    0  0.58594178428E+01  0.85444341365E+01 -0.15125895032E+02  0.18333925737E+02  0.51100000000E-03 0.  1.
         11    1    1    0    0    0  0.74020416636E+01  0.23110089798E+02 -0.37005074275E+02  0.44252028130E+02  0.51100000000E-03 0. -1.
         22    1    1    0    0    0 -0.13261459506E+02 -0.31654523934E+02  0.52130969307E+02  0.62414046133E+02  0.00000000000E+00 0. -1.
</event>
<event>
 4    1  0.1964735E-002  0.9118800E+02  0.7818608E-02  0.1130116E+00
         25   -1    0    0    0    0  0.00000000000E+00  0.00000000000E+00  0.99999998245E-14  0.12500000000E+03  0.12500000000E+03 0.  0.
        -11    1    1    0    0    0  0.39690758172E+01  0.17330879915E+02 -0.57971297192E+01  0.18700793425E+02  0.51100000000E-03 0.  1.
         11    1    1    0    0    0  0.92952946204E+01  0.40592215840E+02 -0.13573503994E+02  0.43799206612E+02  0.51100000000E-03 0. -1.
         22    1    1    0    0    0 -0.13264370438E+02 -0.57923095755E+02  0.19370633713E+02  0.62499999963E+02  0.00000000000E+00 0. -1.
</event>
<event>
 4    1  0.1964735E-002  0.9118800E+02  0.7818608E-02  0.1130116E+00
         25   -1    0    0    0    0  0.00000000000E+00  0.00000000000E+00  0.99999998245E-14  0.12500000000E+03  0.12500000000E+03 0.  0.
        -11    1    1    0    0    0  0.13709892075E+02 -0.59945331144E+01 -0.49242744320E+02  0.51465944433E+02  0.51100000000E-03 0.  1.
         11    1    1    0    0    0  0.34759323074E+01 -0.25266933259E+01 -0.10202446114E+02  0.11070509995E+02  0.51100000000E-03 0. -1.
         22    1    1    0    0    0 -0.17185824383E+02  0.85212264403E+01  0.59445190434E+02  0.62463545572E+02  0.00000000000E+00 0.  1.
</event>
<event>
 4    1  0.1964735E-002  0.9118800E+02  0.7818608E-02  0.1130116E+00
         25   -1    0    0    0    0  0.00000000000E+00  0.00000000000E+00  0.99999998245E-14  0.12500000000E+03  0.12500000000E+03 0.  0.
        -11    1    1    0    0    0 -0.13869663232E+01 -0.27197979856E+01  0.80125117477E+00  0.31564189155E+01  0.51100000000E-03 0.  1.
         11    1    1    0    0    0 -0.26065237223E+02 -0.51140203300E+02  0.15064648586E+02  0.59343581139E+02  0.51100000000E-03 0. -1.
         22    1    1    0    0    0  0.27452203546E+02  0.53860001285E+02 -0.15865899761E+02  0.62499999946E+02  0.00000000000E+00 0. -1.
</event>
<event>
 4    1  0.1964735E-002  0.9118800E+02  0.7818608E-02  0.1130116E+00
         25   -1    0    0    0    0  0.00000000000E+00  0.00000000000E+00  0.99999998245E-14  0.12500000000E+03  0.12500000000E+03 0.  0.
        -11    1    1    0    0    0 -0.12525037208E+02 -0.61116921505E+01 -0.18855970639E+02  0.23447323238E+02  0.51100000000E-03 0. -1.
         11    1    1    0    0    0 -0.26898363359E+02 -0.62404247682E+01 -0.27835312386E+02  0.39208028114E+02  0.51100000000E-03 0.  1.
         22    1    1    0    0    0  0.39423400567E+02  0.12352116919E+02  0.46691283025E+02  0.62344648649E+02  0.00000000000E+00 0.  1.
</event>
<event>
 4    1  0.1964735E-002  0.9118800E+02  0.7818608E-02  0.1130116E+00
         25   -1    0    0    0    0  0.00000000000E+00  0.00000000000E+00  0.99999998245E-14  0.12500000000E+03  0.12500000000E+03 0.  0.
        -11    1    1    0    0    0  0.37060096441E+02 -0.38426743783E+02  0.30602121155E+02  0.61534991716E+02  0.51100000000E-03 0.  1.
         11    1    1    0    0    0  0.58147948562E+00 -0.60130402814E+00  0.48120437469E+00  0.96500924234E+00  0.51100000000E-03 0. -1.
         22    1    1    0    0    0 -0.37641575927E+02  0.39028047811E+02 -0.31083325530E+02  0.62499999042E+02  0.00000000000E+00 0.  1.
</event>
<event>
 4    1  0.1964735E-002  0.9118800E+02  0.7818608E-02  0.1130116E+00
         25   -1    0    0    0    0  0.00000000000E+00  0.00000000000E+00  0.99999998245E-14  0.12500000000E+03  0.12500000000E+03 0.  0.
        -11    1    1    0    0    0 -0.12804102676E+02  0.32941904845E+02  0.66776933687E+00  0.35349116768E+02  0.51100000000E-03 0. -1.
         11    1    1    0    0    0  0.20443244852E+02  0.23536265929E+02 -0.80095209483E+01  0.32187489807E+02  0.51100000000E-03 0.  1.
         22    1    1    0    0    0 -0.76391421766E+01 -0.56478170774E+02  0.73417516114E+01  0.57463393425E+02  0.00000000000E+00 0.  1.
</event>
<event>
 4    1  0.1964735E-002  0.9118800E+02  0.7818608E-02  0.1130116E+00
         25   -1    0    0    0    0  0.00000000000E+00  0.00000000000E+00  0.99999998245E-14  0.12500000000E+03  0.12500000000E+03 0.  0.
        -11    1    1    0    0    0 -0.17084562944E+02  0.51350303008E+02 -0.42023180203E+01  0.54280709160E+02  0.51100000000E-03 0.  1.
         11    1    1    0    0    0 -0.25858498261E+01  0.77759036341E+01 -0.63674628206E+00  0.82192908902E+01  0.51100000000E-03 0. -1.
         22    1    1    0    0    0  0.19670412770E+02 -0.59126206642E+02  0.48390643023E+01  0.62499999949E+02  0.00000000000E+00 0.  1.
</event>
<event>
 4    1  0.1964735E-002  0.9118800E+02  0.7818608E-02  0.1130116E+00
         25   -1    0    0    0    0  0.00000000000E+00  0.00000000000E+00  0.99999998245E-14  0.12500000000E+03  0.12500000000E+03 0.  0.
        -11    1    1    0    0    0 -0.17625555597E+02 -0.35265145465E+02 -0.11126395610E+02  0.40964464775E+02  0.51100000000E-03 0. -1.
         11    1    1    0    0    0 -0.16111084551E+02 -0.15490829536E+02  0.29099749074E+01  0.22538873072E+02  0.51100000000E-03 0.  1.
         22    1    1    0    0    0  0.33736640148E+02  0.50755975001E+02  0.82164207030E+01  0.61496662153E+02  0.00000000000E+00 0.  1.
</event>
<event>
 4    1  0.1964735E-002  0.9118800E+02  0.7818608E-02  0.1130116E+00
         25   -1    0    0    0    0  0.00000000000E+00  0.00000000000E+00  0.99999998245E-14  0.12500000000E+03  0.12500000000E+03 0.  0.
        -11    1    1    0    0    0 -0.86798028014E+00  0.56228280587E+01  0.53128520499E+02  0.53432286830E+02  0.51100000000E-03 0.  1.
         11    1    1    0    0    0 -0.14747631923E+00  0.95573806906E+00  0.90159990305E+01  0.90677132344E+01  0.51100000000E-03 0.  1.
         22    1    1    0    0    0  0.10154565994E+01 -0.65785661278E+01 -0.62144519530E+02  0.62499999936E+02  0.00000000000E+00 0.  1.
</event>
<event>
 4    1  0.1964735E-002  0.9118800E+02  0.7818608E-02  0.1130116E+00
         25   -1    0    0    0    0  0.00000000000E+00  0.00000000000E+00  0.99999998245E-14  0.12500000000E+03  0.12500000000E+03 0.  0.
        -11    1    1    0    0    0 -0.14210895741E+02 -0.10712558064E+02 -0.19550360525E+02  0.26437190754E+02  0.51100000000E-03 0.  1.
         11    1    1    0    0    0 -0.11917710202E+02 -0.38150861740E+02  0.51050998352E+00  0.39972248982E+02  0.51100000000E-03 0. -1.
         22    1    1    0    0    0  0.26128605943E+02  0.48863419804E+02  0.19039850542E+02  0.58590560264E+02  0.00000000000E+00 0. -1.
</event>
<event>
 4    1  0.1964735E-002  0.9118800E+02  0.7818608E-02  0.1130116E+00
         25   -1    0    0    0    0  0.00000000000E+00  0.00000000000E+00  0.99999998245E-14  0.12500000000E+03  0.12500000000E+03 0.  0.
        -11    1    1    0    0    0 -0.30331378474E+02  0.46027382675E+01  0.24198851266E+02  0.39073803534E+02  0.51100000000E-03 0.  1.
         11    1    1    0    0    0 -0.18184119413E+02  0.27586171433E+01  0.14509118311E+02  0.23426196486E+02  0.51100000000E-03 0.  1.
         22    1    1    0    0    0  0.48515497888E+02 -0.73613554108E+01 -0.38707969577E+02  0.62499999980E+02  0.00000000000E+00 0.  1.
</event>
<event>
 4    1  0.1964735E-002  0.9118800E+02  0.7818608E-02  0.1130116E+00
         25   -1    0    0    0    0  0.00000000000E+00  0.00000000000E+00  0.99999998245E-14  0.12500000000E+03  0.12500000000E+03 0.  0.
        -11    1    1    0    0    0 -0.26778961545E+02 -0.23999500783E+02 -0.22681469922E+02  0.42515149033E+02  0.51100000000E-03 0. -1.
         11    1    1    0    0    0 -0.13910755633E+02 -0.11225188028E+02 -0.90217699848E+01  0.20022644742E+02  0.51100000000E-03 0.  1.
         22    1    1    0    0    0  0.40689717178E+02  0.35224688811E+02  0.31703239907E+02  0.62462206225E+02  0.00000000000E+00 0. -1.
</event>
<event>
 4    1  0.1964735E-002  0.9118800E+02  0.7818608E-02  0.1130116E+00
         25   -1    0    0    0    0  0.00000000000E+00  0.00000000000E+00  0.99999998245E-14  0.12500000000E+03  0.12500000000E+03 0.  0.
        -11    1    1    0    0    0  0.16417311956E+02  0.80982439329E+01  0.23754200243E+02  0.29989526773E+02  0.51100000000E-03 0. -1.
         11    1    1    0    0    0  0.17834115210E+02  0.87922573735E+01  0.25721041890E+02  0.32510482175E+02  0.51100000000E-03 0.  1.
         22    1    1    0    0    0 -0.34251427167E+02 -0.16890501306E+02 -0.49475242133E+02  0.62499991052E+02  0.00000000000E+00 0.  1.
</event>
<event>
 4    1  0.1964735E-002  0.9118800E+02  0.7818608E-02  0.1130116E+00
         25   -1    0    0    0    0  0.00000000000E+00  0.00000000000E+00  0.99999998245E-14  0.12500000000E+03  0.12500000000E+03 0.  0.
        -11    1    1    0    0    0 -0.53271914034E+02 -0.22784994130E+02 -0.48033270300E+01  0.58138840143E+02  0.51100000000E-03 0. -1.
         11    1    1    0    0    0 -0.39964423597E+01 -0.17083971749E+01 -0.35992102398E+00  0.43611599199E+01  0.51100000000E-03 0. -1.
         22    1    1    0    0    0  0.57268356394E+02  0.24493391305E+02  0.51632480540E+01  0.62499999937E+02  0.00000000000E+00 0. -1.
</event>
<event>
 4    1  0.1964735E-002  0.9118800E+02  0.7818608E-02  0.1130116E+00
         25   -1    0    0    0    0  0.00000000000E+00  0.00000000000E+00  0.99999998245E-14  0.12500000000E+03  0.12500000000E+03 0.  0.
        -11    1    1    0    0    0  0.50166703700E+00 -0.79458269797E+01 -0.80024953893E+00  0.80017645425E+01  0.51100000000E-03 0. -1.
         11    1    1    0    0    0  0.14052789904E+02 -0.49913253152E+02 -0.17280011976E+02  0.54657227870E+02  0.51100000000E-03 0.  1.
         22    1    1    0    0    0 -0.14554456941E+02  0.57859080132E+02  0.18080261515E+02  0.62341007587E+02  0.00000000000E+00 0.  1.
</event>
<event>
 4    1  0.1964735E-002  0.9118800E+02  0.7818608E-02  0.1130116E+00
         25   -1    0    0    0    0  0.00000000000E+00  0.00000000000E+00  0.99999998245E-14  0.12500000000E+03  0.12500000000E+03 0.  0.
        -11    1    1    0    0    0 -0.98569335664E+00 -0.45768464001E+00  0.12953237707E+01  0.16908372349E+01  0.51100000000E-03 0. -1.
         11    1    1    0    0    0 -0.35544392539E+02 -0.15328876313E+02  0.46897705135E+02  0.60809317026E+02  0.51100000000E-03 0.  1.
         22    1    1    0    0    0  0.36530085896E+02  0.15786560953E+02 -0.48193028906E+02  0.62499845739E+02  0.00000000000E+00 0.  1.
</event>
<event>
 4    1  0.1964735E-002  0.9118800E+02  0.7818608E-02  0.1130116E+00
         25   -1    0    0    0    0  0.00000000000E+00  0.00000000000E+00  0.99999998245E-14  0.12500000000E+03  0.12500000000E+03 0.  0.
        -11    1    1    0    0    0 -0.94829186610E+01  0.55852451431E+02 -0.23837378533E+01  0.56701889594E+02  0.51100000000E-03 0.  1.
         11    1    1    0    0    0 -0.96444095211E+00  0.57121586484E+01 -0.24329885215E+00  0.57981115345E+01  0.51100000000E-03 0. -1.
         22    1    1    0    0    0  0.10447359613E+02 -0.61564610079E+02  0.26270367054E+01  0.62499998871E+02  0.00000000000E+00 0.  1.
</event>
<event>
 4    1  0.1964735E-002  0.9118800E+02  0.7818608E-02  0.1130116E+00
         25   -1    0    0    0    0  0.00000000000E+00  0.00000000000E+00  0.99999998245E-14  0.12500000000E+03  0.12500000000E+03 0.  0.
        -11    1    1    0    0    0  0.21813180405E+02 -0.46331254588E+02 -0.35115221798E+02  0.62092501909E+02  0.51100000000E-03 0. -1.
         11    1    1    0    0    0  0.14385246340E+00 -0.30436214572E+00 -0.22962001069E+00  0.40749902749E+00  0.51100000000E-03 0.  1.
         22    1    1    0    0    0 -0.21957032868E+02  0.46635616734E+02  0.35344841808E+02  0.62499999064E+02  0.00000000000E+00 0. -1.
</event>
<event>
 4    1  0.1964735E-002  0.9118800E+02  0.7818608E-02  0.1130116E+00
         25   -1    0    0    0    0  0.00000000000E+00  0.00000000000E+00  0.99999998245E-14  0.12500000000E+03  0.12500000000E+03 0.  0.
        -11    1    1    0    0    0 -0.15135357428E+01 -0.40447746735E+01 -0.22110962480E+01  0.48517975518E+01  0.51100000000E-03 0.  1.
         11    1    1    0    0    0 -0.13285599541E+02 -0.49331690369E+02 -0.26723021668E+02  0.57656246124E+02  0.51100000000E-03 0. -1.
         22    1    1    0    0    0  0.14799135284E+02  0.53376465042E+02  0.28934117916E+02  0.62491956324E+02  0.00000000000E+00 0. -1.
</event>
<event>
 4    1  0.1964735E-002  0.9118800E+02  0.7818608E-02  0.1130116E+00
         25   -1    0    0    0    0  0.00000000000E+00  0.00000000000E+00  0.99999998245E-14  0.12500000000E+03  0.12500000000E+03 0.  0.
        -11    1    1    0    0    0  0.12642655627E+01 -0.63186272463E+01  0.15364345398E+02  0.16660928169E+02  0.51100000000E-03 0. -1.
         11    1    1    0    0    0  0.52896664872E+01 -0.15779603498E+02  0.42720621678E+02  0.45847878631E+02  0.51100000000E-03 0.  1.
         22    1    1    0    0    0 -0.65539320499E+01  0.22098230745E+02 -0.58084967076E+02  0.62491193200E+02  0.00000000000E+00 0.  1.
</event>
<event>
 4    1  0.1964735E-002  0.9118800E+02  0.7818608E-02  0.1130116E+00
         25   -1    0    0    0    0  0.00000000000E+00  0.00000000000E+00  0.99999998245E-14  0.12500000000E+03  0.12500000000E+03 0.  0.
        -11    1    1    0    0    0  0.14322729806E+02 -0.12230260984E+02 -0.27840529857E+01  0.19038666553E+02  0.51100000000E-03 0.  1.
         11    1    1    0    0    0  0.32682723930E+02 -0.27933413797E+02 -0.63601506115E+01  0.43461334148E+02  0.51100000000E-03 0. -1.
         22    1    1    0    0    0 -0.47005453736E+02  0.40163674781E+02  0.91442035972E+01  0.62499999299E+02  0.00000000000E+00 0.  1.
</event>
<event>
 4    1  0.1964735E-002  0.9118800E+02  0.7818608E-02  0.1130116E+00
         25   -1    0    0    0    0  0.00000000000E+00  0.00000000000E+00  0.99999998245E-14  0.12500000000E+03  0.12500000000E+03 0.  0.
        -11    1    1    0    0    0 -0.25360026564E+02  0.38873960003E+02 -0.14274775450E+02  0.48560116640E+02  0.51100000000E-03 0. -1.
         11    1    1    0    0    0 -0.74243939603E+01  0.11195512863E+02 -0.37309651505E+01  0.13942067105E+02  0.51100000000E-03 0.  1.
         22    1    1    0    0    0  0.32784420524E+02 -0.50069472866E+02  0.18005740601E+02  0.62497816256E+02  0.00000000000E+00 0. -1.
</event>
<event>
 4    1  0.1964735E-002  0.9118800E+02  0.7818608E-02  0.1130116E+00
         25   -1    0    0    0    0  0.00000000000E+00  0.00000000000E+00  0.99999998245E-14  0.12500000000E+03  0.12500000000E+03 0.  0.
        -11    1    1    0    0    0  0.32297080659E+01  0.22456066418E+01  0.26755882677E+01  0.47573665215E+01  0.51100000000E-03 0.  1.
         11    1    1    0    0    0  0.39194349991E+02  0.27259091202E+02  0.32480095457E+02  0.57742633518E+02  0.51100000000E-03 0. -1.
         22    1    1    0    0    0 -0.42424058057E+02 -0.29504697844E+02 -0.35155683725E+02  0.62499999961E+02  0.00000000000E+00 0. -1.
</event>
<event>
 4    1  0.1964735E-002  0.9118800E+02  0.7818608E-02  0.1130116E+00
         25   -1    0    0    0    0  0.00000000000E+00  0.00000000000E+00  0.99999998245E-14  0.12500000000E+03  0.12500000000E+03 0.  0.
        -11    1    1    0    0    0 -0.32552715214E+02  0.82579619571E+01 -0.23035960768E+02  0.40725037658E+02  0.51100000000E-03 0. -1.
         11    1    1    0    0    0 -0.16587452102E+02  0.33729205460E+01 -0.13742770632E+02  0.21803300327E+02  0.51100000000E-03 0.  1.
         22    1    1    0    0    0  0.49140167315E+02 -0.11630882503E+02  0.36778731400E+02  0.62471662015E+02  0.00000000000E+00 0. -1.
</event>
<event>
 4    1  0.1964735E-002  0.9118800E+02  0.7818608E-02  0.1130116E+00
         25   -1    0    0    0    0  0.00000000000E+00  0.00000000000E+00  0.99999998245E-14  0.12500000000E+03  0.12500000000E+03 0.  0.
        -11    1    1    0    0    0 -0.84551393479E+01 -0.61674550412E+01  0.11318668735E+02  0.15415548815E+02  0.51100000000E-03 0.  1.
         11    1    1    0    0    0 -0.23723892973E+02 -0.37325531054E+02  0.18347766159E+02  0.47881717696E+02  0.51100000000E-03 0. -1.
         22    1    1    0    0    0  0.32179032321E+02  0.43492986095E+02 -0.29666434894E+02  0.61702733488E+02  0.00000000000E+00 0. -1.
</event>
<event>
 4    1  0.1964735E-002  0.9118800E+02  0.7818608E-02  0.1130116E+00
         25   -1    0    0    0    0  0.00000000000E+00  0.00000000000E+00  0.99999998245E-14  0.12500000000E+03  0.12500000000E+03 0.  0.
        -11    1    1    0    0    0  0.16788261430E+02 -0.13007935807E+02  0.19650173584E+02  0.28934087819E+02  0.51100000000E-03 0. -1.
         11    1    1    0    0    0 -0.17072668667E+02  0.19237828963E+02  0.33676717361E+02  0.42375598770E+02  0.51100000000E-03 0.  1.
         22    1    1    0    0    0  0.28440723721E+00 -0.62298931560E+01 -0.53326890946E+02  0.53690313411E+02  0.00000000000E+00 0.  1.
</event>
<event>
 4    1  0.1964735E-002  0.9118800E+02  0.7818608E-02  0.1130116E+00
         25   -1    0    0    0    0  0.00000000000E+00  0.00000000000E+00  0.99999998245E-14  0.12500000000E+03  0.12500000000E+03 0.  0.
        -11    1    1    0    0    0  0.43572245944E+01  0.47397110244E+02 -0.17847439245E+02  0.50833085225E+02  0.51100000000E-03 0.  1.
         11    1    1    0    0    0  0.93544372407E+00  0.10871754716E+02 -0.41290370225E+01  0.11667007009E+02  0.51100000000E-03 0. -1.
         22    1    1    0    0    0 -0.52926683185E+01 -0.58268864959E+02  0.21976476268E+02  0.62499907766E+02  0.00000000000E+00 0.  1.
</event>
<event>
 4    1  0.1964735E-002  0.9118800E+02  0.7818608E-02  0.1130116E+00
         25   -1    0    0    0    0  0.00000000000E+00  0.00000000000E+00  0.99999998245E-14  0.12500000000E+03  0.12500000000E+03 0.  0.
        -11    1    1    0    0    0 -0.15835366799E+02  0.52925610825E+01 -0.55099506690E+01  0.17582081819E+02  0.51100000000E-03 0.  1.
         11    1    1    0    0    0 -0.40455905158E+02  0.13520404632E+02 -0.14076141890E+02  0.44917918188E+02  0.51100000000E-03 0.  1.
         22    1    1    0    0    0  0.56291271957E+02 -0.18812965714E+02  0.19586092559E+02  0.62499999993E+02  0.00000000000E+00 0.  1.
</event>
<event>
 4    1  0.1964735E-002  0.9118800E+02  0.7818608E-02  0.1130116E+00
         25   -1    0    0    0    0  0.00000000000E+00  0.00000000000E+00  0.99999998245E-14  0.12500000000E+03  0.12500000000E+03 0.  0.
        -11    1    1    0    0    0 -0.33928315539E+02  0.29849005284E+02 -0.38027925010E+02  0.59061127594E+02  0.51100000000E-03 0.  1.
         11    1    1    0    0    0 -0.19895265258E+01  0.17359132295E+01 -0.22032667223E+01  0.34388944515E+01  0.51100000000E-03 0. -1.
         22    1    1    0    0    0  0.35917842065E+02 -0.31584918513E+02  0.40231191733E+02  0.62499977955E+02  0.00000000000E+00 0.  1.
</event>
<event>
 4    1  0.1964735E-002  0.9118800E+02  0.7818608E-02  0.1130116E+00
         25   -1    0    0    0    0  0.00000000000E+00  0.00000000000E+00  0.99999998245E-14  0.12500000000E+03  0.12500000000E+03 0.  0.
        -11    1    1    0    0    0 -0.34249848412E+02 -0.21136740990E+02 -0.15204488225E+02  0.43023137942E+02  0.51100000000E-03 0.  1.
         11    1    1    0    0    0 -0.15505455506E+02 -0.95684749195E+01 -0.68828259404E+01  0.19476862066E+02  0.51100000000E-03 0. -1.
         22    1    1    0    0    0  0.49755303918E+02  0.30705215909E+02  0.22087314165E+02  0.62499999993E+02  0.00000000000E+00 0.  1.
</event>
<event>
 4    1  0.1964735E-002  0.9118800E+02  0.7818608E-02  0.1130116E+00
         25   -1    0    0    0    0  0.00000000000E+00  0.00000000000E+00  0.99999998245E-14  0.12500000000E+03  0.12500000000E+03 0.  0.
        -11    1    1    0    0    0  0.20941308293E+02  0.32516062215E+02  0.17607453420E+02  0.42495353996E+02  0.51100000000E-03 0. -1.
         11    1    1    0    0    0  0.94401384600E+01  0.15468413141E+02  0.84781070508E+01  0.20006656859E+02  0.51100000000E-03 0.  1.
         22    1    1    0    0    0 -0.30381446753E+02 -0.47984475357E+02 -0.26085560471E+02  0.62497989145E+02  0.00000000000E+00 0. -1.
</event>
<event>
 4    1  0.1964735E-002  0.9118800E+02  0.7818608E-02  0.1130116E+00
         25   -1    0    0    0    0  0.00000000000E+00  0.00000000000E+00  0.99999998245E-14  0.12500000000E+03  0.12500000000E+03 0.  0.
        -11    1    1    0    0    0  0.34392097261E+02  0.15341473782E+02  0.11811335977E+02  0.39467516132E+02  0.51100000000E-03 0. -1.
         11    1    1    0    0    0  0.20070246757E+02  0.89522621808E+01  0.68947451976E+01  0.23032483901E+02  0.51100000000E-03 0.  1.
         22    1    1    0    0    0 -0.54462344018E+02 -0.24293735963E+02 -0.18706081174E+02  0.62499999967E+02  0.00000000000E+00 0. -1.
</event>
<event>
 4    1  0.1964735E-002  0.9118800E+02  0.7818608E-02  0.1130116E+00
         25   -1    0    0    0    0  0.00000000000E+00  0.00000000000E+00  0.99999998245E-14  0.12500000000E+03  0.12500000000E+03 0.  0.
        -11    1    1    0    0    0  0.29964201344E+02 -0.14751271719E+02 -0.11759305477E+02  0.35408115525E+02  0.51100000000E-03 0.  1.
         11    1    1    0    0    0  0.23223798914E+02 -0.11128056383E+02 -0.84212773613E+01  0.27094213174E+02  0.51100000000E-03 0. -1.
         22    1    1    0    0    0 -0.53188000257E+02  0.25879328102E+02  0.20180582838E+02  0.62497671301E+02  0.00000000000E+00 0. -1.
</event>
<event>
 4    1  0.1964735E-002  0.9118800E+02  0.7818608E-02  0.1130116E+00
         25   -1    0    0    0    0  0.00000000000E+00  0.00000000000E+00  0.99999998245E-14  0.12500000000E+03  0.12500000000E+03 0.  0.
        -11    1    1    0    0    0  0.26740646830E+01  0.35181548056E+01  0.16492375746E+02  0.17074146923E+02  0.51100000000E-03 0. -1.
         11    1    1    0    0    0  0.91433492290E+01  0.79282482077E+01  0.43793761815E+02  0.45435135402E+02  0.51100000000E-03 0.  1.
         22    1    1    0    0    0 -0.11817413912E+02 -0.11446403013E+02 -0.60286137561E+02  0.62490717675E+02  0.00000000000E+00 0.  1.
</event>
<event>
 4    1  0.1964735E-002  0.9118800E+02  0.7818608E-02  0.1130116E+00
         25   -1    0    0    0    0  0.00000000000E+00  0.00000000000E+00  0.99999998245E-14  0.12500000000E+03  0.12500000000E+03 0.  0.
        -11    1    1    0    0    0 -0.31590484803E+01  0.10975262176E+02 -0.23619817585E+01  0.11662543686E+02  0.51100000000E-03 0.  1.
         11    1    1    0    0    0 -0.13435715359E+02  0.47928460850E+02 -0.10334527224E+02  0.50837567406E+02  0.51100000000E-03 0. -1.
         22    1    1    0    0    0  0.16594763839E+02 -0.58903723026E+02  0.12696508982E+02  0.62499888908E+02  0.00000000000E+00 0. -1.
</event>
<event>
 4    1  0.1964735E-002  0.9118800E+02  0.7818608E-02  0.1130116E+00
         25   -1    0    0    0    0  0.00000000000E+00  0.00000000000E+00  0.99999998245E-14  0.12500000000E+03  0.12500000000E+03 0.  0.
        -11    1    1    0    0    0  0.57215815942E+01 -0.41563927974E+01  0.33473105070E+02  0.34211998777E+02  0.51100000000E-03 0.  1.
         11    1    1    0    0    0  0.46971451595E+01 -0.33166982544E+01  0.27697503849E+02  0.28288078402E+02  0.51100000000E-03 0. -1.
         22    1    1    0    0    0 -0.10418726754E+02  0.74730910518E+01 -0.61170608919E+02  0.62499922821E+02  0.00000000000E+00 0.  1.
</event>
<event>
 4    1  0.1964735E-002  0.9118800E+02  0.7818608E-02  0.1130116E+00
         25   -1    0    0    0    0  0.00000000000E+00  0.00000000000E+00  0.99999998245E-14  0.12500000000E+03  0.12500000000E+03 0.  0.
        -11    1    1    0    0    0 -0.52478828274E+02  0.11510528476E+02 -0.41740440546E+01  0.53888239226E+02  0.51100000000E-03 0. -1.
         11    1    1    0    0    0 -0.65432861935E+01  0.62955165812E+01 -0.14941254433E+01  0.92022026894E+01  0.51100000000E-03 0.  1.
         22    1    1    0    0    0  0.59022114468E+02 -0.17806045057E+02  0.56681694979E+01  0.61909558085E+02  0.00000000000E+00 0. -1.
</event>
<event>
 4    1  0.1964735E-002  0.9118800E+02  0.7818608E-02  0.1130116E+00
         25   -1    0    0    0    0  0.00000000000E+00  0.00000000000E+00  0.99999998245E-14  0.12500000000E+03  0.12500000000E+03 0.  0.
        -11    1    1    0    0    0 -0.25046100250E+01  0.27122697297E+01 -0.10186762276E+01  0.38297754479E+01  0.51100000000E-03 0.  1.
         11    1    1    0    0    0 -0.58371850144E+02  0.90498453219E+01  0.28871213073E+01  0.59139733338E+02  0.51100000000E-03 0. -1.
         22    1    1    0    0    0  0.60876460169E+02 -0.11762115052E+02 -0.18684450798E+01  0.62030491214E+02  0.00000000000E+00 0. -1.
</event>
<event>
 4    1  0.1964735E-002  0.9118800E+02  0.7818608E-02  0.1130116E+00
         25   -1    0    0    0    0  0.00000000000E+00  0.00000000000E+00  0.99999998245E-14  0.12500000000E+03  0.12500000000E+03 0.  0.
        -11    1    1    0    0    0 -0.19724874223E+02 -0.71873390966E+01  0.49134668031E+02  0.53431677020E+02  0.51100000000E-03 0. -1.
         11    1    1    0    0    0 -0.31388107996E+01  0.44738809613E+01  0.81596950590E+01  0.98208129913E+01  0.51100000000E-03 0.  1.
         22    1    1    0    0    0  0.22863685023E+02  0.27134581352E+01 -0.57294363090E+02  0.61747509988E+02  0.00000000000E+00 0. -1.
</event>
<event>
 4    1  0.1964735E-002  0.9118800E+02  0.7818608E-02  0.1130116E+00
         25   -1    0    0    0    0  0.00000000000E+00  0.00000000000E+00  0.99999998245E-14  0.12500000000E+03  0.12500000000E+03 0.  0.
        -11    1    1    0    0    0 -0.40174499372E+01 -0.13363173918E+01 -0.32530903813E+01  0.53393113282E+01  0.51100000000E-03 0.  1.
         11    1    1    0    0    0 -0.42955241862E+02 -0.14184988353E+02 -0.34942509361E+02  0.57160700299E+02  0.51100000000E-03 0. -1.
         22    1    1    0    0    0  0.46972691800E+02  0.15521305744E+02  0.38195599742E+02  0.62499988373E+02  0.00000000000E+00 0. -1.
</event>
<event>
 4    1  0.1964735E-002  0.9118800E+02  0.7818608E-02  0.1130116E+00
         25   -1    0    0    0    0  0.00000000000E+00  0.00000000000E+00  0.99999998245E-14  0.12500000000E+03  0.12500000000E+03 0.  0.
        -11    1    1    0    0    0 -0.87546531644E+01  0.17838458680E+02 -0.16289217360E+02  0.25694224304E+02  0.51100000000E-03 0.  1.
         11    1    1    0    0    0 -0.11841423730E+02  0.26492787292E+02 -0.22648545942E+02  0.36810918597E+02  0.51100000000E-03 0. -1.
         22    1    1    0    0    0  0.20596076894E+02 -0.44331245972E+02  0.38937763301E+02  0.62494857099E+02  0.00000000000E+00 0. -1.
</event>
<event>
 4    1  0.1964735E-002  0.9118800E+02  0.7818608E-02  0.1130116E+00
         25   -1    0    0    0    0  0.00000000000E+00  0.00000000000E+00  0.99999998245E-14  0.12500000000E+03  0.12500000000E+03 0.  0.
        -11    1    1    0    0    0  0.13654375697E+02 -0.53869692654E+01  0.11489368253E+02  0.18640466642E+02  0.51100000000E-03 0. -1.
         11    1    1    0    0    0  0.32127197134E+02 -0.12677059959E+02  0.27033202220E+02  0.43859533370E+02  0.51100000000E-03 0.  1.
         22    1    1    0    0    0 -0.45781572830E+02  0.18064029224E+02 -0.38522570473E+02  0.62499999988E+02  0.00000000000E+00 0. -1.
</event>
<event>
 4    1  0.1964735E-002  0.9118800E+02  0.7818608E-02  0.1130116E+00
         25   -1    0    0    0    0  0.00000000000E+00  0.00000000000E+00  0.99999998245E-14  0.12500000000E+03  0.12500000000E+03 0.  0.
        -11    1    1    0    0    0 -0.42685578002E+01 -0.21896412862E+01  0.64206856737E+01  0.80150058913E+01  0.51100000000E-03 0.  1.
         11    1    1    0    0    0 -0.29017066102E+02 -0.14886817379E+02  0.43646387332E+02  0.54484994120E+02  0.51100000000E-03 0.  1.
         22    1    1    0    0    0  0.33285623903E+02  0.17076458665E+02 -0.50067073006E+02  0.62499999988E+02  0.00000000000E+00 0.  1.
</event>
<event>
 4    1  0.1964735E-002  0.9118800E+02  0.7818608E-02  0.1130116E+00
         25   -1    0    0    0    0  0.00000000000E+00  0.00000000000E+00  0.99999998245E-14  0.12500000000E+03  0.12500000000E+03 0.  0.
        -11    1    1    0    0    0  0.55647099667E+02 -0.12613171227E+01  0.14106027964E+02  0.57420994831E+02  0.51100000000E-03 0. -1.
         11    1    1    0    0    0  0.20277341553E+01  0.34513159008E+01  0.53408801789E+01  0.66744504342E+01  0.51100000000E-03 0.  1.
         22    1    1    0    0    0 -0.57674833822E+02 -0.21899987781E+01 -0.19446908143E+02  0.60904554734E+02  0.00000000000E+00 0. -1.
</event>
<event>
 4    1  0.1964735E-002  0.9118800E+02  0.7818608E-02  0.1130116E+00
         25   -1    0    0    0    0  0.00000000000E+00  0.00000000000E+00  0.99999998245E-14  0.12500000000E+03  0.12500000000E+03 0.  0.
        -11    1    1    0    0    0 -0.20582127331E+02  0.13699460919E+02  0.43154068514E+02  0.49735026134E+02  0.51100000000E-03 0.  1.
         11    1    1    0    0    0 -0.11133522798E+02 -0.50795943068E+01  0.78860991766E+01  0.14558439775E+02  0.51100000000E-03 0. -1.
         22    1    1    0    0    0  0.31715650128E+02 -0.86198666121E+01 -0.51040167691E+02  0.60706534091E+02  0.00000000000E+00 0.  1.
</event>
<event>
 4    1  0.1964735E-002  0.9118800E+02  0.7818608E-02  0.1130116E+00
         25   -1    0    0    0    0  0.00000000000E+00  0.00000000000E+00  0.99999998245E-14  0.12500000000E+03  0.12500000000E+03 0.  0.
        -11    1    1    0    0    0 -0.48402647936E+02 -0.62967799445E+00  0.13369901386E+02  0.50219190405E+02  0.51100000000E-03 0.  1.
         11    1    1    0    0    0 -0.11845134827E+02  0.32668163982E+00  0.32399928563E+01  0.12284603939E+02  0.51100000000E-03 0. -1.
         22    1    1    0    0    0  0.60247782763E+02  0.30299635463E+00 -0.16609894242E+02  0.62496205656E+02  0.00000000000E+00 0.  1.
</event>
<event>
 4    1  0.1964735E-002  0.9118800E+02  0.7818608E-02  0.1130116E+00
         25   -1    0    0    0    0  0.00000000000E+00  0.00000000000E+00  0.99999998245E-14  0.12500000000E+03  0.12500000000E+03 0.  0.
        -11    1    1    0    0    0  0.18417425539E+02  0.22098455342E+02  0.44646897836E+02  0.53112039865E+02  0.51100000000E-03 0.  1.
         11    1    1    0    0    0  0.12571108268E+01  0.29847323973E+01  0.89550623596E+01  0.95227148041E+01  0.51100000000E-03 0. -1.
         22    1    1    0    0    0 -0.19674536366E+02 -0.25083187739E+02 -0.53601960196E+02  0.62365245331E+02  0.00000000000E+00 0.  1.
</event>
<event>
 4    1  0.1964735E-002  0.9118800E+02  0.7818608E-02  0.1130116E+00
         25   -1    0    0    0    0  0.00000000000E+00  0.00000000000E+00  0.99999998245E-14  0.12500000000E+03  0.12500000000E+03 0.  0.
        -11    1    1    0    0    0  0.76613894621E+01  0.43684185906E+02 -0.38732617468E+02  0.58883109997E+02  0.51100000000E-03 0.  1.
         11    1    1    0    0    0  0.27072954990E+01  0.17565136842E+01 -0.23457143921E+01  0.39896322527E+01  0.51100000000E-03 0. -1.
         22    1    1    0    0    0 -0.10368684961E+02 -0.45440699590E+02  0.41078331860E+02  0.62127257750E+02  0.00000000000E+00 0.  1.
</event>
<event>
 4    1  0.1964735E-002  0.9118800E+02  0.7818608E-02  0.1130116E+00
         25   -1    0    0    0    0  0.00000000000E+00  0.00000000000E+00  0.99999998245E-14  0.12500000000E+03  0.12500000000E+03 0.  0.
        -11    1    1    0    0    0 -0.98377969390E+01 -0.24631088432E+01  0.32432954966E+02  0.33981549727E+02  0.51100000000E-03 0. -1.
         11    1    1    0    0    0 -0.82562474313E+01 -0.20672168841E+01  0.27218798626E+02  0.28518450277E+02  0.51100000000E-03 0. -1.
         22    1    1    0    0    0  0.18094044370E+02  0.45303257273E+01 -0.59651753592E+02  0.62499999996E+02  0.00000000000E+00 0. -1.
</event>
<event>
 4    1  0.1964735E-002  0.9118800E+02  0.7818608E-02  0.1130116E+00
         25   -1    0    0    0    0  0.00000000000E+00  0.00000000000E+00  0.99999998245E-14  0.12500000000E+03  0.12500000000E+03 0.  0.
        -11    1    1    0    0    0  0.99578157933E+01 -0.36919844459E+02 -0.14995389764E+02  0.41074258663E+02  0.51100000000E-03 0. -1.
         11    1    1    0    0    0  0.52184866435E+01 -0.19252758484E+02 -0.78205679801E+01  0.21425746099E+02  0.51100000000E-03 0.  1.
         22    1    1    0    0    0 -0.15176302437E+02  0.56172602943E+02  0.22815957744E+02  0.62499995239E+02  0.00000000000E+00 0. -1.
</event>
<event>
 4    1  0.1964735E-002  0.9118800E+02  0.7818608E-02  0.1130116E+00
         25   -1    0    0    0    0  0.00000000000E+00  0.00000000000E+00  0.99999998245E-14  0.12500000000E+03  0.12500000000E+03 0.  0.
        -11    1    1    0    0    0  0.52909129434E+01 -0.27326504950E+01 -0.85736913355E+01  0.10438837190E+02  0.51100000000E-03 0.  1.
         11    1    1    0    0    0  0.25950716830E+02 -0.12623390635E+02 -0.43332466868E+02  0.52062389306E+02  0.51100000000E-03 0. -1.
         22    1    1    0    0    0 -0.31241629773E+02  0.15356041130E+02  0.51906158204E+02  0.62498773504E+02  0.00000000000E+00 0. -1.
</event>
<event>
 4    1  0.1964735E-002  0.9118800E+02  0.7818608E-02  0.1130116E+00
         25   -1    0    0    0    0  0.00000000000E+00  0.00000000000E+00  0.99999998245E-14  0.12500000000E+03  0.12500000000E+03 0.  0.
        -11    1    1    0    0    0 -0.46239232562E+02 -0.21146785487E+02 -0.20408762010E+02  0.54788417858E+02  0.51100000000E-03 0.  1.
         11    1    1    0    0    0 -0.48742485983E+01 -0.45816773916E+01 -0.42238469174E+01  0.79114442525E+01  0.51100000000E-03 0. -1.
         22    1    1    0    0    0  0.51113481160E+02  0.25728462879E+02  0.24632608927E+02  0.62300137889E+02  0.00000000000E+00 0.  1.
</event>
<event>
 4    1  0.1964735E-002  0.9118800E+02  0.7818608E-02  0.1130116E+00
         25   -1    0    0    0    0  0.00000000000E+00  0.00000000000E+00  0.99999998245E-14  0.12500000000E+03  0.12500000000E+03 0.  0.
        -11    1    1    0    0    0  0.33813220858E+01 -0.18059781871E+02 -0.19618727647E+02  0.26879053834E+02  0.51100000000E-03 0.  1.
         11    1    1    0    0    0  0.44517423622E+01 -0.24178376328E+02 -0.25777191807E+02  0.35621278888E+02  0.51100000000E-03 0. -1.
         22    1    1    0    0    0 -0.78330644479E+01  0.42238158199E+02  0.45395919454E+02  0.62499667277E+02  0.00000000000E+00 0. -1.
</event>
<event>
 4    1  0.1964735E-002  0.9118800E+02  0.7818608E-02  0.1130116E+00
         25   -1    0    0    0    0  0.00000000000E+00  0.00000000000E+00  0.99999998245E-14  0.12500000000E+03  0.12500000000E+03 0.  0.
        -11    1    1    0    0    0  0.85813904647E+01 -0.32574260667E+01  0.61165337447E+02  0.61850219015E+02  0.51100000000E-03 0.  1.
         11    1    1    0    0    0  0.90848359977E-01 -0.33134010816E-01  0.64254551363E+00  0.64978172134E+00  0.51100000000E-03 0. -1.
         22    1    1    0    0    0 -0.86722388247E+01  0.32905600775E+01 -0.61807882961E+02  0.62499999264E+02  0.00000000000E+00 0.  1.
</event>
<event>
 4    1  0.1964735E-002  0.9118800E+02  0.7818608E-02  0.1130116E+00
         25   -1    0    0    0    0  0.00000000000E+00  0.00000000000E+00  0.99999998245E-14  0.12500000000E+03  0.12500000000E+03 0.  0.
        -11    1    1    0    0    0 -0.15984361790E-01 -0.80026694524E+01  0.43972408244E+01  0.91311938427E+01  0.51100000000E-03 0. -1.
         11    1    1    0    0    0  0.23699988420E+00 -0.46687995678E+02  0.25853715041E+02  0.53368901909E+02  0.51100000000E-03 0.  1.
         22    1    1    0    0    0 -0.22101552241E+00  0.54690665130E+02 -0.30250955865E+02  0.62499904248E+02  0.00000000000E+00 0.  1.
</event>
<event>
 4    1  0.1964735E-002  0.9118800E+02  0.7818608E-02  0.1130116E+00
         25   -1    0    0    0    0  0.00000000000E+00  0.00000000000E+00  0.99999998245E-14  0.12500000000E+03  0.12500000000E+03 0.  0.
        -11    1    1    0    0    0 -0.87494762437E+01 -0.43565225471E+02  0.15667737198E+02  0.47116453538E+02  0.51100000000E-03 0.  1.
         11    1    1    0    0    0 -0.31246196711E+01 -0.14209897395E+02  0.50001220604E+01  0.15384591413E+02  0.51100000000E-03 0. -1.
         22    1    1    0    0    0  0.11874095915E+02  0.57775122865E+02 -0.20667859259E+02  0.62498955049E+02  0.00000000000E+00 0.  1.
</event>
<event>
 4    1  0.1964735E-002  0.9118800E+02  0.7818608E-02  0.1130116E+00
         25   -1    0    0    0    0  0.00000000000E+00  0.00000000000E+00  0.99999998245E-14  0.12500000000E+03  0.12500000000E+03 0.  0.
        -11    1    1    0    0    0  0.45600789372E+01  0.70915463025E+01 -0.15937161891E+01  0.85804592201E+01  0.51100000000E-03 0.  1.
         11    1    1    0    0    0  0.28652780231E+02  0.44566010824E+02 -0.10010281983E+02  0.53919540812E+02  0.51100000000E-03 0. -1.
         22    1    1    0    0    0 -0.33212859168E+02 -0.51657557127E+02  0.11603998172E+02  0.62499999968E+02  0.00000000000E+00 0. -1.
</event>
<event>
 4    1  0.1964735E-002  0.9118800E+02  0.7818608E-02  0.1130116E+00
         25   -1    0    0    0    0  0.00000000000E+00  0.00000000000E+00  0.99999998245E-14  0.12500000000E+03  0.12500000000E+03 0.  0.
        -11    1    1    0    0    0 -0.14995810540E+02  0.38414838488E+02 -0.10065672040E+02  0.42448697315E+02  0.51100000000E-03 0.  1.
         11    1    1    0    0    0 -0.12558935161E+02  0.15522602917E+02 -0.40180495353E+01  0.20367198532E+02  0.51100000000E-03 0. -1.
         22    1    1    0    0    0  0.27554745701E+02 -0.53937441405E+02  0.14083721575E+02  0.62184104154E+02  0.00000000000E+00 0. -1.
</event>
<event>
 4    1  0.1964735E-002  0.9118800E+02  0.7818608E-02  0.1130116E+00
         25   -1    0    0    0    0  0.00000000000E+00  0.00000000000E+00  0.99999998245E-14  0.12500000000E+03  0.12500000000E+03 0.  0.
        -11    1    1    0    0    0  0.31129426221E+01 -0.92606352056E+00  0.33363537630E+01  0.46560994519E+01  0.51100000000E-03 0.  1.
         11    1    1    0    0    0  0.37519607748E+02 -0.12120581716E+02  0.42324693038E+02  0.57844698182E+02  0.51100000000E-03 0. -1.
         22    1    1    0    0    0 -0.40632550370E+02  0.13046645237E+02 -0.45661046801E+02  0.62499202367E+02  0.00000000000E+00 0. -1.
</event>
<event>
 4    1  0.1964735E-002  0.9118800E+02  0.7818608E-02  0.1130116E+00
         25   -1    0    0    0    0  0.00000000000E+00  0.00000000000E+00  0.99999998245E-14  0.12500000000E+03  0.12500000000E+03 0.  0.
        -11    1    1    0    0    0  0.34991772778E+02 -0.64819431944E+00  0.97364212860E+01  0.36326880099E+02  0.51100000000E-03 0.  1.
         11    1    1    0    0    0  0.24366118410E+02  0.75688566918E+01  0.72887444045E+01  0.26535280538E+02  0.51100000000E-03 0. -1.
         22    1    1    0    0    0 -0.59357891188E+02 -0.69206623724E+01 -0.17025165691E+02  0.62137839363E+02  0.00000000000E+00 0.  1.
</event>
<event>
 4    1  0.1964735E-002  0.9118800E+02  0.7818608E-02  0.1130116E+00
         25   -1    0    0    0    0  0.00000000000E+00  0.00000000000E+00  0.99999998245E-14  0.12500000000E+03  0.12500000000E+03 0.  0.
        -11    1    1    0    0    0  0.11718816206E+02  0.25045607798E+02 -0.13144075451E+01  0.27682860956E+02  0.51100000000E-03 0.  1.
         11    1    1    0    0    0 -0.21074266894E+02  0.29635436810E+02 -0.15232984541E+02  0.39426230588E+02  0.51100000000E-03 0. -1.
         22    1    1    0    0    0  0.93554506886E+01 -0.54681044609E+02  0.16547392086E+02  0.57890908457E+02  0.00000000000E+00 0.  1.
</event>
<event>
 4    1  0.1964735E-002  0.9118800E+02  0.7818608E-02  0.1130116E+00
         25   -1    0    0    0    0  0.00000000000E+00  0.00000000000E+00  0.99999998245E-14  0.12500000000E+03  0.12500000000E+03 0.  0.
        -11    1    1    0    0    0  0.38345647689E+01 -0.35821214408E+01  0.35937288240E+02  0.36318372310E+02  0.51100000000E-03 0.  1.
         11    1    1    0    0    0  0.39702698637E+01  0.87815274980E+01  0.25121594680E+02  0.26906742417E+02  0.51100000000E-03 0. -1.
         22    1    1    0    0    0 -0.78048346326E+01 -0.51994060572E+01 -0.61058882920E+02  0.61774885272E+02  0.00000000000E+00 0. -1.
</event>
<event>
 4    1  0.1964735E-002  0.9118800E+02  0.7818608E-02  0.1130116E+00
         25   -1    0    0    0    0  0.00000000000E+00  0.00000000000E+00  0.99999998245E-14  0.12500000000E+03  0.12500000000E+03 0.  0.
        -11    1    1    0    0    0 -0.18802975521E+00 -0.41853291413E+00  0.94324571309E-01  0.46842542088E+00  0.51100000000E-03 0. -1.
         11    1    1    0    0    0  0.56020328101E+02 -0.26412818389E+02  0.63156669446E+01  0.62255937749E+02  0.51100000000E-03 0.  1.
         22    1    1    0    0    0 -0.55832298346E+02  0.26831351303E+02 -0.64099915159E+01  0.62275636830E+02  0.00000000000E+00 0.  1.
</event>
<event>
 4    1  0.1964735E-002  0.9118800E+02  0.7818608E-02  0.1130116E+00
         25   -1    0    0    0    0  0.00000000000E+00  0.00000000000E+00  0.99999998245E-14  0.12500000000E+03  0.12500000000E+03 0.  0.
        -11    1    1    0    0    0  0.80555419588E+01  0.30739447829E+01  0.33327241895E+02  0.34424496298E+02  0.51100000000E-03 0.  1.
         11    1    1    0    0    0  0.61271137519E+01  0.20874597874E+01  0.27321105209E+02  0.28077425120E+02  0.51100000000E-03 0. -1.
         22    1    1    0    0    0 -0.14182655711E+02 -0.51614045704E+01 -0.60648347103E+02  0.62498078582E+02  0.00000000000E+00 0. -1.
</event>
<event>
 4    1  0.1964735E-002  0.9118800E+02  0.7818608E-02  0.1130116E+00
         25   -1    0    0    0    0  0.00000000000E+00  0.00000000000E+00  0.99999998245E-14  0.12500000000E+03  0.12500000000E+03 0.  0.
        -11    1    1    0    0    0  0.56672541853E+00  0.17963686923E+01 -0.99797887342E+01  0.10155998307E+02  0.51100000000E-03 0. -1.
         11    1    1    0    0    0  0.26070615371E+01  0.97805592124E+01 -0.51356295302E+02  0.52344294587E+02  0.51100000000E-03 0.  1.
         22    1    1    0    0    0 -0.31737869556E+01 -0.11576927905E+02  0.61336084037E+02  0.62499707106E+02  0.00000000000E+00 0.  1.
</event>
<event>
 4    1  0.1964735E-002  0.9118800E+02  0.7818608E-02  0.1130116E+00
         25   -1    0    0    0    0  0.00000000000E+00  0.00000000000E+00  0.99999998245E-14  0.12500000000E+03  0.12500000000E+03 0.  0.
        -11    1    1    0    0    0  0.97454067198E+01 -0.16131570163E+02 -0.71334898716E+01  0.20151605050E+02  0.51100000000E-03 0.  1.
         11    1    1    0    0    0  0.20529331325E+02 -0.33824874705E+02 -0.15093507520E+02  0.42348430466E+02  0.51100000000E-03 0. -1.
         22    1    1    0    0    0 -0.30274738045E+02  0.49956444868E+02  0.22226997391E+02  0.62499964484E+02  0.00000000000E+00 0. -1.
</event>
<event>
 4    1  0.1964735E-002  0.9118800E+02  0.7818608E-02  0.1130116E+00
         25   -1    0    0    0    0  0.00000000000E+00  0.00000000000E+00  0.99999998245E-14  0.12500000000E+03  0.12500000000E+03 0.  0.
        -11    1    1    0    0    0  0.17239208026E+02  0.51161828090E+01 -0.22348083525E+02  0.28684533418E+02  0.51100000000E-03 0.  1.
         11    1    1    0    0    0  0.20322690601E+02  0.60332796343E+01 -0.26345275946E+02  0.33815466599E+02  0.51100000000E-03 0. -1.
         22    1    1    0    0    0 -0.37561898627E+02 -0.11149462443E+02  0.48693359471E+02  0.62499999983E+02  0.00000000000E+00 0. -1.
</event>
<event>
 4    1  0.1964735E-002  0.9118800E+02  0.7818608E-02  0.1130116E+00
         25   -1    0    0    0    0  0.00000000000E+00  0.00000000000E+00  0.99999998245E-14  0.12500000000E+03  0.12500000000E+03 0.  0.
        -11    1    1    0    0    0  0.96223792207E+01 -0.23713075894E+01 -0.63013645416E+01  0.11743954909E+02  0.51100000000E-03 0.  1.
         11    1    1    0    0    0  0.41592677260E+02 -0.10253881723E+02 -0.27222844063E+02  0.50756045267E+02  0.51100000000E-03 0. -1.
         22    1    1    0    0    0 -0.51215056481E+02  0.12625189312E+02  0.33524208604E+02  0.62499999824E+02  0.00000000000E+00 0. -1.
</event>
<event>
 4    1  0.1964735E-002  0.9118800E+02  0.7818608E-02  0.1130116E+00
         25   -1    0    0    0    0  0.00000000000E+00  0.00000000000E+00  0.99999998245E-14  0.12500000000E+03  0.12500000000E+03 0.  0.
        -11    1    1    0    0    0 -0.34801009535E+01  0.54070141493E+01  0.66351812745E+01  0.92397259410E+01  0.51100000000E-03 0.  1.
         11    1    1    0    0    0 -0.20795116666E+02  0.32142003302E+02  0.37031484825E+02  0.53262333051E+02  0.51100000000E-03 0. -1.
         22    1    1    0    0    0  0.24275217619E+02 -0.37549017451E+02 -0.43666666100E+02  0.62497941008E+02  0.00000000000E+00 0. -1.
</event>
<event>
 4    1  0.1964735E-002  0.9118800E+02  0.7818608E-02  0.1130116E+00
         25   -1    0    0    0    0  0.00000000000E+00  0.00000000000E+00  0.99999998245E-14  0.12500000000E+03  0.12500000000E+03 0.  0.
        -11    1    1    0    0    0 -0.25585551655E+01 -0.77147179956E+00  0.15271666190E+02  0.15503714450E+02  0.51100000000E-03 0.  1.
         11    1    1    0    0    0 -0.88302796803E+01 -0.55346612699E+01  0.45841903944E+02  0.47011556793E+02  0.51100000000E-03 0. -1.
         22    1    1    0    0    0  0.11388834846E+02  0.63061330694E+01 -0.61113570134E+02  0.62484728758E+02  0.00000000000E+00 0.  1.
</event>
<event>
 4    1  0.1964735E-002  0.9118800E+02  0.7818608E-02  0.1130116E+00
         25   -1    0    0    0    0  0.00000000000E+00  0.00000000000E+00  0.99999998245E-14  0.12500000000E+03  0.12500000000E+03 0.  0.
        -11    1    1    0    0    0 -0.26708777530E+02  0.28455143050E+02 -0.10842143752E+02  0.40504395373E+02  0.51100000000E-03 0. -1.
         11    1    1    0    0    0 -0.14508520555E+02  0.15451203532E+02 -0.58796081538E+01  0.21995605279E+02  0.51100000000E-03 0.  1.
         22    1    1    0    0    0  0.41217298085E+02 -0.43906346582E+02  0.16721751906E+02  0.62499999348E+02  0.00000000000E+00 0. -1.
</event>
<event>
 4    1  0.1964735E-002  0.9118800E+02  0.7818608E-02  0.1130116E+00
         25   -1    0    0    0    0  0.00000000000E+00  0.00000000000E+00  0.99999998245E-14  0.12500000000E+03  0.12500000000E+03 0.  0.
        -11    1    1    0    0    0 -0.57096751775E+01 -0.18369488392E+02  0.20453094495E+01  0.19344812882E+02  0.51100000000E-03 0. -1.
         11    1    1    0    0    0 -0.12731211514E+02 -0.40983341583E+02  0.45444693308E+01  0.43155187819E+02  0.51100000000E-03 0.  1.
         22    1    1    0    0    0  0.18440886692E+02  0.59352829975E+02 -0.65897787803E+01  0.62499999299E+02  0.00000000000E+00 0.  1.
</event>
<event>
 4    1  0.1964735E-002  0.9118800E+02  0.7818608E-02  0.1130116E+00
         25   -1    0    0    0    0  0.00000000000E+00  0.00000000000E+00  0.99999998245E-14  0.12500000000E+03  0.12500000000E+03 0.  0.
        -11    1    1    0    0    0  0.16203121160E+02 -0.10378995100E+02 -0.15267277222E+02  0.24563273980E+02  0.51100000000E-03 0. -1.
         11    1    1    0    0    0  0.25031694041E+02 -0.15965740351E+02 -0.23615793111E+02  0.37936740187E+02  0.51100000000E-03 0.  1.
         22    1    1    0    0    0 -0.41234815200E+02  0.26344735451E+02  0.38883070333E+02  0.62499985833E+02  0.00000000000E+00 0. -1.
</event>
<event>
 4    1  0.1964735E-002  0.9118800E+02  0.7818608E-02  0.1130116E+00
         25   -1    0    0    0    0  0.00000000000E+00  0.00000000000E+00  0.99999998245E-14  0.12500000000E+03  0.12500000000E+03 0.  0.
        -11    1    1    0    0    0  0.28612897471E+01  0.13394390368E+01  0.13831431707E+02  0.14187655877E+02  0.51100000000E-03 0.  1.
         11    1    1    0    0    0  0.99684714834E+01  0.39766446019E+01  0.47105657799E+02  0.48312804958E+02  0.51100000000E-03 0. -1.
         22    1    1    0    0    0 -0.12829761230E+02 -0.53160836387E+01 -0.60937089506E+02  0.62499539165E+02  0.00000000000E+00 0. -1.
</event>
<event>
 4    1  0.1964735E-002  0.9118800E+02  0.7818608E-02  0.1130116E+00
         25   -1    0    0    0    0  0.00000000000E+00  0.00000000000E+00  0.99999998245E-14  0.12500000000E+03  0.12500000000E+03 0.  0.
        -11    1    1    0    0    0  0.31918303083E+02  0.16235102450E+02 -0.21656999971E+01  0.35875435607E+02  0.51100000000E-03 0.  1.
         11    1    1    0    0    0  0.23441644387E+02  0.12454341371E+02 -0.20924395084E+01  0.26627046661E+02  0.51100000000E-03 0. -1.
         22    1    1    0    0    0 -0.55359947470E+02 -0.28689443821E+02  0.42581395055E+01  0.62497517732E+02  0.00000000000E+00 0.  1.
</event>
<event>
 4    1  0.1964735E-002  0.9118800E+02  0.7818608E-02  0.1130116E+00
         25   -1    0    0    0    0  0.00000000000E+00  0.00000000000E+00  0.99999998245E-14  0.12500000000E+03  0.12500000000E+03 0.  0.
        -11    1    1    0    0    0  0.76204773534E+01  0.11835192238E+01 -0.15486694816E+01  0.78657974975E+01  0.51100000000E-03 0.  1.
         11    1    1    0    0    0  0.49118989074E+02 -0.16468612104E+02 -0.18553924231E+02  0.55028523303E+02  0.51100000000E-03 0. -1.
         22    1    1    0    0    0 -0.56739466428E+02  0.15285092880E+02  0.20102593713E+02  0.62105679199E+02  0.00000000000E+00 0. -1.
</event>
<event>
 4    1  0.1964735E-002  0.9118800E+02  0.7818608E-02  0.1130116E+00
         25   -1    0    0    0    0  0.00000000000E+00  0.00000000000E+00  0.99999998245E-14  0.12500000000E+03  0.12500000000E+03 0.  0.
        -11    1    1    0    0    0  0.28382079951E+02  0.22153121004E+02  0.16320560502E+02  0.39530544241E+02  0.51100000000E-03 0.  1.
         11    1    1    0    0    0  0.16438553250E+02  0.13410393907E+02  0.88183600127E+01  0.22974511339E+02  0.51100000000E-03 0. -1.
         22    1    1    0    0    0 -0.44820633201E+02 -0.35563514911E+02 -0.25138920515E+02  0.62494944420E+02  0.00000000000E+00 0.  1.
</event>
<event>
 4    1  0.1964735E-002  0.9118800E+02  0.7818608E-02  0.1130116E+00
         25   -1    0    0    0    0  0.00000000000E+00  0.00000000000E+00  0.99999998245E-14  0.12500000000E+03  0.12500000000E+03 0.  0.
        -11    1    1    0    0    0  0.13629369642E+02 -0.50281068815E+02  0.25182695793E+01  0.52156373340E+02  0.51100000000E-03 0. -1.
         11    1    1    0    0    0  0.45813822081E+01 -0.91752442934E+01 -0.29078803170E+01  0.10659734470E+02  0.51100000000E-03 0.  1.
         22    1    1    0    0    0 -0.18210751850E+02  0.59456313108E+02  0.38961073769E+00  0.62183892190E+02  0.00000000000E+00 0. -1.
</event>
<event>
 4    1  0.1964735E-002  0.9118800E+02  0.7818608E-02  0.1130116E+00
         25   -1    0    0    0    0  0.00000000000E+00  0.00000000000E+00  0.99999998245E-14  0.12500000000E+03  0.12500000000E+03 0.  0.
        -11    1    1    0    0    0  0.38037381478E+01 -0.29366125704E+02 -0.46869806154E+02  0.55440206456E+02  0.51100000000E-03 0. -1.
         11    1    1    0    0    0  0.48314884397E+00 -0.37218230622E+01 -0.59795885764E+01  0.70598073285E+01  0.51100000000E-03 0.  1.
         22    1    1    0    0    0 -0.42868869918E+01  0.33087948766E+02  0.52849394730E+02  0.62499986216E+02  0.00000000000E+00 0. -1.
</event>
<event>
 4    1  0.1964735E-002  0.9118800E+02  0.7818608E-02  0.1130116E+00
         25   -1    0    0    0    0  0.00000000000E+00  0.00000000000E+00  0.99999998245E-14  0.12500000000E+03  0.12500000000E+03 0.  0.
        -11    1    1    0    0    0 -0.16615717492E+01 -0.54540992760E+01 -0.17116109655E+02  0.18040765771E+02  0.51100000000E-03 0. -1.
         11    1    1    0    0    0 -0.40478252948E+01 -0.13421636820E+02 -0.42191215577E+02  0.44459238597E+02  0.51100000000E-03 0.  1.
         22    1    1    0    0    0  0.57093970440E+01  0.18875736096E+02  0.59307325232E+02  0.62499995632E+02  0.00000000000E+00 0. -1.
</event>
<event>
 4    1  0.1964735E-002  0.9118800E+02  0.7818608E-02  0.1130116E+00
         25   -1    0    0    0    0  0.00000000000E+00  0.00000000000E+00  0.99999998245E-14  0.12500000000E+03  0.12500000000E+03 0.  0.
        -11    1    1    0    0    0  0.17060117112E+02 -0.30369153474E+02  0.19723463993E+02  0.40029340623E+02  0.51100000000E-03 0.  1.
         11    1    1    0    0    0  0.95836091183E+01 -0.17065187035E+02  0.11039239660E+02  0.22470669433E+02  0.51100000000E-03 0. -1.
         22    1    1    0    0    0 -0.26643726230E+02  0.47434340508E+02 -0.30762703653E+02  0.62499989943E+02  0.00000000000E+00 0.  1.
</event>
<event>
 4    1  0.1964735E-002  0.9118800E+02  0.7818608E-02  0.1130116E+00
         25   -1    0    0    0    0  0.00000000000E+00  0.00000000000E+00  0.99999998245E-14  0.12500000000E+03  0.12500000000E+03 0.  0.
        -11    1    1    0    0    0  0.89913937569E+01 -0.93720344179E+01 -0.42663225009E+01  0.13670468125E+02  0.51100000000E-03 0.  1.
         11    1    1    0    0    0  0.14779995059E+02  0.55114262304E+02  0.14266976745E+02  0.58818167167E+02  0.51100000000E-03 0. -1.
         22    1    1    0    0    0 -0.23771388816E+02 -0.45742227886E+02 -0.10000654244E+02  0.52511364708E+02  0.00000000000E+00 0. -1.
</event>
<event>
 4    1  0.1964735E-002  0.9118800E+02  0.7818608E-02  0.1130116E+00
         25   -1    0    0    0    0  0.00000000000E+00  0.00000000000E+00  0.99999998245E-14  0.12500000000E+03  0.12500000000E+03 0.  0.
        -11    1    1    0    0    0  0.78960751997E+01  0.17865583106E+02  0.53038821464E+01  0.20240015547E+02  0.51100000000E-03 0.  1.
         11    1    1    0    0    0  0.17457983940E+02  0.36841970849E+02  0.11134719483E+02  0.42262205308E+02  0.51100000000E-03 0. -1.
         22    1    1    0    0    0 -0.25354059140E+02 -0.54707553954E+02 -0.16438601629E+02  0.62497779145E+02  0.00000000000E+00 0. -1.
</event>
<event>
 4    1  0.1964735E-002  0.9118800E+02  0.7818608E-02  0.1130116E+00
         25   -1    0    0    0    0  0.00000000000E+00  0.00000000000E+00  0.99999998245E-14  0.12500000000E+03  0.12500000000E+03 0.  0.
        -11    1    1    0    0    0  0.12055158177E+01 -0.17491774777E+01 -0.30092087130E+01  0.36835075097E+01  0.51100000000E-03 0.  1.
         11    1    1    0    0    0  0.16788867087E+02 -0.27402135952E+02 -0.49263238424E+02  0.58818447557E+02  0.51100000000E-03 0. -1.
         22    1    1    0    0    0 -0.17994382904E+02  0.29151313430E+02  0.52272447137E+02  0.62498044933E+02  0.00000000000E+00 0. -1.
</event>
<event>
 4    1  0.1964735E-002  0.9118800E+02  0.7818608E-02  0.1130116E+00
         25   -1    0    0    0    0  0.00000000000E+00  0.00000000000E+00  0.99999998245E-14  0.12500000000E+03  0.12500000000E+03 0.  0.
        -11    1    1    0    0    0  0.84849235505E+01 -0.33114950013E+02 -0.45715893003E+02  0.57083594100E+02  0.51100000000E-03 0.  1.
         11    1    1    0    0    0  0.85444632218E+00 -0.30692587876E+01 -0.43807998435E+01  0.54168104594E+01  0.51100000000E-03 0. -1.
         22    1    1    0    0    0 -0.93393698727E+01  0.36184208801E+02  0.50096692846E+02  0.62499595441E+02  0.00000000000E+00 0.  1.
</event>
<event>
 4    1  0.1964735E-002  0.9118800E+02  0.7818608E-02  0.1130116E+00
         25   -1    0    0    0    0  0.00000000000E+00  0.00000000000E+00  0.99999998245E-14  0.12500000000E+03  0.12500000000E+03 0.  0.
        -11    1    1    0    0    0 -0.19999837517E+02 -0.18594364390E+02 -0.68569115384E+01  0.28156013991E+02  0.51100000000E-03 0. -1.
         11    1    1    0    0    0 -0.24451049011E+02 -0.22604615824E+02 -0.84076967839E+01  0.34344021601E+02  0.51100000000E-03 0.  1.
         22    1    1    0    0    0  0.44450886528E+02  0.41198980214E+02  0.15264608322E+02  0.62499964408E+02  0.00000000000E+00 0. -1.
</event>
<event>
 4    1  0.1964735E-002  0.9118800E+02  0.7818608E-02  0.1130116E+00
         25   -1    0    0    0    0  0.00000000000E+00  0.00000000000E+00  0.99999998245E-14  0.12500000000E+03  0.12500000000E+03 0.  0.
        -11    1    1    0    0    0  0.28330039045E+02  0.40385989235E+02  0.37179576419E+02  0.61773296349E+02  0.51100000000E-03 0. -1.
         11    1    1    0    0    0  0.30758743437E+00  0.47987315420E+00  0.45126763500E+00  0.72700138474E+00  0.51100000000E-03 0.  1.
         22    1    1    0    0    0 -0.28637626480E+02 -0.40865862389E+02 -0.37630844054E+02  0.62499702267E+02  0.00000000000E+00 0. -1.
</event>
<event>
 4    1  0.1964735E-002  0.9118800E+02  0.7818608E-02  0.1130116E+00
         25   -1    0    0    0    0  0.00000000000E+00  0.00000000000E+00  0.99999998245E-14  0.12500000000E+03  0.12500000000E+03 0.  0.
        -11    1    1    0    0    0  0.18010958947E+02 -0.42602940634E+01 -0.15912488931E+01  0.18576243458E+02  0.51100000000E-03 0. -1.
         11    1    1    0    0    0  0.42571809767E+02 -0.10159165122E+02 -0.37054521010E+01  0.43923774865E+02  0.51100000000E-03 0.  1.
         22    1    1    0    0    0 -0.60582768714E+02  0.14419459185E+02  0.52967009941E+01  0.62499981678E+02  0.00000000000E+00 0.  1.
</event>
<event>
 4    1  0.1964735E-002  0.9118800E+02  0.7818608E-02  0.1130116E+00
         25   -1    0    0    0    0  0.00000000000E+00  0.00000000000E+00  0.99999998245E-14  0.12500000000E+03  0.12500000000E+03 0.  0.
        -11    1    1    0    0    0 -0.20817172607E+01 -0.86241737472E+01 -0.16808808054E+01  0.90296888163E+01  0.51100000000E-03 0. -1.
         11    1    1    0    0    0 -0.12251666670E+02 -0.51042818652E+02 -0.10178685069E+02  0.53470349747E+02  0.51100000000E-03 0.  1.
         22    1    1    0    0    0  0.14333383931E+02  0.59666992399E+02  0.11859565874E+02  0.62499961436E+02  0.00000000000E+00 0.  1.
</event>
<event>
 4    1  0.1964735E-002  0.9118800E+02  0.7818608E-02  0.1130116E+00
         25   -1    0    0    0    0  0.00000000000E+00  0.00000000000E+00  0.99999998245E-14  0.12500000000E+03  0.12500000000E+03 0.  0.
        -11    1    1    0    0    0  0.26080032560E+00 -0.69938506814E+00 -0.76969033265E+00  0.10721845702E+01  0.51100000000E-03 0.  1.
         11    1    1    0    0    0  0.29947876636E+02 -0.29229603056E+02 -0.45000871290E+02  0.61451797589E+02  0.51100000000E-03 0. -1.
         22    1    1    0    0    0 -0.30208676962E+02  0.29928988124E+02  0.45770561623E+02  0.62476017840E+02  0.00000000000E+00 0. -1.
</event>
<event>
 4    1  0.1964735E-002  0.9118800E+02  0.7818608E-02  0.1130116E+00
         25   -1    0    0    0    0  0.00000000000E+00  0.00000000000E+00  0.99999998245E-14  0.12500000000E+03  0.12500000000E+03 0.  0.
        -11    1    1    0    0    0 -0.30755276261E+02 -0.42590409224E+00  0.12493735740E+02  0.33198822949E+02  0.51100000000E-03 0. -1.
         11    1    1    0    0    0 -0.24901919815E+02 -0.64085608824E+00  0.15655599257E+02  0.29421320421E+02  0.51100000000E-03 0.  1.
         22    1    1    0    0    0  0.55657196076E+02  0.10667601805E+01 -0.28149334997E+02  0.62379856629E+02  0.00000000000E+00 0.  1.
</event>
<event>
 4    1  0.1964735E-002  0.9118800E+02  0.7818608E-02  0.1130116E+00
         25   -1    0    0    0    0  0.00000000000E+00  0.00000000000E+00  0.99999998245E-14  0.12500000000E+03  0.12500000000E+03 0.  0.
        -11    1    1    0    0    0  0.77399383697E+00  0.69138085947E+01 -0.48686927845E+01  0.84914065640E+01  0.51100000000E-03 0. -1.
         11    1    1    0    0    0  0.36766807553E+02  0.21748752334E+02  0.39310455326E+02  0.58052719694E+02  0.51100000000E-03 0.  1.
         22    1    1    0    0    0 -0.37540801390E+02 -0.28662560929E+02 -0.34441762541E+02  0.58455873742E+02  0.00000000000E+00 0.  1.
</event>
<event>
 4    1  0.1964735E-002  0.9118800E+02  0.7818608E-02  0.1130116E+00
         25   -1    0    0    0    0  0.00000000000E+00  0.00000000000E+00  0.99999998245E-14  0.12500000000E+03  0.12500000000E+03 0.  0.
        -11    1    1    0    0    0  0.16888981736E+01  0.23179472347E+01 -0.26844609302E+01  0.39283058906E+01  0.51100000000E-03 0.  1.
         11    1    1    0    0    0  0.25271730661E+02  0.34422219828E+02 -0.40088586253E+02  0.58571702523E+02  0.51100000000E-03 0. -1.
         22    1    1    0    0    0 -0.26960628835E+02 -0.36740167063E+02  0.42773047183E+02  0.62499991586E+02  0.00000000000E+00 0. -1.
</event>
<event>
 4    1  0.1964735E-002  0.9118800E+02  0.7818608E-02  0.1130116E+00
         25   -1    0    0    0    0  0.00000000000E+00  0.00000000000E+00  0.99999998245E-14  0.12500000000E+03  0.12500000000E+03 0.  0.
        -11    1    1    0    0    0 -0.65436659875E+01  0.60952531631E+01 -0.38306293584E+01  0.97285865993E+01  0.51100000000E-03 0. -1.
         11    1    1    0    0    0 -0.37498497560E+02  0.34668445277E+02 -0.13470532189E+02  0.52815657290E+02  0.51100000000E-03 0.  1.
         22    1    1    0    0    0  0.44042163548E+02 -0.40763698440E+02  0.17301161548E+02  0.62455756111E+02  0.00000000000E+00 0.  1.
</event>
<event>
 4    1  0.1964735E-002  0.9118800E+02  0.7818608E-02  0.1130116E+00
         25   -1    0    0    0    0  0.00000000000E+00  0.00000000000E+00  0.99999998245E-14  0.12500000000E+03  0.12500000000E+03 0.  0.
        -11    1    1    0    0    0  0.50549438346E+02 -0.21065961668E+02 -0.27699834034E+01  0.54833322591E+02  0.51100000000E-03 0. -1.
         11    1    1    0    0    0  0.70674763993E+01 -0.29459453484E+01 -0.38746083625E+00  0.76666774297E+01  0.51100000000E-03 0. -1.
         22    1    1    0    0    0 -0.57616914745E+02  0.24011907016E+02  0.31574442397E+01  0.62499999979E+02  0.00000000000E+00 0. -1.
</event>
<event>
 4    1  0.1964735E-002  0.9118800E+02  0.7818608E-02  0.1130116E+00
         25   -1    0    0    0    0  0.00000000000E+00  0.00000000000E+00  0.99999998245E-14  0.12500000000E+03  0.12500000000E+03 0.  0.
        -11    1    1    0    0    0 -0.22158645167E+02  0.16668256540E+02 -0.49990429052E+02  0.57165368264E+02  0.51100000000E-03 0. -1.
         11    1    1    0    0    0 -0.16926505301E+01  0.12007227740E+01 -0.49300759175E+01  0.53490606475E+01  0.51100000000E-03 0.  1.
         22    1    1    0    0    0  0.23851295697E+02 -0.17868979314E+02  0.54920504969E+02  0.62485571088E+02  0.00000000000E+00 0. -1.
</event>
<event>
 4    1  0.1964735E-002  0.9118800E+02  0.7818608E-02  0.1130116E+00
         25   -1    0    0    0    0  0.00000000000E+00  0.00000000000E+00  0.99999998245E-14  0.12500000000E+03  0.12500000000E+03 0.  0.
        -11    1    1    0    0    0  0.32560206415E+01 -0.17386043422E+02 -0.13479785921E+01  0.17739594776E+02  0.51100000000E-03 0.  1.
         11    1    1    0    0    0  0.95916382225E+01 -0.42992539955E+02 -0.81695538106E+01  0.44800665456E+02  0.51100000000E-03 0. -1.
         22    1    1    0    0    0 -0.12847658864E+02  0.60378583377E+02  0.95175324026E+01  0.62459739768E+02  0.00000000000E+00 0. -1.
</event>
<event>
 4    1  0.1964735E-002  0.9118800E+02  0.7818608E-02  0.1130116E+00
         25   -1    0    0    0    0  0.00000000000E+00  0.00000000000E+00  0.99999998245E-14  0.12500000000E+03  0.12500000000E+03 0.  0.
        -11    1    1    0    0    0 -0.27315379491E+01 -0.32915087667E+02 -0.29755521521E+02  0.44455093712E+02  0.51100000000E-03 0. -1.
         11    1    1    0    0    0 -0.92859336704E+00 -0.13272940567E+02 -0.12190330720E+02  0.18045426021E+02  0.51100000000E-03 0.  1.
         22    1    1    0    0    0  0.36601313162E+01  0.46188028234E+02  0.41945852241E+02  0.62499480267E+02  0.00000000000E+00 0. -1.
</event>
<event>
 4    1  0.1964735E-002  0.9118800E+02  0.7818608E-02  0.1130116E+00
         25   -1    0    0    0    0  0.00000000000E+00  0.00000000000E+00  0.99999998245E-14  0.12500000000E+03  0.12500000000E+03 0.  0.
        -11    1    1    0    0    0 -0.32882967265E+02  0.47970676982E+02  0.66470440594E+00  0.58162850845E+02  0.51100000000E-03 0.  1.
         11    1    1    0    0    0  0.74038909549E+01 -0.92062797046E+00 -0.10047523589E+02  0.12514706855E+02  0.51100000000E-03 0. -1.
         22    1    1    0    0    0  0.25479076310E+02 -0.47050049011E+02  0.93828191827E+01  0.54322442300E+02  0.00000000000E+00 0.  1.
</event>
<event>
 4    1  0.1964735E-002  0.9118800E+02  0.7818608E-02  0.1130116E+00
         25   -1    0    0    0    0  0.00000000000E+00  0.00000000000E+00  0.99999998245E-14  0.12500000000E+03  0.12500000000E+03 0.  0.
        -11    1    1    0    0    0  0.81523138086E+01  0.59905422560E+01  0.34813473019E+01  0.10698906311E+02  0.51100000000E-03 0. -1.
         11    1    1    0    0    0  0.39458728496E+02  0.28949639045E+02  0.16978869871E+02  0.51801108846E+02  0.51100000000E-03 0.  1.
         22    1    1    0    0    0 -0.47611042304E+02 -0.34940181301E+02 -0.20460217173E+02  0.62499984843E+02  0.00000000000E+00 0.  1.
</event>
<event>
 4    1  0.1964735E-002  0.9118800E+02  0.7818608E-02  0.1130116E+00
         25   -1    0    0    0    0  0.00000000000E+00  0.00000000000E+00  0.99999998245E-14  0.12500000000E+03  0.12500000000E+03 0.  0.
        -11    1    1    0    0    0 -0.31057081692E+02  0.23269019531E+02  0.13320239650E+02  0.41029481812E+02  0.51100000000E-03 0.  1.
         11    1    1    0    0    0 -0.16251505629E+02  0.12176873064E+02  0.69710457335E+01  0.21470518199E+02  0.51100000000E-03 0.  1.
         22    1    1    0    0    0  0.47308587321E+02 -0.35445892595E+02 -0.20291285384E+02  0.62499999990E+02  0.00000000000E+00 0.  1.
</event>
<event>
 4    1  0.1964735E-002  0.9118800E+02  0.7818608E-02  0.1130116E+00
         25   -1    0    0    0    0  0.00000000000E+00  0.00000000000E+00  0.99999998245E-14  0.12500000000E+03  0.12500000000E+03 0.  0.
        -11    1    1    0    0    0  0.30299981848E+02  0.41193311245E+02 -0.31199282611E+02  0.59903030199E+02  0.51100000000E-03 0. -1.
         11    1    1    0    0    0  0.16446046046E+01  0.18774962400E+01 -0.83632623958E+00  0.26323294393E+01  0.51100000000E-03 0.  1.
         22    1    1    0    0    0 -0.31944586453E+02 -0.43070807485E+02  0.32035608851E+02  0.62464640362E+02  0.00000000000E+00 0. -1.
</event>
<event>
 4    1  0.1964735E-002  0.9118800E+02  0.7818608E-02  0.1130116E+00
         25   -1    0    0    0    0  0.00000000000E+00  0.00000000000E+00  0.99999998245E-14  0.12500000000E+03  0.12500000000E+03 0.  0.
        -11    1    1    0    0    0 -0.13275310816E+02 -0.11382305099E+02  0.10150849698E+02  0.20219557277E+02  0.51100000000E-03 0.  1.
         11    1    1    0    0    0 -0.27779544910E+02 -0.23961809340E+02  0.21018459230E+02  0.42280575338E+02  0.51100000000E-03 0. -1.
         22    1    1    0    0    0  0.41054855726E+02  0.35344114439E+02 -0.31169308927E+02  0.62499867385E+02  0.00000000000E+00 0. -1.
</event>
<event>
 4    1  0.1964735E-002  0.9118800E+02  0.7818608E-02  0.1130116E+00
         25   -1    0    0    0    0  0.00000000000E+00  0.00000000000E+00  0.99999998245E-14  0.12500000000E+03  0.12500000000E+03 0.  0.
        -11    1    1    0    0    0  0.34968863136E+02  0.15200183632E+01  0.29076651405E+02  0.45503664710E+02  0.51100000000E-03 0.  1.
         11    1    1    0    0    0  0.13061317351E+02  0.56345231457E+00  0.10860935987E+02  0.16996335495E+02  0.51100000000E-03 0. -1.
         22    1    1    0    0    0 -0.48030180488E+02 -0.20834706778E+01 -0.39937587392E+02  0.62499999795E+02  0.00000000000E+00 0.  1.
</event>
<event>
 4    1  0.1964735E-002  0.9118800E+02  0.7818608E-02  0.1130116E+00
         25   -1    0    0    0    0  0.00000000000E+00  0.00000000000E+00  0.99999998245E-14  0.12500000000E+03  0.12500000000E+03 0.  0.
        -11    1    1    0    0    0  0.89333448687E+00  0.10100945395E+01 -0.74394432872E+00  0.15400619824E+01  0.51100000000E-03 0.  1.
         11    1    1    0    0    0  0.37243861424E+02  0.38007635176E+02 -0.29740902851E+02  0.60960699209E+02  0.51100000000E-03 0. -1.
         22    1    1    0    0    0 -0.38137195911E+02 -0.39017729716E+02  0.30484847179E+02  0.62499238808E+02  0.00000000000E+00 0. -1.
</event>
<event>
 4    1  0.1964735E-002  0.9118800E+02  0.7818608E-02  0.1130116E+00
         25   -1    0    0    0    0  0.00000000000E+00  0.00000000000E+00  0.99999998245E-14  0.12500000000E+03  0.12500000000E+03 0.  0.
        -11    1    1    0    0    0  0.73133468187E+01 -0.24198593809E+02 -0.48415608453E+02  0.54618020159E+02  0.51100000000E-03 0.  1.
         11    1    1    0    0    0  0.99064866833E+01  0.14321539403E+02 -0.67756491820E+00  0.17427107154E+02  0.51100000000E-03 0. -1.
         22    1    1    0    0    0 -0.17219833502E+02  0.98770544052E+01  0.49093173371E+02  0.52954872686E+02  0.00000000000E+00 0.  1.
</event>
<event>
 4    1  0.1964735E-002  0.9118800E+02  0.7818608E-02  0.1130116E+00
         25   -1    0    0    0    0  0.00000000000E+00  0.00000000000E+00  0.99999998245E-14  0.12500000000E+03  0.12500000000E+03 0.  0.
        -11    1    1    0    0    0 -0.75565992562E+01 -0.43925739338E+02  0.37405713213E+02  0.58187285123E+02  0.51100000000E-03 0. -1.
         11    1    1    0    0    0  0.46131663049E+01 -0.37825011866E+01  0.23802914488E+00  0.59703665480E+01  0.51100000000E-03 0.  1.
         22    1    1    0    0    0  0.29434329514E+01  0.47708240525E+02 -0.37643742358E+02  0.60842348329E+02  0.00000000000E+00 0. -1.
</event>
<event>
 4    1  0.1964735E-002  0.9118800E+02  0.7818608E-02  0.1130116E+00
         25   -1    0    0    0    0  0.00000000000E+00  0.00000000000E+00  0.99999998245E-14  0.12500000000E+03  0.12500000000E+03 0.  0.
        -11    1    1    0    0    0 -0.27760892575E+02 -0.39252273016E+02  0.32395640427E+02  0.57973145614E+02  0.51100000000E-03 0. -1.
         11    1    1    0    0    0 -0.37793820389E+01 -0.44852344362E-01  0.35066448353E+01  0.51558024197E+01  0.51100000000E-03 0.  1.
         22    1    1    0    0    0  0.31540274614E+02  0.39297125360E+02 -0.35902285263E+02  0.61871051966E+02  0.00000000000E+00 0. -1.
</event>
<event>
 4    1  0.1964735E-002  0.9118800E+02  0.7818608E-02  0.1130116E+00
         25   -1    0    0    0    0  0.00000000000E+00  0.00000000000E+00  0.99999998245E-14  0.12500000000E+03  0.12500000000E+03 0.  0.
        -11    1    1    0    0    0  0.27368083498E+02 -0.41339027087E+02 -0.17540601443E+02  0.52588970841E+02  0.51100000000E-03 0.  1.
         11    1    1    0    0    0  0.51736218042E+01 -0.77887587385E+01 -0.32859769384E+01  0.99110428291E+01  0.51100000000E-03 0. -1.
         22    1    1    0    0    0 -0.32541705302E+02  0.49127785826E+02  0.20826578381E+02  0.62499986330E+02  0.00000000000E+00 0.  1.
</event>
<event>
 4    1  0.1964735E-002  0.9118800E+02  0.7818608E-02  0.1130116E+00
         25   -1    0    0    0    0  0.00000000000E+00  0.00000000000E+00  0.99999998245E-14  0.12500000000E+03  0.12500000000E+03 0.  0.
        -11    1    1    0    0    0 -0.34164196864E+00  0.17346292875E+00  0.87499222900E+00  0.95520693272E+00  0.51100000000E-03 0. -1.
         11    1    1    0    0    0 -0.19951388430E+02 -0.11305613597E+01  0.58220627290E+02  0.61554670916E+02  0.51100000000E-03 0.  1.
         22    1    1    0    0    0  0.20293030398E+02  0.95709843095E+00 -0.59095619519E+02  0.62490122151E+02  0.00000000000E+00 0.  1.
</event>
<event>
 4    1  0.1964735E-002  0.9118800E+02  0.7818608E-02  0.1130116E+00
         25   -1    0    0    0    0  0.00000000000E+00  0.00000000000E+00  0.99999998245E-14  0.12500000000E+03  0.12500000000E+03 0.  0.
        -11    1    1    0    0    0  0.22484601606E+02  0.44108290997E+02 -0.30788318530E+02  0.58301108070E+02  0.51100000000E-03 0. -1.
         11    1    1    0    0    0  0.13731921359E+01  0.30960781624E+01 -0.24953349239E+01  0.42069054272E+01  0.51100000000E-03 0.  1.
         22    1    1    0    0    0 -0.23857793741E+02 -0.47204369159E+02  0.33283653453E+02  0.62491986503E+02  0.00000000000E+00 0. -1.
</event>
<event>
 4    1  0.1964735E-002  0.9118800E+02  0.7818608E-02  0.1130116E+00
         25   -1    0    0    0    0  0.00000000000E+00  0.00000000000E+00  0.99999998245E-14  0.12500000000E+03  0.12500000000E+03 0.  0.
        -11    1    1    0    0    0  0.14075430965E+02  0.46501608649E+02 -0.24387290714E+02  0.54362278396E+02  0.51100000000E-03 0. -1.
         11    1    1    0    0    0 -0.37558822717E+01  0.90246661307E+01  0.45043897658E+01  0.10762935373E+02  0.51100000000E-03 0.  1.
         22    1    1    0    0    0 -0.10319548694E+02 -0.55526274780E+02  0.19882900948E+02  0.59874786231E+02  0.00000000000E+00 0. -1.
</event>
<event>
 4    1  0.1964735E-002  0.9118800E+02  0.7818608E-02  0.1130116E+00
         25   -1    0    0    0    0  0.00000000000E+00  0.00000000000E+00  0.99999998245E-14  0.12500000000E+03  0.12500000000E+03 0.  0.
        -11    1    1    0    0    0 -0.23343628147E+02  0.58246515742E+01  0.22614502335E+02  0.33019195283E+02  0.51100000000E-03 0. -1.
         11    1    1    0    0    0 -0.19124090596E+02 -0.12958039817E+01  0.22701066731E+02  0.29711081772E+02  0.51100000000E-03 0.  1.
         22    1    1    0    0    0  0.42467718743E+02 -0.45288475925E+01 -0.45315569067E+02  0.62269722944E+02  0.00000000000E+00 0.  1.
</event>
<event>
 4    1  0.1964735E-002  0.9118800E+02  0.7818608E-02  0.1130116E+00
         25   -1    0    0    0    0  0.00000000000E+00  0.00000000000E+00  0.99999998245E-14  0.12500000000E+03  0.12500000000E+03 0.  0.
        -11    1    1    0    0    0 -0.13861107647E+01  0.15704434502E+01 -0.15988645288E+01  0.26351401718E+01  0.51100000000E-03 0. -1.
         11    1    1    0    0    0 -0.36067547774E+02  0.29345136113E+02 -0.37724329323E+02  0.59875955434E+02  0.51100000000E-03 0.  1.
         22    1    1    0    0    0  0.37453658539E+02 -0.30915579563E+02  0.39323193852E+02  0.62488904394E+02  0.00000000000E+00 0.  1.
</event>
<event>
 4    1  0.1964735E-002  0.9118800E+02  0.7818608E-02  0.1130116E+00
         25   -1    0    0    0    0  0.00000000000E+00  0.00000000000E+00  0.99999998245E-14  0.12500000000E+03  0.12500000000E+03 0.  0.
        -11    1    1    0    0    0 -0.33610323401E+02  0.20045805689E+01  0.52046134348E+01  0.34069930785E+02  0.51100000000E-03 0.  1.
         11    1    1    0    0    0 -0.28046542435E+02  0.16730359204E+01  0.43429533574E+01  0.28430069220E+02  0.51100000000E-03 0.  1.
         22    1    1    0    0    0  0.61656865836E+02 -0.36776164893E+01 -0.95475667922E+01  0.62499999995E+02  0.00000000000E+00 0.  1.
</event>
<event>
 4    1  0.1964735E-002  0.9118800E+02  0.7818608E-02  0.1130116E+00
         25   -1    0    0    0    0  0.00000000000E+00  0.00000000000E+00  0.99999998245E-14  0.12500000000E+03  0.12500000000E+03 0.  0.
        -11    1    1    0    0    0 -0.80878227710E+01  0.51271230016E+02  0.15903040497E+02  0.54286817938E+02  0.51100000000E-03 0. -1.
         11    1    1    0    0    0 -0.54777024207E+00  0.81654382581E+01  0.11843544243E+01  0.82690464896E+01  0.51100000000E-03 0.  1.
         22    1    1    0    0    0  0.86355930131E+01 -0.59436668274E+02 -0.17087394922E+02  0.62444135572E+02  0.00000000000E+00 0. -1.
</event>
<event>
 4    1  0.1964735E-002  0.9118800E+02  0.7818608E-02  0.1130116E+00
         25   -1    0    0    0    0  0.00000000000E+00  0.00000000000E+00  0.99999998245E-14  0.12500000000E+03  0.12500000000E+03 0.  0.
        -11    1    1    0    0    0  0.30372675440E+02  0.14027408362E+02  0.22747450342E+02  0.40456323314E+02  0.51100000000E-03 0. -1.
         11    1    1    0    0    0  0.17134437796E+02  0.74035403573E+01  0.11738443033E+02  0.22049771280E+02  0.51100000000E-03 0.  1.
         22    1    1    0    0    0 -0.47507113236E+02 -0.21430948720E+02 -0.34485893375E+02  0.62493905406E+02  0.00000000000E+00 0.  1.
</event>
<event>
 4    1  0.1964735E-002  0.9118800E+02  0.7818608E-02  0.1130116E+00
         25   -1    0    0    0    0  0.00000000000E+00  0.00000000000E+00  0.99999998245E-14  0.12500000000E+03  0.12500000000E+03 0.  0.
        -11    1    1    0    0    0 -0.46378535629E+02 -0.65110689558E+01  0.37231139730E+02  0.59829092856E+02  0.51100000000E-03 0. -1.
         11    1    1    0    0    0 -0.20539652045E+01 -0.29244959871E+00  0.16821920375E+01  0.26709680158E+01  0.51100000000E-03 0.  1.
         22    1    1    0    0    0  0.48432500834E+02  0.68035185545E+01 -0.38913331768E+02  0.62499939128E+02  0.00000000000E+00 0. -1.
</event>
<event>
 4    1  0.1964735E-002  0.9118800E+02  0.7818608E-02  0.1130116E+00
         25   -1    0    0    0    0  0.00000000000E+00  0.00000000000E+00  0.99999998245E-14  0.12500000000E+03  0.12500000000E+03 0.  0.
        -11    1    1    0    0    0 -0.28760109413E+02 -0.40363473197E+01  0.73018919611E+01  0.29945844780E+02  0.51100000000E-03 0. -1.
         11    1    1    0    0    0 -0.31262205819E+02 -0.45286918123E+01  0.78704700395E+01  0.32554244902E+02  0.51100000000E-03 0.  1.
         22    1    1    0    0    0  0.60022315232E+02  0.85650391320E+01 -0.15172362001E+02  0.62499910318E+02  0.00000000000E+00 0. -1.
</event>
<event>
 4    1  0.1964735E-002  0.9118800E+02  0.7818608E-02  0.1130116E+00
         25   -1    0    0    0    0  0.00000000000E+00  0.00000000000E+00  0.99999998245E-14  0.12500000000E+03  0.12500000000E+03 0.  0.
        -11    1    1    0    0    0  0.49815595472E+00 -0.10023629782E+00  0.41976017442E+01  0.42282463664E+01  0.51100000000E-03 0. -1.
         11    1    1    0    0    0  0.14379522645E+02  0.96936051195E+01  0.55687344664E+02  0.58325097580E+02  0.51100000000E-03 0.  1.
         22    1    1    0    0    0 -0.14877678600E+02 -0.95933688217E+01 -0.59884946409E+02  0.62446656053E+02  0.00000000000E+00 0.  1.
</event>
<event>
 4    1  0.1964735E-002  0.9118800E+02  0.7818608E-02  0.1130116E+00
         25   -1    0    0    0    0  0.00000000000E+00  0.00000000000E+00  0.99999998245E-14  0.12500000000E+03  0.12500000000E+03 0.  0.
        -11    1    1    0    0    0  0.23839742898E+02 -0.11673163427E+02  0.19764316940E+02  0.33094173357E+02  0.51100000000E-03 0.  1.
         11    1    1    0    0    0  0.20320947700E+02 -0.10913505864E+02  0.18249843824E+02  0.29412621874E+02  0.51100000000E-03 0. -1.
         22    1    1    0    0    0 -0.44160690598E+02  0.22586669291E+02 -0.38014160763E+02  0.62493204769E+02  0.00000000000E+00 0.  1.
</event>
<event>
 4    1  0.1964735E-002  0.9118800E+02  0.7818608E-02  0.1130116E+00
         25   -1    0    0    0    0  0.00000000000E+00  0.00000000000E+00  0.99999998245E-14  0.12500000000E+03  0.12500000000E+03 0.  0.
        -11    1    1    0    0    0  0.25193576499E+02  0.32052569796E+02 -0.19579362014E+02  0.45226484989E+02  0.51100000000E-03 0.  1.
         11    1    1    0    0    0  0.96213256006E+01  0.12242355489E+02 -0.74785792105E+01  0.17273515030E+02  0.51100000000E-03 0. -1.
         22    1    1    0    0    0 -0.34814902100E+02 -0.44294925285E+02  0.27057941225E+02  0.62499999980E+02  0.00000000000E+00 0.  1.
</event>
<event>
 4    1  0.1964735E-002  0.9118800E+02  0.7818608E-02  0.1130116E+00
         25   -1    0    0    0    0  0.00000000000E+00  0.00000000000E+00  0.99999998245E-14  0.12500000000E+03  0.12500000000E+03 0.  0.
        -11    1    1    0    0    0  0.92068838808E+00 -0.24396133782E+00  0.12471933453E+01  0.15692914783E+01  0.51100000000E-03 0.  1.
         11    1    1    0    0    0  0.35790113471E+02 -0.94972432199E+01  0.48388236609E+02  0.60930708953E+02  0.51100000000E-03 0.  1.
         22    1    1    0    0    0 -0.36710801859E+02  0.97412045577E+01 -0.49635429955E+02  0.62499999569E+02  0.00000000000E+00 0.  1.
</event>
<event>
 4    1  0.1964735E-002  0.9118800E+02  0.7818608E-02  0.1130116E+00
         25   -1    0    0    0    0  0.00000000000E+00  0.00000000000E+00  0.99999998245E-14  0.12500000000E+03  0.12500000000E+03 0.  0.
        -11    1    1    0    0    0 -0.17399840995E+02  0.26875199307E+02  0.46449110718E+02  0.56414100110E+02  0.51100000000E-03 0.  1.
         11    1    1    0    0    0 -0.29451341176E+01  0.86022933886E+01 -0.50862317183E+01  0.10418398143E+02  0.51100000000E-03 0. -1.
         22    1    1    0    0    0  0.20344975113E+02 -0.35477492695E+02 -0.41362879000E+02  0.58167501747E+02  0.00000000000E+00 0.  1.
</event>
<event>
 4    1  0.1964735E-002  0.9118800E+02  0.7818608E-02  0.1130116E+00
         25   -1    0    0    0    0  0.00000000000E+00  0.00000000000E+00  0.99999998245E-14  0.12500000000E+03  0.12500000000E+03 0.  0.
        -11    1    1    0    0    0 -0.25537486778E+01 -0.34968896092E+01 -0.21740905135E+01  0.48452594430E+01  0.51100000000E-03 0. -1.
         11    1    1    0    0    0 -0.30430455070E+02 -0.41593361520E+02 -0.25846641854E+02  0.57654741468E+02  0.51100000000E-03 0.  1.
         22    1    1    0    0    0  0.32984203747E+02  0.45090251129E+02  0.28020732367E+02  0.62499999089E+02  0.00000000000E+00 0.  1.
</event>
<event>
 4    1  0.1964735E-002  0.9118800E+02  0.7818608E-02  0.1130116E+00
         25   -1    0    0    0    0  0.00000000000E+00  0.00000000000E+00  0.99999998245E-14  0.12500000000E+03  0.12500000000E+03 0.  0.
        -11    1    1    0    0    0 -0.21946879306E+02 -0.33183819441E+01  0.65037270537E+01  0.23129540330E+02  0.51100000000E-03 0. -1.
         11    1    1    0    0    0 -0.37141799804E+02 -0.11138789936E+02  0.73860610999E+01  0.39473279985E+02  0.51100000000E-03 0.  1.
         22    1    1    0    0    0  0.59088679110E+02  0.14457171880E+02 -0.13889788154E+02  0.62397179686E+02  0.00000000000E+00 0.  1.
</event>
<event>
 4    1  0.1964735E-002  0.9118800E+02  0.7818608E-02  0.1130116E+00
         25   -1    0    0    0    0  0.00000000000E+00  0.00000000000E+00  0.99999998245E-14  0.12500000000E+03  0.12500000000E+03 0.  0.
        -11    1    1    0    0    0 -0.16586033600E+01  0.58917061408E+00  0.35121447652E-01  0.17604888229E+01  0.51100000000E-03 0. -1.
         11    1    1    0    0    0 -0.58281079367E+02  0.17090095865E+02 -0.87005335687E+00  0.60741358085E+02  0.51100000000E-03 0.  1.
         22    1    1    0    0    0  0.59939682727E+02 -0.17679266479E+02  0.83493190922E+00  0.62498153092E+02  0.00000000000E+00 0.  1.
</event>
<event>
 4    1  0.1964735E-002  0.9118800E+02  0.7818608E-02  0.1130116E+00
         25   -1    0    0    0    0  0.00000000000E+00  0.00000000000E+00  0.99999998245E-14  0.12500000000E+03  0.12500000000E+03 0.  0.
        -11    1    1    0    0    0  0.36512232515E+02  0.27216185754E+02 -0.11793730102E+02  0.47042065858E+02  0.51100000000E-03 0.  1.
         11    1    1    0    0    0  0.12374612494E+02  0.86020742004E+01 -0.34616007560E+01  0.15463162515E+02  0.51100000000E-03 0. -1.
         22    1    1    0    0    0 -0.48886845009E+02 -0.35818259954E+02  0.15255330858E+02  0.62494771627E+02  0.00000000000E+00 0.  1.
</event>
<event>
 4    1  0.1964735E-002  0.9118800E+02  0.7818608E-02  0.1130116E+00
         25   -1    0    0    0    0  0.00000000000E+00  0.00000000000E+00  0.99999998245E-14  0.12500000000E+03  0.12500000000E+03 0.  0.
        -11    1    1    0    0    0 -0.52550687665E+02 -0.20868751421E+02 -0.82273267110E+01  0.57138152446E+02  0.51100000000E-03 0. -1.
         11    1    1    0    0    0 -0.48222613024E+01 -0.22381827859E+01 -0.72659289425E+00  0.53657808143E+01  0.51100000000E-03 0.  1.
         22    1    1    0    0    0  0.57372948967E+02  0.23106934207E+02  0.89539196053E+01  0.62496066740E+02  0.00000000000E+00 0. -1.
</event>
<event>
 4    1  0.1964735E-002  0.9118800E+02  0.7818608E-02  0.1130116E+00
         25   -1    0    0    0    0  0.00000000000E+00  0.00000000000E+00  0.99999998245E-14  0.12500000000E+03  0.12500000000E+03 0.  0.
        -11    1    1    0    0    0  0.61702810471E+00 -0.32356591174E+02 -0.21322406318E+01  0.32432640448E+02  0.51100000000E-03 0. -1.
         11    1    1    0    0    0  0.39391336476E+00 -0.30000877233E+02 -0.19612765207E+01  0.30067497540E+02  0.51100000000E-03 0.  1.
         22    1    1    0    0    0 -0.10109414695E+01  0.62357468407E+02  0.40935171525E+01  0.62499862011E+02  0.00000000000E+00 0.  1.
</event>
<event>
 4    1  0.1964735E-002  0.9118800E+02  0.7818608E-02  0.1130116E+00
         25   -1    0    0    0    0  0.00000000000E+00  0.00000000000E+00  0.99999998245E-14  0.12500000000E+03  0.12500000000E+03 0.  0.
        -11    1    1    0    0    0  0.15577095644E+00 -0.37555171048E+00  0.22418340758E+01  0.22784038191E+01  0.51100000000E-03 0. -1.
         11    1    1    0    0    0  0.41077059373E+01 -0.97846177859E+01  0.59279246245E+02  0.60221599355E+02  0.51100000000E-03 0.  1.
         22    1    1    0    0    0 -0.42634768938E+01  0.10160169496E+02 -0.61521080321E+02  0.62499996826E+02  0.00000000000E+00 0.  1.
</event>
<event>
 4    1  0.1964735E-002  0.9118800E+02  0.7818608E-02  0.1130116E+00
         25   -1    0    0    0    0  0.00000000000E+00  0.00000000000E+00  0.99999998245E-14  0.12500000000E+03  0.12500000000E+03 0.  0.
        -11    1    1    0    0    0  0.41268123481E+01  0.10078791154E+02 -0.78832633198E+01  0.13444643993E+02  0.51100000000E-03 0.  1.
         11    1    1    0    0    0  0.15068364547E+02  0.36768174400E+02 -0.28765842799E+02  0.49055356191E+02  0.51100000000E-03 0. -1.
         22    1    1    0    0    0 -0.19195176895E+02 -0.46846965554E+02  0.36649106119E+02  0.62499999816E+02  0.00000000000E+00 0. -1.
</event>
<event>
 4    1  0.1964735E-002  0.9118800E+02  0.7818608E-02  0.1130116E+00
         25   -1    0    0    0    0  0.00000000000E+00  0.00000000000E+00  0.99999998245E-14  0.12500000000E+03  0.12500000000E+03 0.  0.
        -11    1    1    0    0    0 -0.93526438977E+00 -0.21359586192E+01 -0.29976769538E+01  0.37977764655E+01  0.51100000000E-03 0. -1.
         11    1    1    0    0    0  0.15757683844E+02 -0.40118141513E+02 -0.40232399878E+02  0.58961138717E+02  0.51100000000E-03 0.  1.
         22    1    1    0    0    0 -0.14822419455E+02  0.42254100132E+02  0.43230076831E+02  0.62241084818E+02  0.00000000000E+00 0.  1.
</event>
<event>
 4    1  0.1964735E-002  0.9118800E+02  0.7818608E-02  0.1130116E+00
         25   -1    0    0    0    0  0.00000000000E+00  0.00000000000E+00  0.99999998245E-14  0.12500000000E+03  0.12500000000E+03 0.  0.
        -11    1    1    0    0    0 -0.14570470271E+02  0.65370668958E+01 -0.98224464641E+01  0.18748661347E+02  0.51100000000E-03 0.  1.
         11    1    1    0    0    0 -0.33888113989E+02  0.15164394474E+02 -0.23147944758E+02  0.43751462562E+02  0.51100000000E-03 0. -1.
         22    1    1    0    0    0  0.48458584260E+02 -0.21701461370E+02  0.32970391222E+02  0.62499876091E+02  0.00000000000E+00 0. -1.
</event>
<event>
 4    1  0.1964735E-002  0.9118800E+02  0.7818608E-02  0.1130116E+00
         25   -1    0    0    0    0  0.00000000000E+00  0.00000000000E+00  0.99999998245E-14  0.12500000000E+03  0.12500000000E+03 0.  0.
        -11    1    1    0    0    0 -0.11815738627E+02 -0.50153245228E+01  0.30525816905E+02  0.33114810242E+02  0.51100000000E-03 0. -1.
         11    1    1    0    0    0 -0.10480551335E+02 -0.44552269744E+01  0.27088713237E+02  0.29385189957E+02  0.51100000000E-03 0.  1.
         22    1    1    0    0    0  0.22296289963E+02  0.94705514973E+01 -0.57614530142E+02  0.62499999802E+02  0.00000000000E+00 0. -1.
</event>
<event>
 4    1  0.1964735E-002  0.9118800E+02  0.7818608E-02  0.1130116E+00
         25   -1    0    0    0    0  0.00000000000E+00  0.00000000000E+00  0.99999998245E-14  0.12500000000E+03  0.12500000000E+03 0.  0.
        -11    1    1    0    0    0 -0.28797753492E+01  0.33030870181E+02 -0.27676271928E+02  0.43189206048E+02  0.51100000000E-03 0. -1.
         11    1    1    0    0    0 -0.12973884871E+01  0.14763240799E+02 -0.12380239164E+02  0.19310795369E+02  0.51100000000E-03 0.  1.
         22    1    1    0    0    0  0.41771638364E+01 -0.47794110979E+02  0.40056511092E+02  0.62499998583E+02  0.00000000000E+00 0. -1.
</event>
<event>
 4    1  0.1964735E-002  0.9118800E+02  0.7818608E-02  0.1130116E+00
         25   -1    0    0    0    0  0.00000000000E+00  0.00000000000E+00  0.99999998245E-14  0.12500000000E+03  0.12500000000E+03 0.  0.
        -11    1    1    0    0    0  0.35760942257E+02  0.28522785523E+02 -0.27403534128E+02  0.53323052876E+02  0.51100000000E-03 0.  1.
         11    1    1    0    0    0  0.64899590141E+01  0.47137626298E+01 -0.44685169973E+01  0.91818718435E+01  0.51100000000E-03 0. -1.
         22    1    1    0    0    0 -0.42250901271E+02 -0.33236548153E+02  0.31872051126E+02  0.62495075280E+02  0.00000000000E+00 0.  1.
</event>
<event>
 4    1  0.1964735E-002  0.9118800E+02  0.7818608E-02  0.1130116E+00
         25   -1    0    0    0    0  0.00000000000E+00  0.00000000000E+00  0.99999998245E-14  0.12500000000E+03  0.12500000000E+03 0.  0.
        -11    1    1    0    0    0  0.15988248998E+02  0.18309314551E+02  0.44641098588E+02  0.50829939886E+02  0.51100000000E-03 0. -1.
         11    1    1    0    0    0  0.36697081556E+01  0.42036078884E+01  0.10249547612E+02  0.11670060143E+02  0.51100000000E-03 0.  1.
         22    1    1    0    0    0 -0.19657957153E+02 -0.22512922439E+02 -0.54890646200E+02  0.62499999972E+02  0.00000000000E+00 0. -1.
</event>
<event>
 4    1  0.1964735E-002  0.9118800E+02  0.7818608E-02  0.1130116E+00
         25   -1    0    0    0    0  0.00000000000E+00  0.00000000000E+00  0.99999998245E-14  0.12500000000E+03  0.12500000000E+03 0.  0.
        -11    1    1    0    0    0 -0.19425404539E+02 -0.32410751342E+01 -0.11560890772E+02  0.22836486271E+02  0.51100000000E-03 0. -1.
         11    1    1    0    0    0 -0.33741760287E+02 -0.56280001324E+01 -0.20075197477E+02  0.39663513797E+02  0.51100000000E-03 0.  1.
         22    1    1    0    0    0  0.53167164826E+02  0.88690752666E+01  0.31636088249E+02  0.62499999931E+02  0.00000000000E+00 0.  1.
</event>
<event>
 4    1  0.1964735E-002  0.9118800E+02  0.7818608E-02  0.1130116E+00
         25   -1    0    0    0    0  0.00000000000E+00  0.00000000000E+00  0.99999998245E-14  0.12500000000E+03  0.12500000000E+03 0.  0.
        -11    1    1    0    0    0  0.64573392874E+00  0.11565852244E+00  0.78329851075E+00  0.10217171911E+01  0.51100000000E-03 0. -1.
         11    1    1    0    0    0  0.61049374572E+02 -0.85545191357E+01  0.15453223195E+01  0.61665176191E+02  0.51100000000E-03 0.  1.
         22    1    1    0    0    0 -0.61695108501E+02  0.84388606132E+01 -0.23286208303E+01  0.62313106618E+02  0.00000000000E+00 0.  1.
</event>
<event>
 4    1  0.1964735E-002  0.9118800E+02  0.7818608E-02  0.1130116E+00
         25   -1    0    0    0    0  0.00000000000E+00  0.00000000000E+00  0.99999998245E-14  0.12500000000E+03  0.12500000000E+03 0.  0.
        -11    1    1    0    0    0  0.30919729772E+02  0.25626172469E+02  0.68878563942E+00  0.40164721218E+02  0.51100000000E-03 0.  1.
         11    1    1    0    0    0  0.16788867065E+02  0.14731969515E+02  0.31088624651E+00  0.22338165404E+02  0.51100000000E-03 0. -1.
         22    1    1    0    0    0 -0.47708596837E+02 -0.40358141984E+02 -0.99967188592E+00  0.62497113377E+02  0.00000000000E+00 0.  1.
</event>
<event>
 4    1  0.1964735E-002  0.9118800E+02  0.7818608E-02  0.1130116E+00
         25   -1    0    0    0    0  0.00000000000E+00  0.00000000000E+00  0.99999998245E-14  0.12500000000E+03  0.12500000000E+03 0.  0.
        -11    1    1    0    0    0 -0.42704497780E+02  0.33000333700E+02  0.12003972207E+01  0.53982748251E+02  0.51100000000E-03 0.  1.
         11    1    1    0    0    0 -0.67376349693E+01  0.52068323005E+01  0.19170809451E+00  0.85172518949E+01  0.51100000000E-03 0. -1.
         22    1    1    0    0    0  0.49442132749E+02 -0.38207166000E+02 -0.13921053152E+01  0.62499999854E+02  0.00000000000E+00 0.  1.
</event>
<event>
 4    1  0.1964735E-002  0.9118800E+02  0.7818608E-02  0.1130116E+00
         25   -1    0    0    0    0  0.00000000000E+00  0.00000000000E+00  0.99999998245E-14  0.12500000000E+03  0.12500000000E+03 0.  0.
        -11    1    1    0    0    0 -0.52524640573E+02 -0.14272314058E+02  0.24669718575E+01  0.54485069205E+02  0.51100000000E-03 0. -1.
         11    1    1    0    0    0 -0.77207031268E+01 -0.21272691585E+01  0.32490730182E+00  0.80149919439E+01  0.51100000000E-03 0.  1.
         22    1    1    0    0    0  0.60245343700E+02  0.16399583216E+02 -0.27918791593E+01  0.62499938851E+02  0.00000000000E+00 0. -1.
</event>
<event>
 4    1  0.1964735E-002  0.9118800E+02  0.7818608E-02  0.1130116E+00
         25   -1    0    0    0    0  0.00000000000E+00  0.00000000000E+00  0.99999998245E-14  0.12500000000E+03  0.12500000000E+03 0.  0.
        -11    1    1    0    0    0  0.22761802739E+01 -0.38247138793E+01 -0.49503114355E+01  0.66569524910E+01  0.51100000000E-03 0.  1.
         11    1    1    0    0    0  0.18802370319E+02 -0.32164968929E+02 -0.41597316586E+02  0.55843093604E+02  0.51100000000E-03 0. -1.
         22    1    1    0    0    0 -0.21078550592E+02  0.35989682809E+02  0.46547628021E+02  0.62499953905E+02  0.00000000000E+00 0. -1.
</event>
<event>
 4    1  0.1964735E-002  0.9118800E+02  0.7818608E-02  0.1130116E+00
         25   -1    0    0    0    0  0.00000000000E+00  0.00000000000E+00  0.99999998245E-14  0.12500000000E+03  0.12500000000E+03 0.  0.
        -11    1    1    0    0    0 -0.26382413735E+02 -0.39582693544E+02 -0.10217536193E+02  0.48654079261E+02  0.51100000000E-03 0. -1.
         11    1    1    0    0    0 -0.14301544200E+02 -0.51258853712E+01  0.13854393121E+01  0.15255435414E+02  0.51100000000E-03 0.  1.
         22    1    1    0    0    0  0.40683957935E+02  0.44708578915E+02  0.88320968809E+01  0.61090485324E+02  0.00000000000E+00 0. -1.
</event>
<event>
 4    1  0.1964735E-002  0.9118800E+02  0.7818608E-02  0.1130116E+00
         25   -1    0    0    0    0  0.00000000000E+00  0.00000000000E+00  0.99999998245E-14  0.12500000000E+03  0.12500000000E+03 0.  0.
        -11    1    1    0    0    0 -0.19077357592E+01 -0.25157334153E+01  0.51183902123E+00  0.31984917991E+01  0.51100000000E-03 0.  1.
         11    1    1    0    0    0 -0.34331539310E+02 -0.47615791341E+02  0.84161762971E+01  0.59302193889E+02  0.51100000000E-03 0. -1.
         22    1    1    0    0    0  0.36239275069E+02  0.50131524756E+02 -0.89280153183E+01  0.62499314312E+02  0.00000000000E+00 0. -1.
</event>
<event>
 4    1  0.1964735E-002  0.9118800E+02  0.7818608E-02  0.1130116E+00
         25   -1    0    0    0    0  0.00000000000E+00  0.00000000000E+00  0.99999998245E-14  0.12500000000E+03  0.12500000000E+03 0.  0.
        -11    1    1    0    0    0  0.60950563786E+00 -0.38592078429E+02 -0.21909596113E+02  0.44381870361E+02  0.51100000000E-03 0.  1.
         11    1    1    0    0    0  0.24475412651E+00 -0.15757610452E+02 -0.89389288476E+01  0.18118130172E+02  0.51100000000E-03 0. -1.
         22    1    1    0    0    0 -0.85425976437E+00  0.54349688881E+02  0.30848524961E+02  0.62499999467E+02  0.00000000000E+00 0.  1.
</event>
<event>
 4    1  0.1964735E-002  0.9118800E+02  0.7818608E-02  0.1130116E+00
         25   -1    0    0    0    0  0.00000000000E+00  0.00000000000E+00  0.99999998245E-14  0.12500000000E+03  0.12500000000E+03 0.  0.
        -11    1    1    0    0    0 -0.60531194446E+01  0.45871449341E+02 -0.50671207038E+00  0.46271879982E+02  0.51100000000E-03 0.  1.
         11    1    1    0    0    0  0.22181592586E+02 -0.52055604383E+02 -0.11435382377E+02  0.57728476229E+02  0.51100000000E-03 0. -1.
         22    1    1    0    0    0 -0.16128473141E+02  0.61841550420E+01  0.11942094448E+02  0.20999643789E+02  0.00000000000E+00 0. -1.
</event>
<event>
 4    1  0.1964735E-002  0.9118800E+02  0.7818608E-02  0.1130116E+00
         25   -1    0    0    0    0  0.00000000000E+00  0.00000000000E+00  0.99999998245E-14  0.12500000000E+03  0.12500000000E+03 0.  0.
        -11    1    1    0    0    0 -0.18927081903E+01  0.73247556517E+01 -0.54412800273E+02  0.54936210494E+02  0.51100000000E-03 0.  1.
         11    1    1    0    0    0 -0.24361090252E+00  0.99297932116E+00 -0.74943841002E+01  0.75638050944E+01  0.51100000000E-03 0. -1.
         22    1    1    0    0    0  0.21363190928E+01 -0.83177349729E+01  0.61907184373E+02  0.62499984411E+02  0.00000000000E+00 0.  1.
</event>
<event>
 4    1  0.1964735E-002  0.9118800E+02  0.7818608E-02  0.1130116E+00
         25   -1    0    0    0    0  0.00000000000E+00  0.00000000000E+00  0.99999998245E-14  0.12500000000E+03  0.12500000000E+03 0.  0.
        -11    1    1    0    0    0 -0.23865880982E+02 -0.39213858998E+02 -0.24112189859E+02  0.51852721362E+02  0.51100000000E-03 0. -1.
         11    1    1    0    0    0 -0.10960374300E+02 -0.52326579538E+01  0.11796990702E+01  0.12202549087E+02  0.51100000000E-03 0.  1.
         22    1    1    0    0    0  0.34826255282E+02  0.44446516952E+02  0.22932490789E+02  0.60944729551E+02  0.00000000000E+00 0. -1.
</event>
<event>
 4    1  0.1964735E-002  0.9118800E+02  0.7818608E-02  0.1130116E+00
         25   -1    0    0    0    0  0.00000000000E+00  0.00000000000E+00  0.99999998245E-14  0.12500000000E+03  0.12500000000E+03 0.  0.
        -11    1    1    0    0    0 -0.25752894028E+02  0.80325477472E+01  0.10571767005E+02  0.28974051011E+02  0.51100000000E-03 0. -1.
         11    1    1    0    0    0 -0.29588829724E+02  0.71716839804E+01  0.14104059414E+02  0.33553783509E+02  0.51100000000E-03 0.  1.
         22    1    1    0    0    0  0.55341723752E+02 -0.15204231728E+02 -0.24675826419E+02  0.62472165480E+02  0.00000000000E+00 0.  1.
</event>
<event>
 4    1  0.1964735E-002  0.9118800E+02  0.7818608E-02  0.1130116E+00
         25   -1    0    0    0    0  0.00000000000E+00  0.00000000000E+00  0.99999998245E-14  0.12500000000E+03  0.12500000000E+03 0.  0.
        -11    1    1    0    0    0 -0.30731778423E+02 -0.16192204567E+01 -0.39748975128E+02  0.50269723531E+02  0.51100000000E-03 0.  1.
         11    1    1    0    0    0 -0.75030387422E+01 -0.38003161333E+00 -0.96509149184E+01  0.12230297356E+02  0.51100000000E-03 0. -1.
         22    1    1    0    0    0  0.38234817165E+02  0.19992520700E+01  0.49399890046E+02  0.62499979113E+02  0.00000000000E+00 0.  1.
</event>
<event>
 4    1  0.1964735E-002  0.9118800E+02  0.7818608E-02  0.1130116E+00
         25   -1    0    0    0    0  0.00000000000E+00  0.00000000000E+00  0.99999998245E-14  0.12500000000E+03  0.12500000000E+03 0.  0.
        -11    1    1    0    0    0  0.75128259699E+01 -0.61491058772E+02  0.33033935177E+01  0.62036322199E+02  0.51100000000E-03 0.  1.
         11    1    1    0    0    0  0.58248523895E-01 -0.45953307392E+00  0.21030169109E-01  0.46368746554E+00  0.51100000000E-03 0. -1.
         22    1    1    0    0    0 -0.75710744938E+01  0.61950591846E+02 -0.33244236868E+01  0.62499990335E+02  0.00000000000E+00 0.  1.
</event>
<event>
 4    1  0.1964735E-002  0.9118800E+02  0.7818608E-02  0.1130116E+00
         25   -1    0    0    0    0  0.00000000000E+00  0.00000000000E+00  0.99999998245E-14  0.12500000000E+03  0.12500000000E+03 0.  0.
        -11    1    1    0    0    0  0.39988939344E+01 -0.52254703379E+00  0.28542420675E+02  0.28825925594E+02  0.51100000000E-03 0.  1.
         11    1    1    0    0    0  0.46650137326E+01 -0.62126853076E+00  0.33343590031E+02  0.33674074956E+02  0.51100000000E-03 0. -1.
         22    1    1    0    0    0 -0.86639076670E+01  0.11438155646E+01 -0.61886010706E+02  0.62499999450E+02  0.00000000000E+00 0.  1.
</event>
<event>
 4    1  0.1964735E-002  0.9118800E+02  0.7818608E-02  0.1130116E+00
         25   -1    0    0    0    0  0.00000000000E+00  0.00000000000E+00  0.99999998245E-14  0.12500000000E+03  0.12500000000E+03 0.  0.
        -11    1    1    0    0    0  0.33985601739E+01  0.21446027014E+01 -0.49720093383E+01  0.63929968813E+01  0.51100000000E-03 0. -1.
         11    1    1    0    0    0  0.29786732844E+02  0.18844164375E+02 -0.43653681857E+02  0.56107004237E+02  0.51100000000E-03 0.  1.
         22    1    1    0    0    0 -0.33185293018E+02 -0.20988767076E+02  0.48625691195E+02  0.62499998882E+02  0.00000000000E+00 0.  1.
</event>
<event>
 4    1  0.1964735E-002  0.9118800E+02  0.7818608E-02  0.1130116E+00
         25   -1    0    0    0    0  0.00000000000E+00  0.00000000000E+00  0.99999998245E-14  0.12500000000E+03  0.12500000000E+03 0.  0.
        -11    1    1    0    0    0 -0.67522144140E+00 -0.40934446932E+01  0.33691734721E+00  0.41624184089E+01  0.51100000000E-03 0.  1.
         11    1    1    0    0    0 -0.94757631965E+01 -0.57368935043E+02  0.47210842647E+01  0.58337581653E+02  0.51100000000E-03 0. -1.
         22    1    1    0    0    0  0.10150984638E+02  0.61462379737E+02 -0.50580016119E+01  0.62499999939E+02  0.00000000000E+00 0. -1.
</event>
<event>
 4    1  0.1964735E-002  0.9118800E+02  0.7818608E-02  0.1130116E+00
         25   -1    0    0    0    0  0.00000000000E+00  0.00000000000E+00  0.99999998245E-14  0.12500000000E+03  0.12500000000E+03 0.  0.
        -11    1    1    0    0    0  0.46513078829E+01 -0.19912088533E+02 -0.60951931961E+01  0.21337228385E+02  0.51100000000E-03 0. -1.
         11    1    1    0    0    0  0.86772897178E+01 -0.38318318600E+02 -0.12282024453E+02  0.41163539961E+02  0.51100000000E-03 0.  1.
         22    1    1    0    0    0 -0.13328597601E+02  0.58230407133E+02  0.18377217649E+02  0.62499231655E+02  0.00000000000E+00 0.  1.
</event>
<event>
 4    1  0.1964735E-002  0.9118800E+02  0.7818608E-02  0.1130116E+00
         25   -1    0    0    0    0  0.00000000000E+00  0.00000000000E+00  0.99999998245E-14  0.12500000000E+03  0.12500000000E+03 0.  0.
        -11    1    1    0    0    0 -0.15266330253E+02  0.95159443155E+01 -0.27359361417E+02  0.32743681726E+02  0.51100000000E-03 0.  1.
         11    1    1    0    0    0 -0.13590896579E+02  0.89441765830E+01 -0.24915303749E+02  0.29757068501E+02  0.51100000000E-03 0. -1.
         22    1    1    0    0    0  0.28857226832E+02 -0.18460120899E+02  0.52274665166E+02  0.62499249773E+02  0.00000000000E+00 0. -1.
</event>
<event>
 4    1  0.1964735E-002  0.9118800E+02  0.7818608E-02  0.1130116E+00
         25   -1    0    0    0    0  0.00000000000E+00  0.00000000000E+00  0.99999998245E-14  0.12500000000E+03  0.12500000000E+03 0.  0.
        -11    1    1    0    0    0 -0.61500708449E+01  0.50357423933E+02  0.29448557172E+02  0.58659279200E+02  0.51100000000E-03 0.  1.
         11    1    1    0    0    0 -0.39844367553E+00  0.32972733984E+01  0.19288275055E+01  0.38407219417E+01  0.51100000000E-03 0. -1.
         22    1    1    0    0    0  0.65485145204E+01 -0.53654697331E+02 -0.31377384677E+02  0.62499998858E+02  0.00000000000E+00 0.  1.
</event>
<event>
 4    1  0.1964735E-002  0.9118800E+02  0.7818608E-02  0.1130116E+00
         25   -1    0    0    0    0  0.00000000000E+00  0.00000000000E+00  0.99999998245E-14  0.12500000000E+03  0.12500000000E+03 0.  0.
        -11    1    1    0    0    0  0.21182779590E+01  0.27966433954E+01  0.48677160513E+02  0.48803424795E+02  0.51100000000E-03 0.  1.
         11    1    1    0    0    0 -0.17400816237E+01  0.39357233266E+01  0.13235666398E+02  0.13917638716E+02  0.51100000000E-03 0. -1.
         22    1    1    0    0    0 -0.37819633528E+00 -0.67323667220E+01 -0.61912826911E+02  0.62278936490E+02  0.00000000000E+00 0.  1.
</event>
<event>
 4    1  0.1964735E-002  0.9118800E+02  0.7818608E-02  0.1130116E+00
         25   -1    0    0    0    0  0.00000000000E+00  0.00000000000E+00  0.99999998245E-14  0.12500000000E+03  0.12500000000E+03 0.  0.
        -11    1    1    0    0    0 -0.29044602141E+02  0.97536023516E+01 -0.12441254989E+02  0.33068209785E+02  0.51100000000E-03 0. -1.
         11    1    1    0    0    0 -0.26729583469E+02  0.71168603386E+01 -0.10109763723E+02  0.29450427099E+02  0.51100000000E-03 0.  1.
         22    1    1    0    0    0  0.55774185611E+02 -0.16870462690E+02  0.22551018712E+02  0.62481363116E+02  0.00000000000E+00 0.  1.
</event>
<event>
 4    1  0.1964735E-002  0.9118800E+02  0.7818608E-02  0.1130116E+00
         25   -1    0    0    0    0  0.00000000000E+00  0.00000000000E+00  0.99999998245E-14  0.12500000000E+03  0.12500000000E+03 0.  0.
        -11    1    1    0    0    0 -0.65141559563E+00  0.33276317604E+01 -0.79181624287E+01  0.86136387154E+01  0.51100000000E-03 0.  1.
         11    1    1    0    0    0 -0.40755682585E+01  0.20819161665E+02 -0.49534757336E+02  0.53886361296E+02  0.51100000000E-03 0.  1.
         22    1    1    0    0    0  0.47269838541E+01 -0.24146793425E+02  0.57452919765E+02  0.62499999989E+02  0.00000000000E+00 0.  1.
</event>
<event>
 4    1  0.1964735E-002  0.9118800E+02  0.7818608E-02  0.1130116E+00
         25   -1    0    0    0    0  0.00000000000E+00  0.00000000000E+00  0.99999998245E-14  0.12500000000E+03  0.12500000000E+03 0.  0.
        -11    1    1    0    0    0 -0.81383654097E+00  0.27307805861E+02  0.55704768704E+02  0.62043531875E+02  0.51100000000E-03 0.  1.
         11    1    1    0    0    0  0.10616842586E-01  0.19839104272E+00  0.41113519215E+00  0.45662252521E+00  0.51100000000E-03 0. -1.
         22    1    1    0    0    0  0.80321969838E+00 -0.27506196904E+02 -0.56115903896E+02  0.62499845600E+02  0.00000000000E+00 0.  1.
</event>
<event>
 4    1  0.1964735E-002  0.9118800E+02  0.7818608E-02  0.1130116E+00
         25   -1    0    0    0    0  0.00000000000E+00  0.00000000000E+00  0.99999998245E-14  0.12500000000E+03  0.12500000000E+03 0.  0.
        -11    1    1    0    0    0  0.52435006585E+02 -0.23509222903E+01 -0.22034931105E+02  0.56925345323E+02  0.51100000000E-03 0.  1.
         11    1    1    0    0    0  0.51093294367E+01  0.35031394363E+01 -0.60863230739E+00  0.62247623850E+01  0.51100000000E-03 0. -1.
         22    1    1    0    0    0 -0.57544336021E+02 -0.11522171461E+01  0.22643563412E+02  0.61849892292E+02  0.00000000000E+00 0.  1.
</event>
<event>
 4    1  0.1964735E-002  0.9118800E+02  0.7818608E-02  0.1130116E+00
         25   -1    0    0    0    0  0.00000000000E+00  0.00000000000E+00  0.99999998245E-14  0.12500000000E+03  0.12500000000E+03 0.  0.
        -11    1    1    0    0    0 -0.14221814321E+01  0.16108783041E+00 -0.28098860309E+01  0.31534122919E+01  0.51100000000E-03 0. -1.
         11    1    1    0    0    0 -0.26757339003E+02  0.30324079408E+01 -0.52885411868E+02  0.59346587746E+02  0.51100000000E-03 0. -1.
         22    1    1    0    0    0  0.28179520435E+02 -0.31934957712E+01  0.55695297899E+02  0.62499999962E+02  0.00000000000E+00 0. -1.
</event>
<event>
 4    1  0.1964735E-002  0.9118800E+02  0.7818608E-02  0.1130116E+00
         25   -1    0    0    0    0  0.00000000000E+00  0.00000000000E+00  0.99999998245E-14  0.12500000000E+03  0.12500000000E+03 0.  0.
        -11    1    1    0    0    0 -0.20183996866E+02 -0.11742727351E+02 -0.36903223000E+02  0.43670736692E+02  0.51100000000E-03 0. -1.
         11    1    1    0    0    0 -0.84141440322E+01 -0.50583587003E+01 -0.16068417613E+02  0.18830264400E+02  0.51100000000E-03 0.  1.
         22    1    1    0    0    0  0.28598140898E+02  0.16801086051E+02  0.52971640613E+02  0.62498998908E+02  0.00000000000E+00 0. -1.
</event>
<event>
 4    1  0.1964735E-002  0.9118800E+02  0.7818608E-02  0.1130116E+00
         25   -1    0    0    0    0  0.00000000000E+00  0.00000000000E+00  0.99999998245E-14  0.12500000000E+03  0.12500000000E+03 0.  0.
        -11    1    1    0    0    0  0.64626624045E+01  0.36745757603E+02 -0.49217049547E+01  0.37632962773E+02  0.51100000000E-03 0.  1.
         11    1    1    0    0    0  0.41960758437E+01  0.24292571496E+02 -0.32611633973E+01  0.24867071989E+02  0.51100000000E-03 0. -1.
         22    1    1    0    0    0 -0.10658738248E+02 -0.61038329099E+02  0.81828683521E+01  0.62499965237E+02  0.00000000000E+00 0.  1.
</event>
<event>
 4    1  0.1964735E-002  0.9118800E+02  0.7818608E-02  0.1130116E+00
         25   -1    0    0    0    0  0.00000000000E+00  0.00000000000E+00  0.99999998245E-14  0.12500000000E+03  0.12500000000E+03 0.  0.
        -11    1    1    0    0    0 -0.94623125644E+01 -0.28405212070E+02  0.81561501546E+01  0.31030859115E+02  0.51100000000E-03 0.  1.
         11    1    1    0    0    0 -0.95999108177E+01 -0.28808062166E+02  0.82610002870E+01  0.31469141384E+02  0.51100000000E-03 0. -1.
         22    1    1    0    0    0  0.19062223382E+02  0.57213274236E+02 -0.16417150442E+02  0.62499999501E+02  0.00000000000E+00 0. -1.
</event>
<event>
 4    1  0.1964735E-002  0.9118800E+02  0.7818608E-02  0.1130116E+00
         25   -1    0    0    0    0  0.00000000000E+00  0.00000000000E+00  0.99999998245E-14  0.12500000000E+03  0.12500000000E+03 0.  0.
        -11    1    1    0    0    0  0.44035878805E+02 -0.67857117893E+01 -0.24516049282E+02  0.50855099836E+02  0.51100000000E-03 0. -1.
         11    1    1    0    0    0  0.11328618902E+02 -0.38632615737E+01 -0.14809618085E+01  0.12060499341E+02  0.51100000000E-03 0.  1.
         22    1    1    0    0    0 -0.55364497707E+02  0.10648973363E+02  0.25997011091E+02  0.62084400824E+02  0.00000000000E+00 0. -1.
</event>
<event>
 4    1  0.1964735E-002  0.9118800E+02  0.7818608E-02  0.1130116E+00
         25   -1    0    0    0    0  0.00000000000E+00  0.00000000000E+00  0.99999998245E-14  0.12500000000E+03  0.12500000000E+03 0.  0.
        -11    1    1    0    0    0  0.93988181875E+01  0.12831770722E+02  0.44188986456E+01  0.16508143102E+02  0.51100000000E-03 0. -1.
         11    1    1    0    0    0  0.25381398724E+02  0.36476168479E+02  0.11861970779E+02  0.45993832403E+02  0.51100000000E-03 0.  1.
         22    1    1    0    0    0 -0.34780216911E+02 -0.49307939200E+02 -0.16280869425E+02  0.62498024495E+02  0.00000000000E+00 0.  1.
</event>
<event>
 4    1  0.1964735E-002  0.9118800E+02  0.7818608E-02  0.1130116E+00
         25   -1    0    0    0    0  0.00000000000E+00  0.00000000000E+00  0.99999998245E-14  0.12500000000E+03  0.12500000000E+03 0.  0.
        -11    1    1    0    0    0  0.14707284254E+02 -0.28521434125E+02  0.15837769191E+02  0.35785630466E+02  0.51100000000E-03 0.  1.
         11    1    1    0    0    0  0.12145540175E+02 -0.18876946485E+02  0.14633119778E+02  0.26795175861E+02  0.51100000000E-03 0. -1.
         22    1    1    0    0    0 -0.26852824429E+02  0.47398380610E+02 -0.30470888968E+02  0.62419193673E+02  0.00000000000E+00 0.  1.
</event>
<event>
 4    1  0.1964735E-002  0.9118800E+02  0.7818608E-02  0.1130116E+00
         25   -1    0    0    0    0  0.00000000000E+00  0.00000000000E+00  0.99999998245E-14  0.12500000000E+03  0.12500000000E+03 0.  0.
        -11    1    1    0    0    0 -0.16033638144E+01 -0.93036372660E+00  0.15323634611E+02  0.15435353256E+02  0.51100000000E-03 0.  1.
         11    1    1    0    0    0  0.93380582937E+01  0.24659913978E+02  0.40550279870E+02  0.48369782798E+02  0.51100000000E-03 0. -1.
         22    1    1    0    0    0 -0.77346944794E+01 -0.23729550251E+02 -0.55873914482E+02  0.61194863946E+02  0.00000000000E+00 0. -1.
</event>
<event>
 4    1  0.1964735E-002  0.9118800E+02  0.7818608E-02  0.1130116E+00
         25   -1    0    0    0    0  0.00000000000E+00  0.00000000000E+00  0.99999998245E-14  0.12500000000E+03  0.12500000000E+03 0.  0.
        -11    1    1    0    0    0  0.93847736690E+01 -0.97460597044E+01 -0.17682194587E+02  0.22264762793E+02  0.51100000000E-03 0. -1.
         11    1    1    0    0    0  0.16938045498E+02 -0.17595315348E+02 -0.31974709004E+02  0.40235239823E+02  0.51100000000E-03 0.  1.
         22    1    1    0    0    0 -0.26322819167E+02  0.27341375053E+02  0.49656903591E+02  0.62499997383E+02  0.00000000000E+00 0.  1.
</event>
<event>
 4    1  0.1964735E-002  0.9118800E+02  0.7818608E-02  0.1130116E+00
         25   -1    0    0    0    0  0.00000000000E+00  0.00000000000E+00  0.99999998245E-14  0.12500000000E+03  0.12500000000E+03 0.  0.
        -11    1    1    0    0    0 -0.22970817335E+02  0.57898752486E+00 -0.35521343043E+02  0.42305549133E+02  0.51100000000E-03 0. -1.
         11    1    1    0    0    0 -0.10965566097E+02  0.27578458665E+00 -0.16955711398E+02  0.20194450878E+02  0.51100000000E-03 0.  1.
         22    1    1    0    0    0  0.33936383432E+02 -0.85477211151E+00  0.52477054442E+02  0.62499999989E+02  0.00000000000E+00 0. -1.
</event>
<event>
 4    1  0.1964735E-002  0.9118800E+02  0.7818608E-02  0.1130116E+00
         25   -1    0    0    0    0  0.00000000000E+00  0.00000000000E+00  0.99999998245E-14  0.12500000000E+03  0.12500000000E+03 0.  0.
        -11    1    1    0    0    0 -0.81395081646E+01 -0.38316845478E+00  0.18124060640E+01  0.83476480057E+01  0.51100000000E-03 0. -1.
         11    1    1    0    0    0 -0.49404679781E+02 -0.81125600935E+01  0.20838407800E+02  0.54229837317E+02  0.51100000000E-03 0.  1.
         22    1    1    0    0    0  0.57544187946E+02  0.84957285483E+01 -0.22650813864E+02  0.62422514677E+02  0.00000000000E+00 0.  1.
</event>
<event>
 4    1  0.1964735E-002  0.9118800E+02  0.7818608E-02  0.1130116E+00
         25   -1    0    0    0    0  0.00000000000E+00  0.00000000000E+00  0.99999998245E-14  0.12500000000E+03  0.12500000000E+03 0.  0.
        -11    1    1    0    0    0 -0.42121034608E+02  0.14268350095E+02 -0.18682197991E+02  0.48236831290E+02  0.51100000000E-03 0. -1.
         11    1    1    0    0    0 -0.12361420636E+02  0.42056674334E+01 -0.57417177726E+01  0.14263929400E+02  0.51100000000E-03 0.  1.
         22    1    1    0    0    0  0.54482455244E+02 -0.18474017528E+02  0.24423915764E+02  0.62499239309E+02  0.00000000000E+00 0. -1.
</event>
<event>
 4    1  0.1964735E-002  0.9118800E+02  0.7818608E-02  0.1130116E+00
         25   -1    0    0    0    0  0.00000000000E+00  0.00000000000E+00  0.99999998245E-14  0.12500000000E+03  0.12500000000E+03 0.  0.
        -11    1    1    0    0    0  0.24443768508E+02 -0.57528712402E+01  0.85289477617E+01  0.26520488241E+02  0.51100000000E-03 0. -1.
         11    1    1    0    0    0  0.33051749006E+02 -0.75430253375E+01  0.12053064000E+02  0.35980434901E+02  0.51100000000E-03 0.  1.
         22    1    1    0    0    0 -0.57495517513E+02  0.13295896578E+02 -0.20582011762E+02  0.62499076858E+02  0.00000000000E+00 0. -1.
</event>
<event>
 4    1  0.1964735E-002  0.9118800E+02  0.7818608E-02  0.1130116E+00
         25   -1    0    0    0    0  0.00000000000E+00  0.00000000000E+00  0.99999998245E-14  0.12500000000E+03  0.12500000000E+03 0.  0.
        -11    1    1    0    0    0  0.22644697475E+01  0.96387252549E+00 -0.68959088447E+01  0.73219145405E+01  0.51100000000E-03 0.  1.
         11    1    1    0    0    0  0.17110690052E+02  0.72698229262E+01 -0.51951854780E+02  0.55178086726E+02  0.51100000000E-03 0. -1.
         22    1    1    0    0    0 -0.19375159800E+02 -0.82336954517E+01  0.58847763625E+02  0.62499998733E+02  0.00000000000E+00 0. -1.
</event>
<event>
 4    1  0.1964735E-002  0.9118800E+02  0.7818608E-02  0.1130116E+00
         25   -1    0    0    0    0  0.00000000000E+00  0.00000000000E+00  0.99999998245E-14  0.12500000000E+03  0.12500000000E+03 0.  0.
        -11    1    1    0    0    0 -0.16928739647E+02 -0.44430703718E+02 -0.72731730272E+00  0.47552062517E+02  0.51100000000E-03 0.  1.
         11    1    1    0    0    0 -0.54457611429E+01 -0.13918306171E+02 -0.26958374594E+00  0.14948185065E+02  0.51100000000E-03 0. -1.
         22    1    1    0    0    0  0.22374500790E+02  0.58349009888E+02  0.99690104866E+00  0.62499752418E+02  0.00000000000E+00 0.  1.
</event>
<event>
 4    1  0.1964735E-002  0.9118800E+02  0.7818608E-02  0.1130116E+00
         25   -1    0    0    0    0  0.00000000000E+00  0.00000000000E+00  0.99999998245E-14  0.12500000000E+03  0.12500000000E+03 0.  0.
        -11    1    1    0    0    0 -0.17503129091E+01  0.13185896077E+02  0.21903400342E+01  0.13480691391E+02  0.51100000000E-03 0.  1.
         11    1    1    0    0    0 -0.63985009604E+01  0.47949628329E+02  0.79237144504E+01  0.49019311729E+02  0.51100000000E-03 0. -1.
         22    1    1    0    0    0  0.81488138695E+01 -0.61135524406E+02 -0.10114054485E+02  0.62499996880E+02  0.00000000000E+00 0. -1.
</event>
<event>
 4    1  0.1964735E-002  0.9118800E+02  0.7818608E-02  0.1130116E+00
         25   -1    0    0    0    0  0.00000000000E+00  0.00000000000E+00  0.99999998245E-14  0.12500000000E+03  0.12500000000E+03 0.  0.
        -11    1    1    0    0    0 -0.18311369085E+01  0.80358448188E+00 -0.30436126721E+01  0.36417562735E+01  0.51100000000E-03 0.  1.
         11    1    1    0    0    0 -0.25805820445E+02  0.17601000046E+02 -0.49895993924E+02  0.58867187647E+02  0.51100000000E-03 0. -1.
         22    1    1    0    0    0  0.27636957353E+02 -0.18404584528E+02  0.52939606597E+02  0.62491056080E+02  0.00000000000E+00 0. -1.
</event>
<event>
 4    1  0.1964735E-002  0.9118800E+02  0.7818608E-02  0.1130116E+00
         25   -1    0    0    0    0  0.00000000000E+00  0.00000000000E+00  0.99999998245E-14  0.12500000000E+03  0.12500000000E+03 0.  0.
        -11    1    1    0    0    0 -0.93701858158E+00  0.62379150148E+01 -0.13786836203E+02  0.15161346915E+02  0.51100000000E-03 0. -1.
         11    1    1    0    0    0 -0.29285500820E+01  0.19477848479E+02 -0.43046313319E+02  0.47338653103E+02  0.51100000000E-03 0.  1.
         22    1    1    0    0    0  0.38655686636E+01 -0.25715763494E+02  0.56833149522E+02  0.62499999982E+02  0.00000000000E+00 0.  1.
</event>
<event>
 4    1  0.1964735E-002  0.9118800E+02  0.7818608E-02  0.1130116E+00
         25   -1    0    0    0    0  0.00000000000E+00  0.00000000000E+00  0.99999998245E-14  0.12500000000E+03  0.12500000000E+03 0.  0.
        -11    1    1    0    0    0 -0.78303299422E+01 -0.15272612655E+02  0.48467765472E+01  0.17834180874E+02  0.51100000000E-03 0. -1.
         11    1    1    0    0    0 -0.19591421420E+02 -0.38270864398E+02  0.12105899920E+02  0.44665822149E+02  0.51100000000E-03 0.  1.
         22    1    1    0    0    0  0.27421751363E+02  0.53543477053E+02 -0.16952676467E+02  0.62499996977E+02  0.00000000000E+00 0.  1.
</event>
<event>
 4    1  0.1964735E-002  0.9118800E+02  0.7818608E-02  0.1130116E+00
         25   -1    0    0    0    0  0.00000000000E+00  0.00000000000E+00  0.99999998245E-14  0.12500000000E+03  0.12500000000E+03 0.  0.
        -11    1    1    0    0    0  0.23634914334E+02  0.22217365589E+01 -0.18053023937E+02  0.29823765061E+02  0.51100000000E-03 0. -1.
         11    1    1    0    0    0  0.25895608240E+02  0.24335165629E+01 -0.19779580403E+02  0.32676234945E+02  0.51100000000E-03 0. -1.
         22    1    1    0    0    0 -0.49530522574E+02 -0.46552531218E+01  0.37832604340E+02  0.62499999994E+02  0.00000000000E+00 0. -1.
</event>
<event>
 4    1  0.1964735E-002  0.9118800E+02  0.7818608E-02  0.1130116E+00
         25   -1    0    0    0    0  0.00000000000E+00  0.00000000000E+00  0.99999998245E-14  0.12500000000E+03  0.12500000000E+03 0.  0.
        -11    1    1    0    0    0 -0.31439774459E+02 -0.14422137740E+02 -0.27332263246E+02  0.44085259321E+02  0.51100000000E-03 0. -1.
         11    1    1    0    0    0 -0.55515444359E+01 -0.57634526818E+01 -0.17587544762E+02  0.19322493718E+02  0.51100000000E-03 0.  1.
         22    1    1    0    0    0  0.36991318895E+02  0.20185590422E+02  0.44919808008E+02  0.61592246961E+02  0.00000000000E+00 0. -1.
</event>
<event>
 4    1  0.1964735E-002  0.9118800E+02  0.7818608E-02  0.1130116E+00
         25   -1    0    0    0    0  0.00000000000E+00  0.00000000000E+00  0.99999998245E-14  0.12500000000E+03  0.12500000000E+03 0.  0.
        -11    1    1    0    0    0  0.49003774485E+01 -0.90680182798E+01  0.46480907351E+01  0.11306962563E+02  0.51100000000E-03 0.  1.
         11    1    1    0    0    0  0.22182845789E+02 -0.41059012585E+02  0.21042954240E+02  0.51193037468E+02  0.51100000000E-03 0.  1.
         22    1    1    0    0    0 -0.27083223238E+02  0.50127030865E+02 -0.25691044975E+02  0.62499999969E+02  0.00000000000E+00 0.  1.
</event>
<event>
 4    1  0.1964735E-002  0.9118800E+02  0.7818608E-02  0.1130116E+00
         25   -1    0    0    0    0  0.00000000000E+00  0.00000000000E+00  0.99999998245E-14  0.12500000000E+03  0.12500000000E+03 0.  0.
        -11    1    1    0    0    0 -0.42644150669E+01  0.39931347399E+01  0.87486784762E+01  0.10519968453E+02  0.51100000000E-03 0. -1.
         11    1    1    0    0    0 -0.21051087939E+02  0.19744118609E+02  0.43231298924E+02  0.51980032031E+02  0.51100000000E-03 0.  1.
         22    1    1    0    0    0  0.25315503006E+02 -0.23737253349E+02 -0.51979977400E+02  0.62499999516E+02  0.00000000000E+00 0.  1.
</event>
<event>
 4    1  0.1964735E-002  0.9118800E+02  0.7818608E-02  0.1130116E+00
         25   -1    0    0    0    0  0.00000000000E+00  0.00000000000E+00  0.99999998245E-14  0.12500000000E+03  0.12500000000E+03 0.  0.
        -11    1    1    0    0    0  0.34561437408E+01  0.80471385357E+00 -0.11343816020E+01  0.37254953796E+01  0.51100000000E-03 0. -1.
         11    1    1    0    0    0  0.54527082606E+02  0.12671251493E+02 -0.17907514194E+02  0.58774504820E+02  0.51100000000E-03 0.  1.
         22    1    1    0    0    0 -0.57983226347E+02 -0.13475965346E+02  0.19041895796E+02  0.62499999801E+02  0.00000000000E+00 0.  1.
</event>
<event>
 4    1  0.1964735E-002  0.9118800E+02  0.7818608E-02  0.1130116E+00
         25   -1    0    0    0    0  0.00000000000E+00  0.00000000000E+00  0.99999998245E-14  0.12500000000E+03  0.12500000000E+03 0.  0.
        -11    1    1    0    0    0  0.47411660952E+00 -0.15124711160E+00 -0.51556290838E+01  0.51795920456E+01  0.51100000000E-03 0. -1.
         11    1    1    0    0    0  0.14557822702E+02  0.64494030739E+01 -0.55123392941E+02  0.57376941809E+02  0.51100000000E-03 0.  1.
         22    1    1    0    0    0 -0.15031939312E+02 -0.62981559623E+01  0.60279022024E+02  0.62443466145E+02  0.00000000000E+00 0.  1.
</event>
<event>
 4    1  0.1964735E-002  0.9118800E+02  0.7818608E-02  0.1130116E+00
         25   -1    0    0    0    0  0.00000000000E+00  0.00000000000E+00  0.99999998245E-14  0.12500000000E+03  0.12500000000E+03 0.  0.
        -11    1    1    0    0    0  0.78891876766E+00  0.49373623265E+01 -0.10032302235E+02  0.11209238510E+02  0.51100000000E-03 0.  1.
         11    1    1    0    0    0  0.37882683938E+01  0.22522483882E+02 -0.45925290213E+02  0.51290793901E+02  0.51100000000E-03 0. -1.
         22    1    1    0    0    0 -0.45771871615E+01 -0.27459846208E+02  0.55957592448E+02  0.62499967589E+02  0.00000000000E+00 0. -1.
</event>
<event>
 4    1  0.1964735E-002  0.9118800E+02  0.7818608E-02  0.1130116E+00
         25   -1    0    0    0    0  0.00000000000E+00  0.00000000000E+00  0.99999998245E-14  0.12500000000E+03  0.12500000000E+03 0.  0.
        -11    1    1    0    0    0  0.23053890403E+02 -0.48930096336E+01 -0.57183749182E+01  0.24251251885E+02  0.51100000000E-03 0.  1.
         11    1    1    0    0    0  0.37119101654E+02 -0.66531780756E+01 -0.65133641117E+01  0.38269000489E+02  0.51100000000E-03 0. -1.
         22    1    1    0    0    0 -0.60172992057E+02  0.11546187709E+02  0.12231739030E+02  0.62479747626E+02  0.00000000000E+00 0. -1.
</event>
<event>
 4    1  0.1964735E-002  0.9118800E+02  0.7818608E-02  0.1130116E+00
         25   -1    0    0    0    0  0.00000000000E+00  0.00000000000E+00  0.99999998245E-14  0.12500000000E+03  0.12500000000E+03 0.  0.
        -11    1    1    0    0    0 -0.77661520902E+00 -0.31756144939E+01 -0.36988579119E+00  0.32900568926E+01  0.51100000000E-03 0. -1.
         11    1    1    0    0    0 -0.14744960598E+02 -0.56816978842E+02 -0.77643531679E+01  0.59210371796E+02  0.51100000000E-03 0.  1.
         22    1    1    0    0    0  0.15521575807E+02  0.59992593336E+02  0.81342389591E+01  0.62499571312E+02  0.00000000000E+00 0.  1.
</event>
<event>
 4    1  0.1964735E-002  0.9118800E+02  0.7818608E-02  0.1130116E+00
         25   -1    0    0    0    0  0.00000000000E+00  0.00000000000E+00  0.99999998245E-14  0.12500000000E+03  0.12500000000E+03 0.  0.
        -11    1    1    0    0    0 -0.11243085248E+02  0.43246225721E+02 -0.25062947352E+02  0.51232746708E+02  0.51100000000E-03 0.  1.
         11    1    1    0    0    0 -0.17987361593E+01  0.95956183422E+01 -0.56423165031E+01  0.11275951353E+02  0.51100000000E-03 0. -1.
         22    1    1    0    0    0  0.13041821407E+02 -0.52841844063E+02  0.30705263855E+02  0.62491301939E+02  0.00000000000E+00 0.  1.
</event>
<event>
 4    1  0.1964735E-002  0.9118800E+02  0.7818608E-02  0.1130116E+00
         25   -1    0    0    0    0  0.00000000000E+00  0.00000000000E+00  0.99999998245E-14  0.12500000000E+03  0.12500000000E+03 0.  0.
        -11    1    1    0    0    0 -0.17463036303E+02 -0.37896454114E+01 -0.48431010997E+01  0.18514175050E+02  0.51100000000E-03 0. -1.
         11    1    1    0    0    0 -0.41489307417E+02 -0.89957805541E+01 -0.11509392218E+02  0.43985825071E+02  0.51100000000E-03 0.  1.
         22    1    1    0    0    0  0.58952343720E+02  0.12785425965E+02  0.16352493318E+02  0.62499999879E+02  0.00000000000E+00 0.  1.
</event>
<event>
 4    1  0.1964735E-002  0.9118800E+02  0.7818608E-02  0.1130116E+00
         25   -1    0    0    0    0  0.00000000000E+00  0.00000000000E+00  0.99999998245E-14  0.12500000000E+03  0.12500000000E+03 0.  0.
        -11    1    1    0    0    0  0.20534288469E+01 -0.48405246148E+02  0.14736172711E+02  0.50640292368E+02  0.51100000000E-03 0.  1.
         11    1    1    0    0    0  0.97100288412E+00 -0.10907911741E+02  0.46330823695E+01  0.11890787932E+02  0.51100000000E-03 0. -1.
         22    1    1    0    0    0 -0.30244317311E+01  0.59313157889E+02 -0.19369255081E+02  0.62468919700E+02  0.00000000000E+00 0.  1.
</event>
<event>
 4    1  0.1964735E-002  0.9118800E+02  0.7818608E-02  0.1130116E+00
         25   -1    0    0    0    0  0.00000000000E+00  0.00000000000E+00  0.99999998245E-14  0.12500000000E+03  0.12500000000E+03 0.  0.
        -11    1    1    0    0    0 -0.17181333598E+02 -0.82068520977E+01 -0.68568921710E+00  0.19053105142E+02  0.51100000000E-03 0. -1.
         11    1    1    0    0    0 -0.39191066190E+02 -0.18698116775E+02 -0.14407618335E+01  0.43446922042E+02  0.51100000000E-03 0.  1.
         22    1    1    0    0    0  0.56372399788E+02  0.26904968872E+02  0.21264510506E+01  0.62499972816E+02  0.00000000000E+00 0.  1.
</event>
<event>
 4    1  0.1964735E-002  0.9118800E+02  0.7818608E-02  0.1130116E+00
         25   -1    0    0    0    0  0.00000000000E+00  0.00000000000E+00  0.99999998245E-14  0.12500000000E+03  0.12500000000E+03 0.  0.
        -11    1    1    0    0    0 -0.19179507269E+02 -0.17374003003E+02 -0.86482891165E+01  0.27285570991E+02  0.51100000000E-03 0.  1.
         11    1    1    0    0    0 -0.25033853489E+02 -0.19703275565E+02 -0.15175508437E+02  0.35287518262E+02  0.51100000000E-03 0. -1.
         22    1    1    0    0    0  0.44213360758E+02  0.37077278568E+02  0.23823797554E+02  0.62426910747E+02  0.00000000000E+00 0. -1.
</event>
<event>
 4    1  0.1964735E-002  0.9118800E+02  0.7818608E-02  0.1130116E+00
         25   -1    0    0    0    0  0.00000000000E+00  0.00000000000E+00  0.99999998245E-14  0.12500000000E+03  0.12500000000E+03 0.  0.
        -11    1    1    0    0    0 -0.21478970672E+02 -0.24780475081E+02 -0.49563817105E+02  0.59430548480E+02  0.51100000000E-03 0.  1.
         11    1    1    0    0    0 -0.11105358581E+01 -0.12805854710E+01 -0.25589733833E+01  0.30694517553E+01  0.51100000000E-03 0. -1.
         22    1    1    0    0    0  0.22589506530E+02  0.26061060552E+02  0.52122790488E+02  0.62499999765E+02  0.00000000000E+00 0.  1.
</event>
<event>
 4    1  0.1964735E-002  0.9118800E+02  0.7818608E-02  0.1130116E+00
         25   -1    0    0    0    0  0.00000000000E+00  0.00000000000E+00  0.99999998245E-14  0.12500000000E+03  0.12500000000E+03 0.  0.
        -11    1    1    0    0    0  0.21557035245E+02 -0.12043660787E+02 -0.13257876871E+02  0.28027251615E+02  0.51100000000E-03 0.  1.
         11    1    1    0    0    0  0.26513942568E+02 -0.14813725613E+02 -0.16307506384E+02  0.34472748393E+02  0.51100000000E-03 0. -1.
         22    1    1    0    0    0 -0.48070977813E+02  0.26857386400E+02  0.29565383254E+02  0.62499999993E+02  0.00000000000E+00 0.  1.
</event>
<event>
 4    1  0.1964735E-002  0.9118800E+02  0.7818608E-02  0.1130116E+00
         25   -1    0    0    0    0  0.00000000000E+00  0.00000000000E+00  0.99999998245E-14  0.12500000000E+03  0.12500000000E+03 0.  0.
        -11    1    1    0    0    0 -0.15287263755E+02 -0.16447445526E+01  0.11521237197E+02  0.19213134169E+02  0.51100000000E-03 0.  1.
         11    1    1    0    0    0 -0.34481806223E+02 -0.38124650625E+01  0.25888716141E+02  0.43286897255E+02  0.51100000000E-03 0. -1.
         22    1    1    0    0    0  0.49769069978E+02  0.54572096151E+01 -0.37409953338E+02  0.62499968577E+02  0.00000000000E+00 0.  1.
</event>
<event>
 4    1  0.1964735E-002  0.9118800E+02  0.7818608E-02  0.1130116E+00
         25   -1    0    0    0    0  0.00000000000E+00  0.00000000000E+00  0.99999998245E-14  0.12500000000E+03  0.12500000000E+03 0.  0.
        -11    1    1    0    0    0 -0.27959867673E+02 -0.23822692185E+01 -0.17557863984E+02  0.33101480252E+02  0.51100000000E-03 0. -1.
         11    1    1    0    0    0 -0.24804713424E+02 -0.21671521990E+01 -0.15630222549E+02  0.29398541017E+02  0.51100000000E-03 0.  1.
         22    1    1    0    0    0  0.52764581098E+02  0.45494214175E+01  0.33188086533E+02  0.62499978731E+02  0.00000000000E+00 0. -1.
</event>
<event>
 4    1  0.1964735E-002  0.9118800E+02  0.7818608E-02  0.1130116E+00
         25   -1    0    0    0    0  0.00000000000E+00  0.00000000000E+00  0.99999998245E-14  0.12500000000E+03  0.12500000000E+03 0.  0.
        -11    1    1    0    0    0 -0.40676546793E+02  0.22899648009E+02 -0.31052918710E+01  0.46782669610E+02  0.51100000000E-03 0.  1.
         11    1    1    0    0    0 -0.13664096857E+02  0.76963633004E+01 -0.10454327472E+01  0.15717330589E+02  0.51100000000E-03 0. -1.
         22    1    1    0    0    0  0.54340643650E+02 -0.30596011309E+02  0.41507246182E+01  0.62499999801E+02  0.00000000000E+00 0.  1.
</event>
<event>
 4    1  0.1964735E-002  0.9118800E+02  0.7818608E-02  0.1130116E+00
         25   -1    0    0    0    0  0.00000000000E+00  0.00000000000E+00  0.99999998245E-14  0.12500000000E+03  0.12500000000E+03 0.  0.
        -11    1    1    0    0    0 -0.17552124217E+01 -0.18975640928E+02  0.39532253759E+02  0.43885701622E+02  0.51100000000E-03 0. -1.
         11    1    1    0    0    0 -0.74374923009E+00 -0.80484617770E+01  0.16767862247E+02  0.18614298388E+02  0.51100000000E-03 0. -1.
         22    1    1    0    0    0  0.24989616518E+01  0.27024102705E+02 -0.56300116007E+02  0.62499999990E+02  0.00000000000E+00 0. -1.
</event>
<event>
 4    1  0.1964735E-002  0.9118800E+02  0.7818608E-02  0.1130116E+00
         25   -1    0    0    0    0  0.00000000000E+00  0.00000000000E+00  0.99999998245E-14  0.12500000000E+03  0.12500000000E+03 0.  0.
        -11    1    1    0    0    0  0.37414792259E+01 -0.32745339337E+01 -0.30035251472E+01  0.58088211241E+01  0.51100000000E-03 0.  1.
         11    1    1    0    0    0  0.35849957579E+02 -0.31382469091E+02 -0.30723596025E+02  0.56692311451E+02  0.51100000000E-03 0. -1.
         22    1    1    0    0    0 -0.39591436805E+02  0.34657003025E+02  0.33727121172E+02  0.62498867425E+02  0.00000000000E+00 0. -1.
</event>
<event>
 4    1  0.1964735E-002  0.9118800E+02  0.7818608E-02  0.1130116E+00
         25   -1    0    0    0    0  0.00000000000E+00  0.00000000000E+00  0.99999998245E-14  0.12500000000E+03  0.12500000000E+03 0.  0.
        -11    1    1    0    0    0  0.26319664475E+02 -0.84373553034E+01  0.29672545385E+02  0.40550877333E+02  0.51100000000E-03 0. -1.
         11    1    1    0    0    0  0.14245625020E+02 -0.45829825612E+01  0.16056852547E+02  0.21949124706E+02  0.51100000000E-03 0.  1.
         22    1    1    0    0    0 -0.40565289495E+02  0.13020337865E+02 -0.45729397932E+02  0.62499997961E+02  0.00000000000E+00 0. -1.
</event>
<event>
 4    1  0.1964735E-002  0.9118800E+02  0.7818608E-02  0.1130116E+00
         25   -1    0    0    0    0  0.00000000000E+00  0.00000000000E+00  0.99999998245E-14  0.12500000000E+03  0.12500000000E+03 0.  0.
        -11    1    1    0    0    0 -0.73075239652E+01  0.11071392822E+02  0.12972873151E+02  0.18554543475E+02  0.51100000000E-03 0. -1.
         11    1    1    0    0    0 -0.17303055618E+02  0.26223947682E+02  0.30726405373E+02  0.43945456570E+02  0.51100000000E-03 0.  1.
         22    1    1    0    0    0  0.24610579583E+02 -0.37295340504E+02 -0.43699278525E+02  0.62499999954E+02  0.00000000000E+00 0.  1.
</event>
<event>
 4    1  0.1964735E-002  0.9118800E+02  0.7818608E-02  0.1130116E+00
         25   -1    0    0    0    0  0.00000000000E+00  0.00000000000E+00  0.99999998245E-14  0.12500000000E+03  0.12500000000E+03 0.  0.
        -11    1    1    0    0    0 -0.19137992713E+02 -0.25456281199E+02 -0.31507663034E+02  0.44799752764E+02  0.51100000000E-03 0. -1.
         11    1    1    0    0    0 -0.76063502101E+01 -0.99348990838E+01 -0.12519901029E+02  0.17700471896E+02  0.51100000000E-03 0.  1.
         22    1    1    0    0    0  0.26744342924E+02  0.35391180283E+02  0.44027564063E+02  0.62499775340E+02  0.00000000000E+00 0. -1.
</event>
<event>
 4    1  0.1964735E-002  0.9118800E+02  0.7818608E-02  0.1130116E+00
         25   -1    0    0    0    0  0.00000000000E+00  0.00000000000E+00  0.99999998245E-14  0.12500000000E+03  0.12500000000E+03 0.  0.
        -11    1    1    0    0    0 -0.16543137932E+02 -0.12773858762E+02 -0.13378802954E+02  0.24816108661E+02  0.51100000000E-03 0.  1.
         11    1    1    0    0    0 -0.25120364505E+02 -0.19399055910E+02 -0.20315501082E+02  0.37683891353E+02  0.51100000000E-03 0.  1.
         22    1    1    0    0    0  0.41663502437E+02  0.32172914672E+02  0.33694304036E+02  0.62499999986E+02  0.00000000000E+00 0.  1.
</event>
<event>
 4    1  0.1964735E-002  0.9118800E+02  0.7818608E-02  0.1130116E+00
         25   -1    0    0    0    0  0.00000000000E+00  0.00000000000E+00  0.99999998245E-14  0.12500000000E+03  0.12500000000E+03 0.  0.
        -11    1    1    0    0    0 -0.25430786772E+02  0.12164954584E+02 -0.88006609009E+01  0.29532400316E+02  0.51100000000E-03 0. -1.
         11    1    1    0    0    0 -0.28357797075E+02  0.14631179955E+02 -0.83315341317E+01  0.32979547345E+02  0.51100000000E-03 0.  1.
         22    1    1    0    0    0  0.53788583847E+02 -0.26796134539E+02  0.17132195033E+02  0.62488052339E+02  0.00000000000E+00 0.  1.
</event>
<event>
 4    1  0.1964735E-002  0.9118800E+02  0.7818608E-02  0.1130116E+00
         25   -1    0    0    0    0  0.00000000000E+00  0.00000000000E+00  0.99999998245E-14  0.12500000000E+03  0.12500000000E+03 0.  0.
        -11    1    1    0    0    0 -0.14021899459E+02 -0.23667092119E+00 -0.90129713891E+00  0.14052829408E+02  0.51100000000E-03 0. -1.
         11    1    1    0    0    0 -0.48339381749E+02 -0.83613355980E+00 -0.31198486328E+01  0.48447171259E+02  0.51100000000E-03 0.  1.
         22    1    1    0    0    0  0.62361281208E+02  0.10728044810E+01  0.40211457718E+01  0.62499999334E+02  0.00000000000E+00 0.  1.
</event>
<event>
 4    1  0.1964735E-002  0.9118800E+02  0.7818608E-02  0.1130116E+00
         25   -1    0    0    0    0  0.00000000000E+00  0.00000000000E+00  0.99999998245E-14  0.12500000000E+03  0.12500000000E+03 0.  0.
        -11    1    1    0    0    0 -0.77145396379E+01 -0.33453483468E+01  0.29740181362E+02  0.30906049005E+02  0.51100000000E-03 0. -1.
         11    1    1    0    0    0  0.93812257564E+00  0.17286686889E+02  0.28763501344E+02  0.33571544907E+02  0.51100000000E-03 0.  1.
         22    1    1    0    0    0  0.67764170622E+01 -0.13941338542E+02 -0.58503682706E+02  0.60522406089E+02  0.00000000000E+00 0.  1.
</event>
<event>
 4    1  0.1964735E-002  0.9118800E+02  0.7818608E-02  0.1130116E+00
         25   -1    0    0    0    0  0.00000000000E+00  0.00000000000E+00  0.99999998245E-14  0.12500000000E+03  0.12500000000E+03 0.  0.
        -11    1    1    0    0    0 -0.88077910497E+01 -0.14425082815E+02 -0.34890789352E+01  0.17257863989E+02  0.51100000000E-03 0.  1.
         11    1    1    0    0    0 -0.23086368322E+02 -0.37817633873E+02 -0.91486086195E+01  0.45242136046E+02  0.51100000000E-03 0. -1.
         22    1    1    0    0    0  0.31894159372E+02  0.52242716687E+02  0.12637687555E+02  0.62499999965E+02  0.00000000000E+00 0. -1.
</event>
<event>
 4    1  0.1964735E-002  0.9118800E+02  0.7818608E-02  0.1130116E+00
         25   -1    0    0    0    0  0.00000000000E+00  0.00000000000E+00  0.99999998245E-14  0.12500000000E+03  0.12500000000E+03 0.  0.
        -11    1    1    0    0    0 -0.91631775630E+01 -0.26207795741E+01 -0.33850873655E+01  0.10113907522E+02  0.51100000000E-03 0. -1.
         11    1    1    0    0    0 -0.47461025316E+02 -0.13579582603E+02 -0.17531363332E+02  0.52386092509E+02  0.51100000000E-03 0. -1.
         22    1    1    0    0    0  0.56624202879E+02  0.16200362178E+02  0.20916450698E+02  0.62499999970E+02  0.00000000000E+00 0. -1.
</event>
<event>
 4    1  0.1964735E-002  0.9118800E+02  0.7818608E-02  0.1130116E+00
         25   -1    0    0    0    0  0.00000000000E+00  0.00000000000E+00  0.99999998245E-14  0.12500000000E+03  0.12500000000E+03 0.  0.
        -11    1    1    0    0    0 -0.11318162172E+02  0.34932913736E+02 -0.35090452041E+02  0.50791230363E+02  0.51100000000E-03 0. -1.
         11    1    1    0    0    0 -0.14983151751E+02 -0.32919491427E+01 -0.56103065397E+01  0.16334237211E+02  0.51100000000E-03 0.  1.
         22    1    1    0    0    0  0.26301313923E+02 -0.31640964593E+02  0.40700758581E+02  0.57874532426E+02  0.00000000000E+00 0. -1.
</event>
<event>
 4    1  0.1964735E-002  0.9118800E+02  0.7818608E-02  0.1130116E+00
         25   -1    0    0    0    0  0.00000000000E+00  0.00000000000E+00  0.99999998245E-14  0.12500000000E+03  0.12500000000E+03 0.  0.
        -11    1    1    0    0    0  0.45492627225E+02 -0.29607928649E+02 -0.29762623164E+02  0.61903330352E+02  0.51100000000E-03 0.  1.
         11    1    1    0    0    0  0.43025312813E+00 -0.25875397691E+00 -0.32405715601E+00  0.59756562511E+00  0.51100000000E-03 0. -1.
         22    1    1    0    0    0 -0.45922880353E+02  0.29866682626E+02  0.30086680320E+02  0.62499104023E+02  0.00000000000E+00 0.  1.
</event>
<event>
 4    1  0.1964735E-002  0.9118800E+02  0.7818608E-02  0.1130116E+00
         25   -1    0    0    0    0  0.00000000000E+00  0.00000000000E+00  0.99999998245E-14  0.12500000000E+03  0.12500000000E+03 0.  0.
        -11    1    1    0    0    0  0.13249199352E+02  0.21741460262E+00  0.41462032407E+01  0.13884507703E+02  0.51100000000E-03 0.  1.
         11    1    1    0    0    0  0.43096246628E+02 -0.34652844401E+01  0.22458296135E+02  0.48720321584E+02  0.51100000000E-03 0. -1.
         22    1    1    0    0    0 -0.56345445981E+02  0.32478698374E+01 -0.26604499376E+02  0.62395170713E+02  0.00000000000E+00 0.  1.
</event>
<event>
 4    1  0.1964735E-002  0.9118800E+02  0.7818608E-02  0.1130116E+00
         25   -1    0    0    0    0  0.00000000000E+00  0.00000000000E+00  0.99999998245E-14  0.12500000000E+03  0.12500000000E+03 0.  0.
        -11    1    1    0    0    0  0.10283062835E+02  0.30282004074E+02  0.10828840404E+02  0.33763959140E+02  0.51100000000E-03 0. -1.
         11    1    1    0    0    0  0.22792181610E-02  0.29567644311E+02 -0.95555506426E-01  0.29567798809E+02  0.51100000000E-03 0.  1.
         22    1    1    0    0    0 -0.10285342053E+02 -0.59849648385E+02 -0.10733284898E+02  0.61668242051E+02  0.00000000000E+00 0. -1.
</event>
<event>
 4    1  0.1964735E-002  0.9118800E+02  0.7818608E-02  0.1130116E+00
         25   -1    0    0    0    0  0.00000000000E+00  0.00000000000E+00  0.99999998245E-14  0.12500000000E+03  0.12500000000E+03 0.  0.
        -11    1    1    0    0    0  0.71742123217E+01 -0.43721504106E+01  0.71884791012E+01  0.11057090653E+02  0.51100000000E-03 0.  1.
         11    1    1    0    0    0  0.32598786183E+02 -0.17452079402E+02  0.35782578181E+02  0.51455309130E+02  0.51100000000E-03 0. -1.
         22    1    1    0    0    0 -0.39772998505E+02  0.21824229813E+02 -0.42971057282E+02  0.62487600218E+02  0.00000000000E+00 0. -1.
</event>
<event>
 4    1  0.1964735E-002  0.9118800E+02  0.7818608E-02  0.1130116E+00
         25   -1    0    0    0    0  0.00000000000E+00  0.00000000000E+00  0.99999998245E-14  0.12500000000E+03  0.12500000000E+03 0.  0.
        -11    1    1    0    0    0 -0.20663842749E+01 -0.38412041430E+02  0.46593801634E+02  0.60421330850E+02  0.51100000000E-03 0. -1.
         11    1    1    0    0    0 -0.52062580337E-01 -0.13016427015E+01  0.16199958799E+01  0.20787907896E+01  0.51100000000E-03 0.  1.
         22    1    1    0    0    0  0.21184468553E+01  0.39713684131E+02 -0.48213797514E+02  0.62499878360E+02  0.00000000000E+00 0. -1.
</event>
<event>
 4    1  0.1964735E-002  0.9118800E+02  0.7818608E-02  0.1130116E+00
         25   -1    0    0    0    0  0.00000000000E+00  0.00000000000E+00  0.99999998245E-14  0.12500000000E+03  0.12500000000E+03 0.  0.
        -11    1    1    0    0    0  0.31293838724E+01  0.17826864052E+02 -0.23682234004E+01  0.18253728597E+02  0.51100000000E-03 0.  1.
         11    1    1    0    0    0  0.74524821139E+01  0.43216917665E+02 -0.58733497482E+01  0.44246329787E+02  0.51100000000E-03 0. -1.
         22    1    1    0    0    0 -0.10581865986E+02 -0.61043781717E+02  0.82415731486E+01  0.62499941616E+02  0.00000000000E+00 0. -1.
</event>
<event>
 4    1  0.1964735E-002  0.9118800E+02  0.7818608E-02  0.1130116E+00
         25   -1    0    0    0    0  0.00000000000E+00  0.00000000000E+00  0.99999998245E-14  0.12500000000E+03  0.12500000000E+03 0.  0.
        -11    1    1    0    0    0 -0.51184349273E+01  0.14023055826E+01 -0.85085158828E+00  0.53748289031E+01  0.51100000000E-03 0. -1.
         11    1    1    0    0    0 -0.54414655478E+02  0.14789876895E+02 -0.91428104172E+01  0.57125179842E+02  0.51100000000E-03 0.  1.
         22    1    1    0    0    0  0.59533090405E+02 -0.16192182477E+02  0.99936620055E+01  0.62499991255E+02  0.00000000000E+00 0.  1.
</event>
<event>
 4    1  0.1964735E-002  0.9118800E+02  0.7818608E-02  0.1130116E+00
         25   -1    0    0    0    0  0.00000000000E+00  0.00000000000E+00  0.99999998245E-14  0.12500000000E+03  0.12500000000E+03 0.  0.
        -11    1    1    0    0    0  0.15875579138E+02  0.18622369213E+02 -0.22550220904E+02  0.33276705233E+02  0.51100000000E-03 0. -1.
         11    1    1    0    0    0  0.13668404347E+02  0.16120842285E+02 -0.20183332746E+02  0.29224540277E+02  0.51100000000E-03 0.  1.
         22    1    1    0    0    0 -0.29543983485E+02 -0.34743211498E+02  0.42733553650E+02  0.62498754491E+02  0.00000000000E+00 0. -1.
</event>
<event>
 4    1  0.1964735E-002  0.9118800E+02  0.7818608E-02  0.1130116E+00
         25   -1    0    0    0    0  0.00000000000E+00  0.00000000000E+00  0.99999998245E-14  0.12500000000E+03  0.12500000000E+03 0.  0.
        -11    1    1    0    0    0 -0.82896886322E+00  0.81372705051E+01  0.39885773907E+01  0.91000610169E+01  0.51100000000E-03 0. -1.
         11    1    1    0    0    0 -0.16279738699E+02  0.44796793503E+02  0.24289044833E+02  0.53495236231E+02  0.51100000000E-03 0.  1.
         22    1    1    0    0    0  0.17108707562E+02 -0.52934064008E+02 -0.28277622224E+02  0.62404702752E+02  0.00000000000E+00 0.  1.
</event>
<event>
 4    1  0.1964735E-002  0.9118800E+02  0.7818608E-02  0.1130116E+00
         25   -1    0    0    0    0  0.00000000000E+00  0.00000000000E+00  0.99999998245E-14  0.12500000000E+03  0.12500000000E+03 0.  0.
        -11    1    1    0    0    0  0.38016525800E+01  0.22638149126E+01 -0.19226354347E+02  0.19728915886E+02  0.51100000000E-03 0.  1.
         11    1    1    0    0    0  0.12343294491E+02  0.16488831908E+01 -0.40971978468E+02  0.42822643012E+02  0.51100000000E-03 0. -1.
         22    1    1    0    0    0 -0.16144947071E+02 -0.39126981033E+01  0.60198332815E+02  0.62448441102E+02  0.00000000000E+00 0.  1.
</event>
<event>
 4    1  0.1964735E-002  0.9118800E+02  0.7818608E-02  0.1130116E+00
         25   -1    0    0    0    0  0.00000000000E+00  0.00000000000E+00  0.99999998245E-14  0.12500000000E+03  0.12500000000E+03 0.  0.
        -11    1    1    0    0    0  0.16856413878E+01 -0.23579021486E+02 -0.17442989685E+02  0.29378045043E+02  0.51100000000E-03 0.  1.
         11    1    1    0    0    0  0.19448318703E+01 -0.26502515897E+02 -0.19771262196E+02  0.33122024831E+02  0.51100000000E-03 0. -1.
         22    1    1    0    0    0 -0.36304732581E+01  0.50081537382E+02  0.37214251881E+02  0.62499930126E+02  0.00000000000E+00 0. -1.
</event>
<event>
 4    1  0.1964735E-002  0.9118800E+02  0.7818608E-02  0.1130116E+00
         25   -1    0    0    0    0  0.00000000000E+00  0.00000000000E+00  0.99999998245E-14  0.12500000000E+03  0.12500000000E+03 0.  0.
        -11    1    1    0    0    0 -0.39839717761E+02 -0.11145477224E+02  0.16107411264E+02  0.44394520740E+02  0.51100000000E-03 0. -1.
         11    1    1    0    0    0 -0.16249920140E+02 -0.45489887305E+01  0.65616462681E+01  0.18105479972E+02  0.51100000000E-03 0.  1.
         22    1    1    0    0    0  0.56089637901E+02  0.15694465955E+02 -0.22669057532E+02  0.62499999287E+02  0.00000000000E+00 0. -1.
</event>
<event>
 4    1  0.1964735E-002  0.9118800E+02  0.7818608E-02  0.1130116E+00
         25   -1    0    0    0    0  0.00000000000E+00  0.00000000000E+00  0.99999998245E-14  0.12500000000E+03  0.12500000000E+03 0.  0.
        -11    1    1    0    0    0  0.33487332621E+02 -0.59699224395E+01  0.12185935707E+02  0.36132235598E+02  0.51100000000E-03 0. -1.
         11    1    1    0    0    0  0.24437704884E+02 -0.43746189774E+01  0.88837157738E+01  0.26367766637E+02  0.51100000000E-03 0.  1.
         22    1    1    0    0    0 -0.57925037505E+02  0.10344541417E+02 -0.21069651481E+02  0.62499997765E+02  0.00000000000E+00 0. -1.
</event>
<event>
 4    1  0.1964735E-002  0.9118800E+02  0.7818608E-02  0.1130116E+00
         25   -1    0    0    0    0  0.00000000000E+00  0.00000000000E+00  0.99999998245E-14  0.12500000000E+03  0.12500000000E+03 0.  0.
        -11    1    1    0    0    0  0.12226999344E+02 -0.15539862863E+02 -0.50744197716E+02  0.54460632138E+02  0.51100000000E-03 0. -1.
         11    1    1    0    0    0  0.12812205926E+01 -0.28881854610E+01 -0.74111104544E+01  0.80565315051E+01  0.51100000000E-03 0.  1.
         22    1    1    0    0    0 -0.13508219937E+02  0.18428048324E+02  0.58155308170E+02  0.62482836357E+02  0.00000000000E+00 0. -1.
</event>
<event>
 4    1  0.1964735E-002  0.9118800E+02  0.7818608E-02  0.1130116E+00
         25   -1    0    0    0    0  0.00000000000E+00  0.00000000000E+00  0.99999998245E-14  0.12500000000E+03  0.12500000000E+03 0.  0.
        -11    1    1    0    0    0  0.11070991599E+02 -0.40621314864E+02  0.16391928505E+00  0.42103265266E+02  0.51100000000E-03 0. -1.
         11    1    1    0    0    0 -0.53832392870E+00 -0.17160005710E+02  0.14373495520E+02  0.22390912495E+02  0.51100000000E-03 0.  1.
         22    1    1    0    0    0 -0.10532667670E+02  0.57781320574E+02 -0.14537414805E+02  0.60505822239E+02  0.00000000000E+00 0. -1.
</event>
<event>
 4    1  0.1964735E-002  0.9118800E+02  0.7818608E-02  0.1130116E+00
         25   -1    0    0    0    0  0.00000000000E+00  0.00000000000E+00  0.99999998245E-14  0.12500000000E+03  0.12500000000E+03 0.  0.
        -11    1    1    0    0    0  0.37243015528E+02  0.63295001321E+01  0.23335442644E+02  0.44403239309E+02  0.51100000000E-03 0. -1.
         11    1    1    0    0    0  0.15180603747E+02  0.25793369027E+01  0.95073152607E+01  0.18096760835E+02  0.51100000000E-03 0. -1.
         22    1    1    0    0    0 -0.52423619275E+02 -0.89088370348E+01 -0.32842757904E+02  0.62499999856E+02  0.00000000000E+00 0. -1.
</event>
<event>
 4    1  0.1964735E-002  0.9118800E+02  0.7818608E-02  0.1130116E+00
         25   -1    0    0    0    0  0.00000000000E+00  0.00000000000E+00  0.99999998245E-14  0.12500000000E+03  0.12500000000E+03 0.  0.
        -11    1    1    0    0    0  0.24417372919E+02 -0.19766130459E+01  0.20174795144E+02  0.31735429078E+02  0.51100000000E-03 0.  1.
         11    1    1    0    0    0  0.23670780981E+02 -0.19160174300E+01  0.19557142661E+02  0.30764570928E+02  0.51100000000E-03 0.  1.
         22    1    1    0    0    0 -0.48088153900E+02  0.38926304758E+01 -0.39731937805E+02  0.62499999994E+02  0.00000000000E+00 0.  1.
</event>
<event>
 4    1  0.1964735E-002  0.9118800E+02  0.7818608E-02  0.1130116E+00
         25   -1    0    0    0    0  0.00000000000E+00  0.00000000000E+00  0.99999998245E-14  0.12500000000E+03  0.12500000000E+03 0.  0.
        -11    1    1    0    0    0 -0.17796658073E+02 -0.36957831381E+02 -0.27890154221E+02  0.49603054762E+02  0.51100000000E-03 0.  1.
         11    1    1    0    0    0 -0.45005628357E+01 -0.96289704615E+01 -0.73052530586E+01  0.12897242360E+02  0.51100000000E-03 0. -1.
         22    1    1    0    0    0  0.22297220909E+02  0.46586801843E+02  0.35195407280E+02  0.62499702878E+02  0.00000000000E+00 0.  1.
</event>
<event>
 4    1  0.1964735E-002  0.9118800E+02  0.7818608E-02  0.1130116E+00
         25   -1    0    0    0    0  0.00000000000E+00  0.00000000000E+00  0.99999998245E-14  0.12500000000E+03  0.12500000000E+03 0.  0.
        -11    1    1    0    0    0  0.24531193171E+02 -0.17981021201E+01  0.13950495001E+02  0.28277710668E+02  0.51100000000E-03 0.  1.
         11    1    1    0    0    0  0.29689439722E+02 -0.21760783405E+01  0.16880963854E+02  0.34222289357E+02  0.51100000000E-03 0.  1.
         22    1    1    0    0    0 -0.54220632893E+02  0.39741804606E+01 -0.30831458855E+02  0.62499999974E+02  0.00000000000E+00 0.  1.
</event>
<event>
 4    1  0.1964735E-002  0.9118800E+02  0.7818608E-02  0.1130116E+00
         25   -1    0    0    0    0  0.00000000000E+00  0.00000000000E+00  0.99999998245E-14  0.12500000000E+03  0.12500000000E+03 0.  0.
        -11    1    1    0    0    0  0.78269379957E+01  0.10694291571E+02  0.13530188710E+02  0.18939240676E+02  0.51100000000E-03 0. -1.
         11    1    1    0    0    0  0.73602483970E+01  0.30627748249E+02 -0.42838326221E+02  0.53172872905E+02  0.51100000000E-03 0.  1.
         22    1    1    0    0    0 -0.15187186393E+02 -0.41322039820E+02  0.29308137512E+02  0.52887886419E+02  0.00000000000E+00 0.  1.
</event>
<event>
 4    1  0.1964735E-002  0.9118800E+02  0.7818608E-02  0.1130116E+00
         25   -1    0    0    0    0  0.00000000000E+00  0.00000000000E+00  0.99999998245E-14  0.12500000000E+03  0.12500000000E+03 0.  0.
        -11    1    1    0    0    0  0.20054873370E+02  0.64094303862E+01  0.46610589090E+02  0.51145144044E+02  0.51100000000E-03 0. -1.
         11    1    1    0    0    0  0.43991234095E+01  0.14370434319E+01  0.10369030597E+02  0.11354918599E+02  0.51100000000E-03 0.  1.
         22    1    1    0    0    0 -0.24453996779E+02 -0.78464738181E+01 -0.56979619687E+02  0.62499937357E+02  0.00000000000E+00 0. -1.
</event>
<event>
 4    1  0.1964735E-002  0.9118800E+02  0.7818608E-02  0.1130116E+00
         25   -1    0    0    0    0  0.00000000000E+00  0.00000000000E+00  0.99999998245E-14  0.12500000000E+03  0.12500000000E+03 0.  0.
        -11    1    1    0    0    0  0.41340535000E+01  0.29888939484E+02  0.27856222546E+02  0.41065901142E+02  0.51100000000E-03 0. -1.
         11    1    1    0    0    0  0.21594320867E+01  0.15601606098E+02  0.14537789938E+02  0.21434098916E+02  0.51100000000E-03 0.  1.
         22    1    1    0    0    0 -0.62934855867E+01 -0.45490545583E+02 -0.42394012484E+02  0.62499999942E+02  0.00000000000E+00 0.  1.
</event>
<event>
 4    1  0.1964735E-002  0.9118800E+02  0.7818608E-02  0.1130116E+00
         25   -1    0    0    0    0  0.00000000000E+00  0.00000000000E+00  0.99999998245E-14  0.12500000000E+03  0.12500000000E+03 0.  0.
        -11    1    1    0    0    0  0.15929546322E+00 -0.66823252794E+01  0.31350554354E+02  0.32055204020E+02  0.51100000000E-03 0. -1.
         11    1    1    0    0    0  0.20992866991E+01 -0.41390832488E+01  0.30126433312E+02  0.30481814236E+02  0.51100000000E-03 0.  1.
         22    1    1    0    0    0 -0.22585821623E+01  0.10821408528E+02 -0.61476987666E+02  0.62462981744E+02  0.00000000000E+00 0.  1.
</event>
<event>
 4    1  0.1964735E-002  0.9118800E+02  0.7818608E-02  0.1130116E+00
         25   -1    0    0    0    0  0.00000000000E+00  0.00000000000E+00  0.99999998245E-14  0.12500000000E+03  0.12500000000E+03 0.  0.
        -11    1    1    0    0    0  0.17530507033E+02 -0.39712353436E+01 -0.93854321696E+00  0.17999173609E+02  0.51100000000E-03 0. -1.
         11    1    1    0    0    0  0.43086992139E+02 -0.10750738560E+02 -0.29051768230E+01  0.44502891184E+02  0.51100000000E-03 0.  1.
         22    1    1    0    0    0 -0.60617499171E+02  0.14721973904E+02  0.38437200400E+01  0.62497935207E+02  0.00000000000E+00 0.  1.
</event>
<event>
 4    1  0.1964735E-002  0.9118800E+02  0.7818608E-02  0.1130116E+00
         25   -1    0    0    0    0  0.00000000000E+00  0.00000000000E+00  0.99999998245E-14  0.12500000000E+03  0.12500000000E+03 0.  0.
        -11    1    1    0    0    0  0.28578467808E+01  0.23790396260E+01 -0.46915406849E+01  0.59864573851E+01  0.51100000000E-03 0.  1.
         11    1    1    0    0    0  0.26985992050E+02  0.22473787884E+02 -0.44277145478E+02  0.56513542808E+02  0.51100000000E-03 0. -1.
         22    1    1    0    0    0 -0.29843838831E+02 -0.24852827510E+02  0.48968686162E+02  0.62499999807E+02  0.00000000000E+00 0. -1.
</event>
<event>
 4    1  0.1964735E-002  0.9118800E+02  0.7818608E-02  0.1130116E+00
         25   -1    0    0    0    0  0.00000000000E+00  0.00000000000E+00  0.99999998245E-14  0.12500000000E+03  0.12500000000E+03 0.  0.
        -11    1    1    0    0    0  0.18504611125E+00  0.50194032683E+00  0.98838273993E-01  0.54401784944E+00  0.51100000000E-03 0. -1.
         11    1    1    0    0    0  0.43350914106E+02 -0.24115367442E+02  0.37572478710E+02  0.62229766650E+02  0.51100000000E-03 0.  1.
         22    1    1    0    0    0 -0.43535960217E+02  0.23613427116E+02 -0.37671316984E+02  0.62226215500E+02  0.00000000000E+00 0.  1.
</event>
<event>
 4    1  0.1964735E-002  0.9118800E+02  0.7818608E-02  0.1130116E+00
         25   -1    0    0    0    0  0.00000000000E+00  0.00000000000E+00  0.99999998245E-14  0.12500000000E+03  0.12500000000E+03 0.  0.
        -11    1    1    0    0    0  0.52609329949E+01  0.53801270863E+02  0.16264478717E+02  0.56451637980E+02  0.51100000000E-03 0.  1.
         11    1    1    0    0    0  0.41929934316E+00  0.57788349036E+01  0.17382330567E+01  0.60491486345E+01  0.51100000000E-03 0. -1.
         22    1    1    0    0    0 -0.56802323380E+01 -0.59580105767E+02 -0.18002711774E+02  0.62499213385E+02  0.00000000000E+00 0.  1.
</event>
<event>
 4    1  0.1964735E-002  0.9118800E+02  0.7818608E-02  0.1130116E+00
         25   -1    0    0    0    0  0.00000000000E+00  0.00000000000E+00  0.99999998245E-14  0.12500000000E+03  0.12500000000E+03 0.  0.
        -11    1    1    0    0    0  0.46713736203E+02  0.11802275798E+02 -0.24993782557E+02  0.54278504317E+02  0.51100000000E-03 0. -1.
         11    1    1    0    0    0  0.70756674629E+01  0.17870629544E+01 -0.37860701666E+01  0.82214957044E+01  0.51100000000E-03 0.  1.
         22    1    1    0    0    0 -0.53789403666E+02 -0.13589338753E+02  0.28779852724E+02  0.62499999979E+02  0.00000000000E+00 0. -1.
</event>
<event>
 4    1  0.1964735E-002  0.9118800E+02  0.7818608E-02  0.1130116E+00
         25   -1    0    0    0    0  0.00000000000E+00  0.00000000000E+00  0.99999998245E-14  0.12500000000E+03  0.12500000000E+03 0.  0.
        -11    1    1    0    0    0  0.10539338326E+02  0.18527278215E+02  0.36124147090E+01  0.21619140378E+02  0.51100000000E-03 0.  1.
         11    1    1    0    0    0  0.19946056030E+02  0.35023128106E+02  0.68395988479E+01  0.40880860633E+02  0.51100000000E-03 0. -1.
         22    1    1    0    0    0 -0.30485394357E+02 -0.53550406320E+02 -0.10452013557E+02  0.62499998988E+02  0.00000000000E+00 0. -1.
</event>
<event>
 4    1  0.1964735E-002  0.9118800E+02  0.7818608E-02  0.1130116E+00
         25   -1    0    0    0    0  0.00000000000E+00  0.00000000000E+00  0.99999998245E-14  0.12500000000E+03  0.12500000000E+03 0.  0.
        -11    1    1    0    0    0 -0.42197961656E+02 -0.18525346772E+02 -0.38543708823E+02  0.60078897551E+02  0.51100000000E-03 0. -1.
         11    1    1    0    0    0 -0.17009251735E+01 -0.74669305941E+00 -0.15527524540E+01  0.24211025206E+01  0.51100000000E-03 0.  1.
         22    1    1    0    0    0  0.43898886829E+02  0.19272039831E+02  0.40096461277E+02  0.62499999928E+02  0.00000000000E+00 0. -1.
</event>
<event>
 4    1  0.1964735E-002  0.9118800E+02  0.7818608E-02  0.1130116E+00
         25   -1    0    0    0    0  0.00000000000E+00  0.00000000000E+00  0.99999998245E-14  0.12500000000E+03  0.12500000000E+03 0.  0.
        -11    1    1    0    0    0  0.30753343435E+02 -0.12655682280E+02 -0.23173728409E+02  0.40533395059E+02  0.51100000000E-03 0.  1.
         11    1    1    0    0    0  0.16757800001E+02 -0.68741523802E+01 -0.12428282475E+02  0.21966793970E+02  0.51100000000E-03 0. -1.
         22    1    1    0    0    0 -0.47511143435E+02  0.19529834660E+02  0.35602010884E+02  0.62499810970E+02  0.00000000000E+00 0. -1.
</event>
<event>
 4    1  0.1964735E-002  0.9118800E+02  0.7818608E-02  0.1130116E+00
         25   -1    0    0    0    0  0.00000000000E+00  0.00000000000E+00  0.99999998245E-14  0.12500000000E+03  0.12500000000E+03 0.  0.
        -11    1    1    0    0    0  0.13992341416E+02  0.36046042682E+02 -0.38615906971E+01  0.38858907529E+02  0.51100000000E-03 0.  1.
         11    1    1    0    0    0  0.85110591584E+01  0.21930730218E+02 -0.23465295314E+01  0.23641092551E+02  0.51100000000E-03 0. -1.
         22    1    1    0    0    0 -0.22503400574E+02 -0.57976772900E+02  0.62081202284E+01  0.62499999921E+02  0.00000000000E+00 0. -1.
</event>
<event>
 4    1  0.1964735E-002  0.9118800E+02  0.7818608E-02  0.1130116E+00
         25   -1    0    0    0    0  0.00000000000E+00  0.00000000000E+00  0.99999998245E-14  0.12500000000E+03  0.12500000000E+03 0.  0.
        -11    1    1    0    0    0  0.33458565898E+02  0.25476128797E+02  0.47425669404E+01  0.42320216349E+02  0.51100000000E-03 0.  1.
         11    1    1    0    0    0  0.15956317870E+02  0.12144860983E+02  0.22631715681E+01  0.20179783796E+02  0.51100000000E-03 0. -1.
         22    1    1    0    0    0 -0.49414883768E+02 -0.37620989780E+02 -0.70057385084E+01  0.62499999854E+02  0.00000000000E+00 0.  1.
</event>
<event>
 4    1  0.1964735E-002  0.9118800E+02  0.7818608E-02  0.1130116E+00
         25   -1    0    0    0    0  0.00000000000E+00  0.00000000000E+00  0.99999998245E-14  0.12500000000E+03  0.12500000000E+03 0.  0.
        -11    1    1    0    0    0  0.16511889566E+02 -0.15510338611E+02 -0.14275962562E+02  0.26777158329E+02  0.51100000000E-03 0.  1.
         11    1    1    0    0    0  0.21890138104E+02  0.30217611124E+00 -0.30346193289E+02  0.37418723977E+02  0.51100000000E-03 0. -1.
         22    1    1    0    0    0 -0.38402027670E+02  0.15208162499E+02  0.44622155851E+02  0.60804117694E+02  0.00000000000E+00 0. -1.
</event>
<event>
 4    1  0.1964735E-002  0.9118800E+02  0.7818608E-02  0.1130116E+00
         25   -1    0    0    0    0  0.00000000000E+00  0.00000000000E+00  0.99999998245E-14  0.12500000000E+03  0.12500000000E+03 0.  0.
        -11    1    1    0    0    0 -0.29732666179E+02 -0.20428824033E+02 -0.50870542958E+02  0.62363293936E+02  0.51100000000E-03 0.  1.
         11    1    1    0    0    0  0.29455563294E+01  0.81288046086E+00  0.24009573650E+01  0.38860871404E+01  0.51100000000E-03 0. -1.
         22    1    1    0    0    0  0.26787109850E+02  0.19615943572E+02  0.48469585593E+02  0.58750618923E+02  0.00000000000E+00 0.  1.
</event>
<event>
 4    1  0.1964735E-002  0.9118800E+02  0.7818608E-02  0.1130116E+00
         25   -1    0    0    0    0  0.00000000000E+00  0.00000000000E+00  0.99999998245E-14  0.12500000000E+03  0.12500000000E+03 0.  0.
        -11    1    1    0    0    0  0.40991207769E+00 -0.52218190296E+00  0.10151823101E+02  0.10173505511E+02  0.51100000000E-03 0. -1.
         11    1    1    0    0    0  0.18548041337E+01 -0.22045426909E+01  0.52247352911E+02  0.52326725421E+02  0.51100000000E-03 0.  1.
         22    1    1    0    0    0 -0.22647162114E+01  0.27267245938E+01 -0.62399176012E+02  0.62499769068E+02  0.00000000000E+00 0.  1.
</event>
<event>
 4    1  0.1964735E-002  0.9118800E+02  0.7818608E-02  0.1130116E+00
         25   -1    0    0    0    0  0.00000000000E+00  0.00000000000E+00  0.99999998245E-14  0.12500000000E+03  0.12500000000E+03 0.  0.
        -11    1    1    0    0    0 -0.40127406453E+00  0.51542362624E+00 -0.13027847126E+01  0.14573711462E+01  0.51100000000E-03 0.  1.
         11    1    1    0    0    0 -0.16747941675E+02  0.21575169246E+02 -0.54591401470E+02  0.61042629310E+02  0.51100000000E-03 0. -1.
         22    1    1    0    0    0  0.17149215740E+02 -0.22090592872E+02  0.55894186183E+02  0.62499999544E+02  0.00000000000E+00 0. -1.
</event>
<event>
 4    1  0.1964735E-002  0.9118800E+02  0.7818608E-02  0.1130116E+00
         25   -1    0    0    0    0  0.00000000000E+00  0.00000000000E+00  0.99999998245E-14  0.12500000000E+03  0.12500000000E+03 0.  0.
        -11    1    1    0    0    0  0.76749518697E+01 -0.13554103922E+02  0.62671261917E+01  0.16789743604E+02  0.51100000000E-03 0.  1.
         11    1    1    0    0    0  0.21774325145E+02 -0.36329979966E+02  0.17192695982E+02  0.45711896430E+02  0.51100000000E-03 0. -1.
         22    1    1    0    0    0 -0.29449277015E+02  0.49884083888E+02 -0.23459822174E+02  0.62498359966E+02  0.00000000000E+00 0. -1.
</event>
<event>
 4    1  0.1964735E-002  0.9118800E+02  0.7818608E-02  0.1130116E+00
         25   -1    0    0    0    0  0.00000000000E+00  0.00000000000E+00  0.99999998245E-14  0.12500000000E+03  0.12500000000E+03 0.  0.
        -11    1    1    0    0    0  0.22441569452E+01 -0.22192508322E+02 -0.34025007108E+01  0.22563702652E+02  0.51100000000E-03 0.  1.
         11    1    1    0    0    0 -0.48341208496E+02 -0.26689951433E+01  0.10624098302E+02  0.49566797748E+02  0.51100000000E-03 0. -1.
         22    1    1    0    0    0  0.46097051551E+02  0.24861503465E+02 -0.72215975915E+01  0.52869499601E+02  0.00000000000E+00 0. -1.
</event>
<event>
 4    1  0.1964735E-002  0.9118800E+02  0.7818608E-02  0.1130116E+00
         25   -1    0    0    0    0  0.00000000000E+00  0.00000000000E+00  0.99999998245E-14  0.12500000000E+03  0.12500000000E+03 0.  0.
        -11    1    1    0    0    0  0.50324048512E+01 -0.33675608663E+02  0.50900815307E+02  0.61239404933E+02  0.51100000000E-03 0. -1.
         11    1    1    0    0    0  0.10358656565E+00 -0.69354054268E+00  0.10475548741E+01  0.12605951516E+01  0.51100000000E-03 0. -1.
         22    1    1    0    0    0 -0.51359914169E+01  0.34369149205E+02 -0.51948370181E+02  0.62499999915E+02  0.00000000000E+00 0. -1.
</event>
<event>
 4    1  0.1964735E-002  0.9118800E+02  0.7818608E-02  0.1130116E+00
         25   -1    0    0    0    0  0.00000000000E+00  0.00000000000E+00  0.99999998245E-14  0.12500000000E+03  0.12500000000E+03 0.  0.
        -11    1    1    0    0    0  0.29729988038E+01 -0.37402756504E+01  0.34915068809E+01  0.59176857291E+01  0.51100000000E-03 0.  1.
         11    1    1    0    0    0  0.27713168849E+02 -0.35992979009E+02  0.33735388799E+02  0.56582600888E+02  0.51100000000E-03 0. -1.
         22    1    1    0    0    0 -0.30686167653E+02  0.39733254659E+02 -0.37226895680E+02  0.62499713383E+02  0.00000000000E+00 0. -1.
</event>
<event>
 4    1  0.1964735E-002  0.9118800E+02  0.7818608E-02  0.1130116E+00
         25   -1    0    0    0    0  0.00000000000E+00  0.00000000000E+00  0.99999998245E-14  0.12500000000E+03  0.12500000000E+03 0.  0.
        -11    1    1    0    0    0  0.18733166788E+02 -0.31863319511E+02  0.36963472348E+02  0.52273329303E+02  0.51100000000E-03 0. -1.
         11    1    1    0    0    0  0.36269268438E+01 -0.62226060839E+01  0.72601906795E+01  0.10226719600E+02  0.51100000000E-03 0.  1.
         22    1    1    0    0    0 -0.22360093631E+02  0.38085925595E+02 -0.44223663027E+02  0.62499951097E+02  0.00000000000E+00 0. -1.
</event>
<event>
 4    1  0.1964735E-002  0.9118800E+02  0.7818608E-02  0.1130116E+00
         25   -1    0    0    0    0  0.00000000000E+00  0.00000000000E+00  0.99999998245E-14  0.12500000000E+03  0.12500000000E+03 0.  0.
        -11    1    1    0    0    0  0.75256366096E+00  0.38896273680E+00  0.25306389933E+00  0.88412989582E+00  0.51100000000E-03 0.  1.
         11    1    1    0    0    0  0.53423173472E+02  0.26839021173E+02  0.14906605525E+02  0.61616356675E+02  0.51100000000E-03 0. -1.
         22    1    1    0    0    0 -0.54175737133E+02 -0.27227983910E+02 -0.15159669425E+02  0.62499513429E+02  0.00000000000E+00 0. -1.
</event>
<event>
 4    1  0.1964735E-002  0.9118800E+02  0.7818608E-02  0.1130116E+00
         25   -1    0    0    0    0  0.00000000000E+00  0.00000000000E+00  0.99999998245E-14  0.12500000000E+03  0.12500000000E+03 0.  0.
        -11    1    1    0    0    0 -0.50234880737E+01 -0.11669869069E+02  0.78215736727E-01  0.12705408080E+02  0.51100000000E-03 0. -1.
         11    1    1    0    0    0 -0.19688893453E+02 -0.45735725427E+02  0.30377628529E+00  0.49794591935E+02  0.51100000000E-03 0. -1.
         22    1    1    0    0    0  0.24712381527E+02  0.57405594496E+02 -0.38199202202E+00  0.62499999985E+02  0.00000000000E+00 0. -1.
</event>
<event>
 4    1  0.1964735E-002  0.9118800E+02  0.7818608E-02  0.1130116E+00
         25   -1    0    0    0    0  0.00000000000E+00  0.00000000000E+00  0.99999998245E-14  0.12500000000E+03  0.12500000000E+03 0.  0.
        -11    1    1    0    0    0 -0.19850665049E+02  0.14220880025E+02 -0.40405561233E+02  0.47211139685E+02  0.51100000000E-03 0. -1.
         11    1    1    0    0    0 -0.63980294211E+01  0.45456459717E+01 -0.13120737357E+02  0.15288931514E+02  0.51100000000E-03 0.  1.
         22    1    1    0    0    0  0.26248694471E+02 -0.18766525996E+02  0.53526298590E+02  0.62499928801E+02  0.00000000000E+00 0. -1.
</event>
<event>
 4    1  0.1964735E-002  0.9118800E+02  0.7818608E-02  0.1130116E+00
         25   -1    0    0    0    0  0.00000000000E+00  0.00000000000E+00  0.99999998245E-14  0.12500000000E+03  0.12500000000E+03 0.  0.
        -11    1    1    0    0    0 -0.30292355797E+02 -0.15777218883E+02  0.28305450193E+02  0.44359282753E+02  0.51100000000E-03 0.  1.
         11    1    1    0    0    0 -0.12377867923E+02 -0.64309261234E+01  0.11598171196E+02  0.18140727672E+02  0.51100000000E-03 0. -1.
         22    1    1    0    0    0  0.42670223720E+02  0.22208145007E+02 -0.39903621389E+02  0.62499989575E+02  0.00000000000E+00 0.  1.
</event>
<event>
 4    1  0.1964735E-002  0.9118800E+02  0.7818608E-02  0.1130116E+00
         25   -1    0    0    0    0  0.00000000000E+00  0.00000000000E+00  0.99999998245E-14  0.12500000000E+03  0.12500000000E+03 0.  0.
        -11    1    1    0    0    0 -0.46131846269E+01 -0.11230547222E+02 -0.12964489509E+02  0.17761887619E+02  0.51100000000E-03 0.  1.
         11    1    1    0    0    0 -0.14439039466E+02 -0.27407225341E+02 -0.32297287139E+02  0.44752168868E+02  0.51100000000E-03 0. -1.
         22    1    1    0    0    0  0.19052224093E+02  0.38637772563E+02  0.45261776647E+02  0.62485943513E+02  0.00000000000E+00 0. -1.
</event>
<event>
 4    1  0.1964735E-002  0.9118800E+02  0.7818608E-02  0.1130116E+00
         25   -1    0    0    0    0  0.00000000000E+00  0.00000000000E+00  0.99999998245E-14  0.12500000000E+03  0.12500000000E+03 0.  0.
        -11    1    1    0    0    0 -0.45335990760E+02 -0.37877580482E+02  0.15763247615E+02  0.61143627116E+02  0.51100000000E-03 0. -1.
         11    1    1    0    0    0 -0.11048742908E+01 -0.83401008059E+00 -0.35561366049E-01  0.13847688922E+01  0.51100000000E-03 0.  1.
         22    1    1    0    0    0  0.46440865050E+02  0.38711590562E+02 -0.15727686249E+02  0.62471603991E+02  0.00000000000E+00 0. -1.
</event>
<event>
 4    1  0.1964735E-002  0.9118800E+02  0.7818608E-02  0.1130116E+00
         25   -1    0    0    0    0  0.00000000000E+00  0.00000000000E+00  0.99999998245E-14  0.12500000000E+03  0.12500000000E+03 0.  0.
        -11    1    1    0    0    0  0.90994398538E+01 -0.70141689759E+01 -0.26064080313E+01  0.11780990415E+02  0.51100000000E-03 0. -1.
         11    1    1    0    0    0  0.37077638456E+02 -0.29264545019E+02 -0.18625787295E+02  0.50774844375E+02  0.51100000000E-03 0.  1.
         22    1    1    0    0    0 -0.46177078310E+02  0.36278713995E+02  0.21232195326E+02  0.62444165210E+02  0.00000000000E+00 0.  1.
</event>
<event>
 4    1  0.1964735E-002  0.9118800E+02  0.7818608E-02  0.1130116E+00
         25   -1    0    0    0    0  0.00000000000E+00  0.00000000000E+00  0.99999998245E-14  0.12500000000E+03  0.12500000000E+03 0.  0.
        -11    1    1    0    0    0  0.55836452325E+02 -0.13458894966E+02  0.21014400926E+02  0.61159270012E+02  0.51100000000E-03 0. -1.
         11    1    1    0    0    0  0.12151919126E+01 -0.30146548435E+00  0.47981418757E+00  0.13408186821E+01  0.51100000000E-03 0.  1.
         22    1    1    0    0    0 -0.57051644237E+02  0.13760360451E+02 -0.21494215113E+02  0.62499911306E+02  0.00000000000E+00 0. -1.
</event>
<event>
 4    1  0.1964735E-002  0.9118800E+02  0.7818608E-02  0.1130116E+00
         25   -1    0    0    0    0  0.00000000000E+00  0.00000000000E+00  0.99999998245E-14  0.12500000000E+03  0.12500000000E+03 0.  0.
        -11    1    1    0    0    0  0.66012612013E+01  0.86212168280E+01  0.47278202876E+01  0.11842901417E+02  0.51100000000E-03 0. -1.
         11    1    1    0    0    0  0.29489640792E+02  0.37920478954E+02  0.16136130488E+02  0.50675204445E+02  0.51100000000E-03 0.  1.
         22    1    1    0    0    0 -0.36090901994E+02 -0.46541695782E+02 -0.20863950775E+02  0.62481894137E+02  0.00000000000E+00 0.  1.
</event>
<event>
 4    1  0.1964735E-002  0.9118800E+02  0.7818608E-02  0.1130116E+00
         25   -1    0    0    0    0  0.00000000000E+00  0.00000000000E+00  0.99999998245E-14  0.12500000000E+03  0.12500000000E+03 0.  0.
        -11    1    1    0    0    0 -0.43308716157E+01  0.17451831509E+02  0.43040338126E+01  0.18489120566E+02  0.51100000000E-03 0.  1.
         11    1    1    0    0    0 -0.10322108915E+02  0.41529118585E+02  0.10283197382E+02  0.44010882422E+02  0.51100000000E-03 0. -1.
         22    1    1    0    0    0  0.14652980531E+02 -0.58980950095E+02 -0.14587231195E+02  0.62499997012E+02  0.00000000000E+00 0. -1.
</event>
<event>
 4    1  0.1964735E-002  0.9118800E+02  0.7818608E-02  0.1130116E+00
         25   -1    0    0    0    0  0.00000000000E+00  0.00000000000E+00  0.99999998245E-14  0.12500000000E+03  0.12500000000E+03 0.  0.
        -11    1    1    0    0    0 -0.13517060861E+02  0.20394825792E+02 -0.17173756398E+02  0.29893105601E+02  0.51100000000E-03 0. -1.
         11    1    1    0    0    0 -0.14736861551E+02  0.22247267119E+02 -0.18737491772E+02  0.32606894682E+02  0.51100000000E-03 0.  1.
         22    1    1    0    0    0  0.28253922412E+02 -0.42642092910E+02  0.35911248171E+02  0.62499999717E+02  0.00000000000E+00 0.  1.
</event>
<event>
 4    1  0.1964735E-002  0.9118800E+02  0.7818608E-02  0.1130116E+00
         25   -1    0    0    0    0  0.00000000000E+00  0.00000000000E+00  0.99999998245E-14  0.12500000000E+03  0.12500000000E+03 0.  0.
        -11    1    1    0    0    0 -0.26215973636E+01  0.42316246984E+01  0.17069923810E+01  0.52624370376E+01  0.51100000000E-03 0. -1.
         11    1    1    0    0    0 -0.28638563852E+02  0.45998963479E+02  0.18440932150E+02  0.57237574716E+02  0.51100000000E-03 0.  1.
         22    1    1    0    0    0  0.31260161215E+02 -0.50230588177E+02 -0.20147924531E+02  0.62499988246E+02  0.00000000000E+00 0.  1.
</event>
<event>
 4    1  0.1964735E-002  0.9118800E+02  0.7818608E-02  0.1130116E+00
         25   -1    0    0    0    0  0.00000000000E+00  0.00000000000E+00  0.99999998245E-14  0.12500000000E+03  0.12500000000E+03 0.  0.
        -11    1    1    0    0    0  0.36507922935E+02  0.27177875099E+02 -0.35315863956E+02  0.57607947187E+02  0.51100000000E-03 0. -1.
         11    1    1    0    0    0 -0.39226702587E+01 -0.19181347737E+02  0.13128450515E+01  0.19622308870E+02  0.51100000000E-03 0.  1.
         22    1    1    0    0    0 -0.32585252676E+02 -0.79965273611E+01  0.34003018904E+02  0.47769743943E+02  0.00000000000E+00 0. -1.
</event>
<event>
 4    1  0.1964735E-002  0.9118800E+02  0.7818608E-02  0.1130116E+00
         25   -1    0    0    0    0  0.00000000000E+00  0.00000000000E+00  0.99999998245E-14  0.12500000000E+03  0.12500000000E+03 0.  0.
        -11    1    1    0    0    0 -0.28469715196E+02 -0.85428658294E+01  0.49030899994E+02  0.57337024639E+02  0.51100000000E-03 0.  1.
         11    1    1    0    0    0 -0.12906250638E+01 -0.17688676188E+01  0.48107491142E+01  0.52856326972E+01  0.51100000000E-03 0. -1.
         22    1    1    0    0    0  0.29760340260E+02  0.10311733448E+02 -0.53841649109E+02  0.62377342664E+02  0.00000000000E+00 0.  1.
</event>
<event>
 4    1  0.1964735E-002  0.9118800E+02  0.7818608E-02  0.1130116E+00
         25   -1    0    0    0    0  0.00000000000E+00  0.00000000000E+00  0.99999998245E-14  0.12500000000E+03  0.12500000000E+03 0.  0.
        -11    1    1    0    0    0  0.16899816803E+02  0.28211008118E+02  0.25619374939E+02  0.41687134221E+02  0.51100000000E-03 0.  1.
         11    1    1    0    0    0  0.83838382018E+01  0.14077035396E+02  0.12834536588E+02  0.20812904608E+02  0.51100000000E-03 0. -1.
         22    1    1    0    0    0 -0.25283655005E+02 -0.42288043514E+02 -0.38453911527E+02  0.62499961171E+02  0.00000000000E+00 0. -1.
</event>
<event>
 4    1  0.1964735E-002  0.9118800E+02  0.7818608E-02  0.1130116E+00
         25   -1    0    0    0    0  0.00000000000E+00  0.00000000000E+00  0.99999998245E-14  0.12500000000E+03  0.12500000000E+03 0.  0.
        -11    1    1    0    0    0  0.28513208234E+02 -0.31125626381E+02  0.82831853673E+01  0.43016494760E+02  0.51100000000E-03 0. -1.
         11    1    1    0    0    0  0.12998900275E+02 -0.14057812042E+02  0.36088108390E+01  0.19483762566E+02  0.51100000000E-03 0.  1.
         22    1    1    0    0    0 -0.41512108509E+02  0.45183438423E+02 -0.11891996206E+02  0.62499742674E+02  0.00000000000E+00 0. -1.
</event>
<event>
 4    1  0.1964735E-002  0.9118800E+02  0.7818608E-02  0.1130116E+00
         25   -1    0    0    0    0  0.00000000000E+00  0.00000000000E+00  0.99999998245E-14  0.12500000000E+03  0.12500000000E+03 0.  0.
        -11    1    1    0    0    0  0.22099135275E+02 -0.48910460058E+02  0.31290619583E+01  0.53762402402E+02  0.51100000000E-03 0. -1.
         11    1    1    0    0    0  0.36434062178E+01 -0.79272455840E+01  0.48130842881E+00  0.87376936020E+01  0.51100000000E-03 0.  1.
         22    1    1    0    0    0 -0.25742541492E+02  0.56837705643E+02 -0.36103703871E+01  0.62499903996E+02  0.00000000000E+00 0. -1.
</event>
<event>
 4    1  0.1964735E-002  0.9118800E+02  0.7818608E-02  0.1130116E+00
         25   -1    0    0    0    0  0.00000000000E+00  0.00000000000E+00  0.99999998245E-14  0.12500000000E+03  0.12500000000E+03 0.  0.
        -11    1    1    0    0    0 -0.30379177424E+02 -0.31217377674E+02  0.13243836124E+02  0.45528214168E+02  0.51100000000E-03 0. -1.
         11    1    1    0    0    0 -0.11304240130E+02 -0.11671355678E+02  0.49026660113E+01  0.16971815535E+02  0.51100000000E-03 0.  1.
         22    1    1    0    0    0  0.41683417554E+02  0.42888733351E+02 -0.18146502135E+02  0.62499970297E+02  0.00000000000E+00 0. -1.
</event>
<event>
 4    1  0.1964735E-002  0.9118800E+02  0.7818608E-02  0.1130116E+00
         25   -1    0    0    0    0  0.00000000000E+00  0.00000000000E+00  0.99999998245E-14  0.12500000000E+03  0.12500000000E+03 0.  0.
        -11    1    1    0    0    0 -0.16063056778E+02  0.30027595512E+02 -0.13913104380E+02  0.36786583955E+02  0.51100000000E-03 0.  1.
         11    1    1    0    0    0 -0.11225964226E+02  0.20990579250E+02 -0.97238406481E+01  0.25713416095E+02  0.51100000000E-03 0. -1.
         22    1    1    0    0    0  0.27289021004E+02 -0.51018174762E+02  0.23636945029E+02  0.62499999950E+02  0.00000000000E+00 0. -1.
</event>
<event>
 4    1  0.1964735E-002  0.9118800E+02  0.7818608E-02  0.1130116E+00
         25   -1    0    0    0    0  0.00000000000E+00  0.00000000000E+00  0.99999998245E-14  0.12500000000E+03  0.12500000000E+03 0.  0.
        -11    1    1    0    0    0  0.21620136696E+02  0.73818783586E+01  0.91630184301E+01  0.24614697761E+02  0.51100000000E-03 0. -1.
         11    1    1    0    0    0  0.32821608885E+02  0.12235494479E+02  0.14441064590E+02  0.37888120588E+02  0.51100000000E-03 0.  1.
         22    1    1    0    0    0 -0.54441745582E+02 -0.19617372838E+02 -0.23604083020E+02  0.62497181650E+02  0.00000000000E+00 0.  1.
</event>
<event>
 4    1  0.1964735E-002  0.9118800E+02  0.7818608E-02  0.1130116E+00
         25   -1    0    0    0    0  0.00000000000E+00  0.00000000000E+00  0.99999998245E-14  0.12500000000E+03  0.12500000000E+03 0.  0.
        -11    1    1    0    0    0 -0.23510394845E+02  0.43022939946E+02 -0.71651140862E+01  0.49548470082E+02  0.51100000000E-03 0. -1.
         11    1    1    0    0    0 -0.60246163378E+01  0.11351514215E+02 -0.16201206879E+01  0.12952901925E+02  0.51100000000E-03 0.  1.
         22    1    1    0    0    0  0.29535011183E+02 -0.54374454161E+02  0.87852347741E+01  0.62498627992E+02  0.00000000000E+00 0. -1.
</event>
<event>
 4    1  0.1964735E-002  0.9118800E+02  0.7818608E-02  0.1130116E+00
         25   -1    0    0    0    0  0.00000000000E+00  0.00000000000E+00  0.99999998245E-14  0.12500000000E+03  0.12500000000E+03 0.  0.
        -11    1    1    0    0    0 -0.21088465920E+00  0.86667103281E+00  0.12850711242E+01  0.15642886799E+01  0.51100000000E-03 0. -1.
         11    1    1    0    0    0 -0.81664770330E+01  0.33789971972E+02  0.50047051941E+02  0.60935711707E+02  0.51100000000E-03 0.  1.
         22    1    1    0    0    0  0.83773616922E+01 -0.34656643005E+02 -0.51332123065E+02  0.62499999613E+02  0.00000000000E+00 0.  1.
</event>
<event>
 4    1  0.1964735E-002  0.9118800E+02  0.7818608E-02  0.1130116E+00
         25   -1    0    0    0    0  0.00000000000E+00  0.00000000000E+00  0.99999998245E-14  0.12500000000E+03  0.12500000000E+03 0.  0.
        -11    1    1    0    0    0  0.37845612405E+01 -0.23546531651E+01 -0.49956361015E+01  0.66950485906E+01  0.51100000000E-03 0.  1.
         11    1    1    0    0    0  0.28349897896E+02 -0.22217697384E+02 -0.42635776828E+02  0.55813549016E+02  0.51100000000E-03 0. -1.
         22    1    1    0    0    0 -0.32134459136E+02  0.24572350549E+02  0.47631412930E+02  0.62491402394E+02  0.00000000000E+00 0. -1.
</event>
<event>
 4    1  0.1964735E-002  0.9118800E+02  0.7818608E-02  0.1130116E+00
         25   -1    0    0    0    0  0.00000000000E+00  0.00000000000E+00  0.99999998245E-14  0.12500000000E+03  0.12500000000E+03 0.  0.
        -11    1    1    0    0    0  0.67280507010E+01  0.33096650899E+01 -0.23803365087E+02  0.24956376720E+02  0.51100000000E-03 0.  1.
         11    1    1    0    0    0  0.10084198705E+02  0.48555352744E+01 -0.35836571162E+02  0.37543669497E+02  0.51100000000E-03 0. -1.
         22    1    1    0    0    0 -0.16812249406E+02 -0.81652003643E+01  0.59639936250E+02  0.62499953784E+02  0.00000000000E+00 0. -1.
</event>
<event>
 4    1  0.1964735E-002  0.9118800E+02  0.7818608E-02  0.1130116E+00
         25   -1    0    0    0    0  0.00000000000E+00  0.00000000000E+00  0.99999998245E-14  0.12500000000E+03  0.12500000000E+03 0.  0.
        -11    1    1    0    0    0 -0.97412591429E+01 -0.53523656437E+01  0.57747215773E+01  0.12525468344E+02  0.51100000000E-03 0.  1.
         11    1    1    0    0    0 -0.38864479457E+02 -0.21352934371E+02  0.23044701077E+02  0.49974531690E+02  0.51100000000E-03 0.  1.
         22    1    1    0    0    0  0.48605738599E+02  0.26705300014E+02 -0.28819422654E+02  0.62499999966E+02  0.00000000000E+00 0.  1.
</event>
<event>
 4    1  0.1964735E-002  0.9118800E+02  0.7818608E-02  0.1130116E+00
         25   -1    0    0    0    0  0.00000000000E+00  0.00000000000E+00  0.99999998245E-14  0.12500000000E+03  0.12500000000E+03 0.  0.
        -11    1    1    0    0    0 -0.96864948747E+01  0.45447584110E+02  0.10142219849E+02  0.47562334973E+02  0.51100000000E-03 0. -1.
         11    1    1    0    0    0  0.30224197060E+00  0.13419259205E+02  0.73640898120E+01  0.15310051824E+02  0.51100000000E-03 0.  1.
         22    1    1    0    0    0  0.93842529041E+01 -0.58866843315E+02 -0.17506309661E+02  0.62127613203E+02  0.00000000000E+00 0. -1.
</event>
<event>
 4    1  0.1964735E-002  0.9118800E+02  0.7818608E-02  0.1130116E+00
         25   -1    0    0    0    0  0.00000000000E+00  0.00000000000E+00  0.99999998245E-14  0.12500000000E+03  0.12500000000E+03 0.  0.
        -11    1    1    0    0    0 -0.49023454770E+00 -0.27273541990E+00  0.26728094442E+00  0.62141281399E+00  0.51100000000E-03 0.  1.
         11    1    1    0    0    0 -0.49004151588E+02 -0.27032877456E+02  0.26396528557E+02  0.61878591261E+02  0.51100000000E-03 0. -1.
         22    1    1    0    0    0  0.49494386135E+02  0.27305612876E+02 -0.26663809502E+02  0.62499995925E+02  0.00000000000E+00 0. -1.
</event>
<event>
 4    1  0.1964735E-002  0.9118800E+02  0.7818608E-02  0.1130116E+00
         25   -1    0    0    0    0  0.00000000000E+00  0.00000000000E+00  0.99999998245E-14  0.12500000000E+03  0.12500000000E+03 0.  0.
        -11    1    1    0    0    0  0.13239495290E+02 -0.18027958510E+02 -0.16433735599E+02  0.27755345243E+02  0.51100000000E-03 0. -1.
         11    1    1    0    0    0  0.16572536437E+02 -0.22567549007E+02 -0.20572987203E+02  0.34744654767E+02  0.51100000000E-03 0.  1.
         22    1    1    0    0    0 -0.29812031728E+02  0.40595507517E+02  0.37006722801E+02  0.62499999990E+02  0.00000000000E+00 0.  1.
</event>
<event>
 4    1  0.1964735E-002  0.9118800E+02  0.7818608E-02  0.1130116E+00
         25   -1    0    0    0    0  0.00000000000E+00  0.00000000000E+00  0.99999998245E-14  0.12500000000E+03  0.12500000000E+03 0.  0.
        -11    1    1    0    0    0  0.22376606820E+02  0.12925394650E+02  0.16370685219E+02  0.30590483724E+02  0.51100000000E-03 0.  1.
         11    1    1    0    0    0  0.23344205681E+02  0.13481409591E+02  0.17073865690E+02  0.31909516344E+02  0.51100000000E-03 0. -1.
         22    1    1    0    0    0 -0.45720812501E+02 -0.26406804241E+02 -0.33444550910E+02  0.62499999932E+02  0.00000000000E+00 0.  1.
</event>
<event>
 4    1  0.1964735E-002  0.9118800E+02  0.7818608E-02  0.1130116E+00
         25   -1    0    0    0    0  0.00000000000E+00  0.00000000000E+00  0.99999998245E-14  0.12500000000E+03  0.12500000000E+03 0.  0.
        -11    1    1    0    0    0 -0.37289571066E+01 -0.24849717661E+02 -0.15248420053E+02  0.29392650498E+02  0.51100000000E-03 0. -1.
         11    1    1    0    0    0 -0.40333017192E+01 -0.28030166689E+02 -0.17150682071E+02  0.33107456307E+02  0.51100000000E-03 0.  1.
         22    1    1    0    0    0  0.77622588257E+01  0.52879884350E+02  0.32399102123E+02  0.62499893195E+02  0.00000000000E+00 0.  1.
</event>
<event>
 4    1  0.1964735E-002  0.9118800E+02  0.7818608E-02  0.1130116E+00
         25   -1    0    0    0    0  0.00000000000E+00  0.00000000000E+00  0.99999998245E-14  0.12500000000E+03  0.12500000000E+03 0.  0.
        -11    1    1    0    0    0  0.19050381814E+02 -0.51178854813E+02 -0.16064887356E+02  0.56923394429E+02  0.51100000000E-03 0.  1.
         11    1    1    0    0    0  0.18291876087E+01 -0.50215177233E+01 -0.15930425325E+01  0.55766793278E+01  0.51100000000E-03 0. -1.
         22    1    1    0    0    0 -0.20879569423E+02  0.56200372536E+02  0.17657929889E+02  0.62499926244E+02  0.00000000000E+00 0.  1.
</event>
<event>
 4    1  0.1964735E-002  0.9118800E+02  0.7818608E-02  0.1130116E+00
         25   -1    0    0    0    0  0.00000000000E+00  0.00000000000E+00  0.99999998245E-14  0.12500000000E+03  0.12500000000E+03 0.  0.
        -11    1    1    0    0    0 -0.12582554486E+02 -0.20856565990E+01  0.69175460909E+01  0.14509413669E+02  0.51100000000E-03 0. -1.
         11    1    1    0    0    0 -0.40772210717E+02 -0.99481249010E+01  0.23301099429E+02  0.48002912314E+02  0.51100000000E-03 0.  1.
         22    1    1    0    0    0  0.53354765203E+02  0.12033781500E+02 -0.30218645520E+02  0.62487674017E+02  0.00000000000E+00 0.  1.
</event>
<event>
 4    1  0.1964735E-002  0.9118800E+02  0.7818608E-02  0.1130116E+00
         25   -1    0    0    0    0  0.00000000000E+00  0.00000000000E+00  0.99999998245E-14  0.12500000000E+03  0.12500000000E+03 0.  0.
        -11    1    1    0    0    0  0.39677383012E+01  0.43911580285E+02 -0.33034637370E+02  0.55093167424E+02  0.51100000000E-03 0.  1.
         11    1    1    0    0    0  0.52936272357E+00  0.59163783340E+01 -0.44246595484E+01  0.74068461483E+01  0.51100000000E-03 0. -1.
         22    1    1    0    0    0 -0.44971010247E+01 -0.49827958619E+02  0.37459296919E+02  0.62499986428E+02  0.00000000000E+00 0.  1.
</event>
<event>
 4    1  0.1964735E-002  0.9118800E+02  0.7818608E-02  0.1130116E+00
         25   -1    0    0    0    0  0.00000000000E+00  0.00000000000E+00  0.99999998245E-14  0.12500000000E+03  0.12500000000E+03 0.  0.
        -11    1    1    0    0    0  0.10826992768E+02  0.67443044829E+01 -0.27703030010E+01  0.13053122015E+02  0.51100000000E-03 0.  1.
         11    1    1    0    0    0  0.40988862591E+02  0.25603988928E+02 -0.10456728675E+02  0.49446883424E+02  0.51100000000E-03 0. -1.
         22    1    1    0    0    0 -0.51815855359E+02 -0.32348293411E+02  0.13227031676E+02  0.62499994561E+02  0.00000000000E+00 0. -1.
</event>
<event>
 4    1  0.1964735E-002  0.9118800E+02  0.7818608E-02  0.1130116E+00
         25   -1    0    0    0    0  0.00000000000E+00  0.00000000000E+00  0.99999998245E-14  0.12500000000E+03  0.12500000000E+03 0.  0.
        -11    1    1    0    0    0 -0.25146696154E+02 -0.10201591094E+01  0.85165946479E+01  0.26569332636E+02  0.51100000000E-03 0. -1.
         11    1    1    0    0    0 -0.33988265954E+02 -0.10881870878E+01  0.11603714667E+02  0.35930941652E+02  0.51100000000E-03 0.  1.
         22    1    1    0    0    0  0.59134962107E+02  0.21083461973E+01 -0.20120309315E+02  0.62499725712E+02  0.00000000000E+00 0. -1.
</event>
<event>
 4    1  0.1964735E-002  0.9118800E+02  0.7818608E-02  0.1130116E+00
         25   -1    0    0    0    0  0.00000000000E+00  0.00000000000E+00  0.99999998245E-14  0.12500000000E+03  0.12500000000E+03 0.  0.
        -11    1    1    0    0    0 -0.12949418793E+01 -0.94855057911E+01 -0.12985773238E+02  0.16133257620E+02  0.51100000000E-03 0.  1.
         11    1    1    0    0    0  0.29081967511E+02 -0.29350702183E+02 -0.24607900609E+02  0.48091301974E+02  0.51100000000E-03 0. -1.
         22    1    1    0    0    0 -0.27787025632E+02  0.38836207974E+02  0.37593673846E+02  0.60775440406E+02  0.00000000000E+00 0. -1.
</event>
<event>
 4    1  0.1964735E-002  0.9118800E+02  0.7818608E-02  0.1130116E+00
         25   -1    0    0    0    0  0.00000000000E+00  0.00000000000E+00  0.99999998245E-14  0.12500000000E+03  0.12500000000E+03 0.  0.
        -11    1    1    0    0    0 -0.21606626421E+02  0.19247438069E+02  0.22509821394E+02  0.36660636069E+02  0.51100000000E-03 0. -1.
         11    1    1    0    0    0 -0.15227901591E+02  0.13566939327E+02  0.15865746100E+02  0.25839363946E+02  0.51100000000E-03 0. -1.
         22    1    1    0    0    0  0.36834528011E+02 -0.32814377396E+02 -0.38375567494E+02  0.62499999986E+02  0.00000000000E+00 0. -1.
</event>
<event>
 4    1  0.1964735E-002  0.9118800E+02  0.7818608E-02  0.1130116E+00
         25   -1    0    0    0    0  0.00000000000E+00  0.00000000000E+00  0.99999998245E-14  0.12500000000E+03  0.12500000000E+03 0.  0.
        -11    1    1    0    0    0  0.55808018267E+02 -0.40044440361E+01  0.26041119540E+02  0.61714750118E+02  0.51100000000E-03 0.  1.
         11    1    1    0    0    0  0.71138530992E+00 -0.59381667287E-01  0.32720994935E+00  0.78527820144E+00  0.51100000000E-03 0. -1.
         22    1    1    0    0    0 -0.56519403577E+02  0.40638257034E+01 -0.26368329490E+02  0.62499971681E+02  0.00000000000E+00 0.  1.
</event>
<event>
 4    1  0.1964735E-002  0.9118800E+02  0.7818608E-02  0.1130116E+00
         25   -1    0    0    0    0  0.00000000000E+00  0.00000000000E+00  0.99999998245E-14  0.12500000000E+03  0.12500000000E+03 0.  0.
        -11    1    1    0    0    0  0.24196708497E+02 -0.93009168321E+01 -0.16892254861E+02  0.30940847283E+02  0.51100000000E-03 0.  1.
         11    1    1    0    0    0  0.24381640557E+02 -0.94059262331E+01 -0.17695241841E+02  0.31560377511E+02  0.51100000000E-03 0. -1.
         22    1    1    0    0    0 -0.48578349054E+02  0.18706843065E+02  0.34587496702E+02  0.62498775207E+02  0.00000000000E+00 0.  1.
</event>
<event>
 4    1  0.1964735E-002  0.9118800E+02  0.7818608E-02  0.1130116E+00
         25   -1    0    0    0    0  0.00000000000E+00  0.00000000000E+00  0.99999998245E-14  0.12500000000E+03  0.12500000000E+03 0.  0.
        -11    1    1    0    0    0  0.24297237354E+01  0.16624905063E+02 -0.21930356002E+02  0.27626645479E+02  0.51100000000E-03 0. -1.
         11    1    1    0    0    0  0.32241944978E+01  0.20906272394E+02 -0.27725267368E+02  0.34873458481E+02  0.51100000000E-03 0.  1.
         22    1    1    0    0    0 -0.56539182332E+01 -0.37531177457E+02  0.49655623370E+02  0.62499896040E+02  0.00000000000E+00 0.  1.
</event>
<event>
 4    1  0.1964735E-002  0.9118800E+02  0.7818608E-02  0.1130116E+00
         25   -1    0    0    0    0  0.00000000000E+00  0.00000000000E+00  0.99999998245E-14  0.12500000000E+03  0.12500000000E+03 0.  0.
        -11    1    1    0    0    0 -0.90207528075E+00  0.84053409837E+00 -0.50512325858E+01  0.51995373140E+01  0.51100000000E-03 0.  1.
         11    1    1    0    0    0  0.41821439016E+02 -0.46587696717E+01 -0.40532219865E+02  0.58426002291E+02  0.51100000000E-03 0. -1.
         22    1    1    0    0    0 -0.40919363735E+02  0.38182355733E+01  0.45583452451E+02  0.61374460395E+02  0.00000000000E+00 0. -1.
</event>
<event>
 4    1  0.1964735E-002  0.9118800E+02  0.7818608E-02  0.1130116E+00
         25   -1    0    0    0    0  0.00000000000E+00  0.00000000000E+00  0.99999998245E-14  0.12500000000E+03  0.12500000000E+03 0.  0.
        -11    1    1    0    0    0 -0.92430794402E+01 -0.12732923389E+02  0.93204586662E-01  0.15734374564E+02  0.51100000000E-03 0.  1.
         11    1    1    0    0    0 -0.27570849873E+02 -0.37770871605E+02  0.49079673843E+00  0.46765707374E+02  0.51100000000E-03 0. -1.
         22    1    1    0    0    0  0.36813929313E+02  0.50503794993E+02 -0.58400132509E+00  0.62499918062E+02  0.00000000000E+00 0. -1.
</event>
<event>
 4    1  0.1964735E-002  0.9118800E+02  0.7818608E-02  0.1130116E+00
         25   -1    0    0    0    0  0.00000000000E+00  0.00000000000E+00  0.99999998245E-14  0.12500000000E+03  0.12500000000E+03 0.  0.
        -11    1    1    0    0    0 -0.19468224860E+01  0.66765406243E+00  0.34046780089E+00  0.20860964320E+01  0.51100000000E-03 0. -1.
         11    1    1    0    0    0 -0.53083178227E+02  0.28860165211E+02 -0.17468918755E+01  0.60446543145E+02  0.51100000000E-03 0.  1.
         22    1    1    0    0    0  0.55030000713E+02 -0.29527819274E+02  0.14064240746E+01  0.62467360423E+02  0.00000000000E+00 0.  1.
</event>
<event>
 4    1  0.1964735E-002  0.9118800E+02  0.7818608E-02  0.1130116E+00
         25   -1    0    0    0    0  0.00000000000E+00  0.00000000000E+00  0.99999998245E-14  0.12500000000E+03  0.12500000000E+03 0.  0.
        -11    1    1    0    0    0  0.11043280148E+02 -0.38920152391E+02  0.15667528964E+02  0.43384372332E+02  0.51100000000E-03 0.  1.
         11    1    1    0    0    0  0.48668598419E+01 -0.17147607960E+02  0.69051024250E+01  0.19115627723E+02  0.51100000000E-03 0. -1.
         22    1    1    0    0    0 -0.15910139990E+02  0.56067760351E+02 -0.22572631389E+02  0.62499999945E+02  0.00000000000E+00 0.  1.
</event>
<event>
 4    1  0.1964735E-002  0.9118800E+02  0.7818608E-02  0.1130116E+00
         25   -1    0    0    0    0  0.00000000000E+00  0.00000000000E+00  0.99999998245E-14  0.12500000000E+03  0.12500000000E+03 0.  0.
        -11    1    1    0    0    0  0.95220030961E+01 -0.56785019529E+01 -0.36157826260E+01  0.11661381207E+02  0.51100000000E-03 0.  1.
         11    1    1    0    0    0  0.41086818649E+02 -0.87320058738E+01 -0.29351937638E+02  0.51243641914E+02  0.51100000000E-03 0. -1.
         22    1    1    0    0    0 -0.50608821745E+02  0.14410507827E+02  0.32967720264E+02  0.62094976879E+02  0.00000000000E+00 0. -1.
</event>
<event>
 4    1  0.1964735E-002  0.9118800E+02  0.7818608E-02  0.1130116E+00
         25   -1    0    0    0    0  0.00000000000E+00  0.00000000000E+00  0.99999998245E-14  0.12500000000E+03  0.12500000000E+03 0.  0.
        -11    1    1    0    0    0 -0.14057234071E+02  0.70731552349E+01  0.10156062335E+02  0.18729147261E+02  0.51100000000E-03 0.  1.
         11    1    1    0    0    0 -0.32850531432E+02  0.16534128711E+02  0.23735052661E+02  0.43770852775E+02  0.51100000000E-03 0. -1.
         22    1    1    0    0    0  0.46907765503E+02 -0.23607283946E+02 -0.33891114996E+02  0.62499999964E+02  0.00000000000E+00 0. -1.
</event>
<event>
 4    1  0.1964735E-002  0.9118800E+02  0.7818608E-02  0.1130116E+00
         25   -1    0    0    0    0  0.00000000000E+00  0.00000000000E+00  0.99999998245E-14  0.12500000000E+03  0.12500000000E+03 0.  0.
        -11    1    1    0    0    0 -0.10121196023E+01  0.11189939224E+01 -0.13528763351E+02  0.13612640140E+02  0.51100000000E-03 0. -1.
         11    1    1    0    0    0 -0.28502325141E+02  0.53327112720E+00 -0.40661323960E+02  0.49658938601E+02  0.51100000000E-03 0.  1.
         22    1    1    0    0    0  0.29514444743E+02 -0.16522650496E+01  0.54190087312E+02  0.61728421259E+02  0.00000000000E+00 0.  1.
</event>
<event>
 4    1  0.1964735E-002  0.9118800E+02  0.7818608E-02  0.1130116E+00
         25   -1    0    0    0    0  0.00000000000E+00  0.00000000000E+00  0.99999998245E-14  0.12500000000E+03  0.12500000000E+03 0.  0.
        -11    1    1    0    0    0 -0.28339365822E+02 -0.40139770877E+02  0.14463848003E+02  0.51220345182E+02  0.51100000000E-03 0. -1.
         11    1    1    0    0    0 -0.71373154090E+01 -0.89786754191E+01  0.71120635388E-01  0.11470089012E+02  0.51100000000E-03 0.  1.
         22    1    1    0    0    0  0.35476681231E+02  0.49118446296E+02 -0.14534968639E+02  0.62309565807E+02  0.00000000000E+00 0. -1.
</event>
<event>
 4    1  0.1964735E-002  0.9118800E+02  0.7818608E-02  0.1130116E+00
         25   -1    0    0    0    0  0.00000000000E+00  0.00000000000E+00  0.99999998245E-14  0.12500000000E+03  0.12500000000E+03 0.  0.
        -11    1    1    0    0    0  0.19069942341E+01  0.16616459475E+00 -0.84661154698E+00  0.20930812344E+01  0.51100000000E-03 0. -1.
         11    1    1    0    0    0  0.55034270661E+02  0.48752474992E+01 -0.24422468373E+02  0.60406919695E+02  0.51100000000E-03 0.  1.
         22    1    1    0    0    0 -0.56941264895E+02 -0.50414120939E+01  0.25269079920E+02  0.62499999070E+02  0.00000000000E+00 0.  1.
</event>
<event>
 4    1  0.1964735E-002  0.9118800E+02  0.7818608E-02  0.1130116E+00
         25   -1    0    0    0    0  0.00000000000E+00  0.00000000000E+00  0.99999998245E-14  0.12500000000E+03  0.12500000000E+03 0.  0.
        -11    1    1    0    0    0 -0.22919898587E+01 -0.68854119790E+01  0.27436531556E+01  0.77582052391E+01  0.51100000000E-03 0. -1.
         11    1    1    0    0    0 -0.16174984903E+02 -0.48581783673E+02  0.19360894963E+02  0.54741794778E+02  0.51100000000E-03 0. -1.
         22    1    1    0    0    0  0.18466974762E+02  0.55467195652E+02 -0.22104548119E+02  0.62499999983E+02  0.00000000000E+00 0. -1.
</event>
<event>
 4    1  0.1964735E-002  0.9118800E+02  0.7818608E-02  0.1130116E+00
         25   -1    0    0    0    0  0.00000000000E+00  0.00000000000E+00  0.99999998245E-14  0.12500000000E+03  0.12500000000E+03 0.  0.
        -11    1    1    0    0    0 -0.25730632718E+02 -0.36210601374E+02  0.27648974341E+02  0.52323406754E+02  0.51100000000E-03 0.  1.
         11    1    1    0    0    0 -0.45224150385E+01 -0.72069375445E+01  0.55945640120E+01  0.10182894151E+02  0.51100000000E-03 0. -1.
         22    1    1    0    0    0  0.30253047756E+02  0.43417538919E+02 -0.33243538353E+02  0.62493699095E+02  0.00000000000E+00 0.  1.
</event>
<event>
 4    1  0.1964735E-002  0.9118800E+02  0.7818608E-02  0.1130116E+00
         25   -1    0    0    0    0  0.00000000000E+00  0.00000000000E+00  0.99999998245E-14  0.12500000000E+03  0.12500000000E+03 0.  0.
        -11    1    1    0    0    0  0.19914696290E+02 -0.22464390016E+01 -0.30548378668E+02  0.36535531418E+02  0.51100000000E-03 0.  1.
         11    1    1    0    0    0  0.14131692816E+02 -0.16156350271E+01 -0.21721852818E+02  0.25964473969E+02  0.51100000000E-03 0. -1.
         22    1    1    0    0    0 -0.34046389107E+02  0.38620740287E+01  0.52270231486E+02  0.62499994613E+02  0.00000000000E+00 0.  1.
</event>
<event>
 4    1  0.1964735E-002  0.9118800E+02  0.7818608E-02  0.1130116E+00
         25   -1    0    0    0    0  0.00000000000E+00  0.00000000000E+00  0.99999998245E-14  0.12500000000E+03  0.12500000000E+03 0.  0.
        -11    1    1    0    0    0  0.81285651607E+01  0.12233957644E+02  0.67569749822E+00  0.14703736212E+02  0.51100000000E-03 0. -1.
         11    1    1    0    0    0  0.24307837265E+02  0.41162034998E+02  0.59584629826E+00  0.47807312315E+02  0.51100000000E-03 0.  1.
         22    1    1    0    0    0 -0.32436402426E+02 -0.53395992642E+02 -0.12715437965E+01  0.62488951473E+02  0.00000000000E+00 0.  1.
</event>
<event>
 4    1  0.1964735E-002  0.9118800E+02  0.7818608E-02  0.1130116E+00
         25   -1    0    0    0    0  0.00000000000E+00  0.00000000000E+00  0.99999998245E-14  0.12500000000E+03  0.12500000000E+03 0.  0.
        -11    1    1    0    0    0  0.20695180057E+02  0.38146762318E+02  0.26742776991E+02  0.50976877840E+02  0.51100000000E-03 0. -1.
         11    1    1    0    0    0  0.40399049657E+01  0.84985046175E+01  0.66762180895E+01  0.11537647122E+02  0.51100000000E-03 0.  1.
         22    1    1    0    0    0 -0.24735085023E+02 -0.46645266935E+02 -0.33418995080E+02  0.62485475038E+02  0.00000000000E+00 0. -1.
</event>
<event>
 4    1  0.1964735E-002  0.9118800E+02  0.7818608E-02  0.1130116E+00
         25   -1    0    0    0    0  0.00000000000E+00  0.00000000000E+00  0.99999998245E-14  0.12500000000E+03  0.12500000000E+03 0.  0.
        -11    1    1    0    0    0 -0.77899914878E+00 -0.60137620981E+00 -0.52529718015E+01  0.53443620787E+01  0.51100000000E-03 0.  1.
         11    1    1    0    0    0  0.18176521351E+02  0.10522056798E+02 -0.53557674536E+02  0.57528463474E+02  0.51100000000E-03 0. -1.
         22    1    1    0    0    0 -0.17397522202E+02 -0.99206805883E+01  0.58810646338E+02  0.62127174447E+02  0.00000000000E+00 0. -1.
</event>
<event>
 4    1  0.1964735E-002  0.9118800E+02  0.7818608E-02  0.1130116E+00
         25   -1    0    0    0    0  0.00000000000E+00  0.00000000000E+00  0.99999998245E-14  0.12500000000E+03  0.12500000000E+03 0.  0.
        -11    1    1    0    0    0 -0.11119705940E+02 -0.61294052564E+01  0.22541177189E+01  0.12895678189E+02  0.51100000000E-03 0. -1.
         11    1    1    0    0    0 -0.46146407302E+02 -0.14973324436E+02  0.10778440235E+02  0.49697747693E+02  0.51100000000E-03 0.  1.
         22    1    1    0    0    0  0.57266113243E+02  0.21102729692E+02 -0.13032557954E+02  0.62406574118E+02  0.00000000000E+00 0.  1.
</event>
<event>
 4    1  0.1964735E-002  0.9118800E+02  0.7818608E-02  0.1130116E+00
         25   -1    0    0    0    0  0.00000000000E+00  0.00000000000E+00  0.99999998245E-14  0.12500000000E+03  0.12500000000E+03 0.  0.
        -11    1    1    0    0    0 -0.78459562371E+01  0.65631211735E+01 -0.13789016611E+01  0.10321577344E+02  0.51100000000E-03 0.  1.
         11    1    1    0    0    0 -0.38632826861E+02  0.34493210554E+02 -0.63695536399E+01  0.52180917004E+02  0.51100000000E-03 0. -1.
         22    1    1    0    0    0  0.46478783098E+02 -0.41056331727E+02  0.77484553010E+01  0.62497505652E+02  0.00000000000E+00 0. -1.
</event>
<event>
 4    1  0.1964735E-002  0.9118800E+02  0.7818608E-02  0.1130116E+00
         25   -1    0    0    0    0  0.00000000000E+00  0.00000000000E+00  0.99999998245E-14  0.12500000000E+03  0.12500000000E+03 0.  0.
        -11    1    1    0    0    0  0.43893736065E+02  0.31445381529E+02 -0.25300578945E+02  0.59628779800E+02  0.51100000000E-03 0.  1.
         11    1    1    0    0    0  0.21136546205E+01  0.15132245857E+01 -0.12192299482E+01  0.28712203727E+01  0.51100000000E-03 0.  1.
         22    1    1    0    0    0 -0.46007390686E+02 -0.32958606114E+02  0.26519808893E+02  0.62499999827E+02  0.00000000000E+00 0.  1.
</event>
<event>
 4    1  0.1964735E-002  0.9118800E+02  0.7818608E-02  0.1130116E+00
         25   -1    0    0    0    0  0.00000000000E+00  0.00000000000E+00  0.99999998245E-14  0.12500000000E+03  0.12500000000E+03 0.  0.
        -11    1    1    0    0    0 -0.85400127245E+01 -0.38714671950E+01 -0.20174094519E+01  0.95911426188E+01  0.51100000000E-03 0. -1.
         11    1    1    0    0    0 -0.46974818398E+02 -0.21631854868E+02 -0.11170668536E+02  0.52908926887E+02  0.51100000000E-03 0.  1.
         22    1    1    0    0    0  0.55514831122E+02  0.25503322063E+02  0.13188077988E+02  0.62499930494E+02  0.00000000000E+00 0.  1.
</event>
<event>
 4    1  0.1964735E-002  0.9118800E+02  0.7818608E-02  0.1130116E+00
         25   -1    0    0    0    0  0.00000000000E+00  0.00000000000E+00  0.99999998245E-14  0.12500000000E+03  0.12500000000E+03 0.  0.
        -11    1    1    0    0    0  0.16109592016E+01  0.39451206328E+01  0.12803898021E+02  0.13494405180E+02  0.51100000000E-03 0.  1.
         11    1    1    0    0    0  0.13512627234E+02 -0.19514129236E+01  0.47437358498E+02  0.49362962722E+02  0.51100000000E-03 0. -1.
         22    1    1    0    0    0 -0.15123586436E+02 -0.19937077092E+01 -0.60241256519E+02  0.62142632098E+02  0.00000000000E+00 0. -1.
</event>
<event>
 4    1  0.1964735E-002  0.9118800E+02  0.7818608E-02  0.1130116E+00
         25   -1    0    0    0    0  0.00000000000E+00  0.00000000000E+00  0.99999998245E-14  0.12500000000E+03  0.12500000000E+03 0.  0.
        -11    1    1    0    0    0 -0.81912366645E+01  0.72076752587E+01  0.10563888827E+01  0.10961883892E+02  0.51100000000E-03 0.  1.
         11    1    1    0    0    0 -0.38513776833E+02  0.33885180798E+02  0.49659772129E+01  0.51538116124E+02  0.51100000000E-03 0.  1.
         22    1    1    0    0    0  0.46705013497E+02 -0.41092856057E+02 -0.60223660956E+01  0.62499999984E+02  0.00000000000E+00 0.  1.
</event>
<event>
 4    1  0.1964735E-002  0.9118800E+02  0.7818608E-02  0.1130116E+00
         25   -1    0    0    0    0  0.00000000000E+00  0.00000000000E+00  0.99999998245E-14  0.12500000000E+03  0.12500000000E+03 0.  0.
        -11    1    1    0    0    0  0.77883310336E+00 -0.66820957448E+01 -0.55325509690E+01  0.87101150986E+01  0.51100000000E-03 0. -1.
         11    1    1    0    0    0  0.31174728030E+01 -0.43837100601E+02 -0.31036827922E+02  0.53802367174E+02  0.51100000000E-03 0.  1.
         22    1    1    0    0    0 -0.38963059064E+01  0.50519196346E+02  0.36569378891E+02  0.62487517727E+02  0.00000000000E+00 0.  1.
</event>
<event>
 4    1  0.1964735E-002  0.9118800E+02  0.7818608E-02  0.1130116E+00
         25   -1    0    0    0    0  0.00000000000E+00  0.00000000000E+00  0.99999998245E-14  0.12500000000E+03  0.12500000000E+03 0.  0.
        -11    1    1    0    0    0  0.57163912157E+00 -0.28046368663E+02 -0.85401259440E+01  0.29323357888E+02  0.51100000000E-03 0. -1.
         11    1    1    0    0    0  0.64375393525E+00 -0.31731506552E+02 -0.96636772074E+01  0.33176642154E+02  0.51100000000E-03 0.  1.
         22    1    1    0    0    0 -0.12153930568E+01  0.59777875215E+02  0.18203803151E+02  0.62499999957E+02  0.00000000000E+00 0. -1.
</event>
<event>
 4    1  0.1964735E-002  0.9118800E+02  0.7818608E-02  0.1130116E+00
         25   -1    0    0    0    0  0.00000000000E+00  0.00000000000E+00  0.99999998245E-14  0.12500000000E+03  0.12500000000E+03 0.  0.
        -11    1    1    0    0    0 -0.13038634799E+02 -0.30571143073E+01  0.46607557837E+02  0.48493467530E+02  0.51100000000E-03 0.  1.
         11    1    1    0    0    0 -0.35405911914E+01  0.51363867163E-01  0.13564923665E+02  0.14019471407E+02  0.51100000000E-03 0. -1.
         22    1    1    0    0    0  0.16579225991E+02  0.30057504401E+01 -0.60172481502E+02  0.62487061063E+02  0.00000000000E+00 0.  1.
</event>
<event>
 4    1  0.1964735E-002  0.9118800E+02  0.7818608E-02  0.1130116E+00
         25   -1    0    0    0    0  0.00000000000E+00  0.00000000000E+00  0.99999998245E-14  0.12500000000E+03  0.12500000000E+03 0.  0.
        -11    1    1    0    0    0  0.34306591298E+02  0.41335119228E+02 -0.23484407823E+02  0.58626373751E+02  0.51100000000E-03 0. -1.
         11    1    1    0    0    0  0.26610922040E+01  0.30862981364E+01  0.23874942715E+00  0.40821133565E+01  0.51100000000E-03 0.  1.
         22    1    1    0    0    0 -0.36967683502E+02 -0.44421417365E+02  0.23245658396E+02  0.62291512893E+02  0.00000000000E+00 0. -1.
</event>
<event>
 4    1  0.1964735E-002  0.9118800E+02  0.7818608E-02  0.1130116E+00
         25   -1    0    0    0    0  0.00000000000E+00  0.00000000000E+00  0.99999998245E-14  0.12500000000E+03  0.12500000000E+03 0.  0.
        -11    1    1    0    0    0  0.41049569658E+01  0.57323494094E+01 -0.17767692062E+01  0.72709979037E+01  0.51100000000E-03 0. -1.
         11    1    1    0    0    0 -0.27834138718E+02  0.49921232233E+02  0.27078853268E+01  0.57220637440E+02  0.51100000000E-03 0.  1.
         22    1    1    0    0    0  0.23729181752E+02 -0.55653581642E+02 -0.93111612058E+00  0.60508364657E+02  0.00000000000E+00 0.  1.
</event>
<event>
 4    1  0.1964735E-002  0.9118800E+02  0.7818608E-02  0.1130116E+00
         25   -1    0    0    0    0  0.00000000000E+00  0.00000000000E+00  0.99999998245E-14  0.12500000000E+03  0.12500000000E+03 0.  0.
        -11    1    1    0    0    0 -0.13840199424E+02 -0.40405530611E+02 -0.20961541512E+02  0.47576719590E+02  0.51100000000E-03 0.  1.
         11    1    1    0    0    0 -0.34576813911E+01 -0.11967922036E+02 -0.83162710720E+01  0.14978220297E+02  0.51100000000E-03 0. -1.
         22    1    1    0    0    0  0.17297880815E+02  0.52373452647E+02  0.29277812584E+02  0.62445060114E+02  0.00000000000E+00 0.  1.
</event>
<event>
 4    1  0.1964735E-002  0.9118800E+02  0.7818608E-02  0.1130116E+00
         25   -1    0    0    0    0  0.00000000000E+00  0.00000000000E+00  0.99999998245E-14  0.12500000000E+03  0.12500000000E+03 0.  0.
        -11    1    1    0    0    0 -0.37358324168E+02 -0.19359056510E+02  0.12142331934E+02  0.43793306323E+02  0.51100000000E-03 0. -1.
         11    1    1    0    0    0 -0.16107667986E+02 -0.80687740227E+01  0.50406090149E+01  0.18707480367E+02  0.51100000000E-03 0.  1.
         22    1    1    0    0    0  0.53465992154E+02  0.27427830533E+02 -0.17182940949E+02  0.62499213310E+02  0.00000000000E+00 0. -1.
</event>
<event>
 4    1  0.1964735E-002  0.9118800E+02  0.7818608E-02  0.1130116E+00
         25   -1    0    0    0    0  0.00000000000E+00  0.00000000000E+00  0.99999998245E-14  0.12500000000E+03  0.12500000000E+03 0.  0.
        -11    1    1    0    0    0 -0.15441770086E+02 -0.76724790662E+01  0.59627371684E+02  0.62070432999E+02  0.51100000000E-03 0.  1.
         11    1    1    0    0    0 -0.10162509125E+00 -0.40089453574E-01  0.41556556122E+00  0.42968572266E+00  0.51100000000E-03 0. -1.
         22    1    1    0    0    0  0.15543395178E+02  0.77125685198E+01 -0.60042937245E+02  0.62499881279E+02  0.00000000000E+00 0.  1.
</event>
<event>
 4    1  0.1964735E-002  0.9118800E+02  0.7818608E-02  0.1130116E+00
         25   -1    0    0    0    0  0.00000000000E+00  0.00000000000E+00  0.99999998245E-14  0.12500000000E+03  0.12500000000E+03 0.  0.
        -11    1    1    0    0    0 -0.11408661026E+01  0.22598013815E+01  0.10313484215E+02  0.10619615561E+02  0.51100000000E-03 0. -1.
         11    1    1    0    0    0 -0.20625661111E+02  0.40058499218E+02  0.28205414430E+02  0.53156811974E+02  0.51100000000E-03 0.  1.
         22    1    1    0    0    0  0.21766527214E+02 -0.42318300599E+02 -0.38518898645E+02  0.61223572465E+02  0.00000000000E+00 0.  1.
</event>
<event>
 4    1  0.1964735E-002  0.9118800E+02  0.7818608E-02  0.1130116E+00
         25   -1    0    0    0    0  0.00000000000E+00  0.00000000000E+00  0.99999998245E-14  0.12500000000E+03  0.12500000000E+03 0.  0.
        -11    1    1    0    0    0  0.21412049989E+02  0.10759124231E+02  0.94172155048E+01  0.25747205422E+02  0.51100000000E-03 0. -1.
         11    1    1    0    0    0  0.30566651310E+02  0.15355608009E+02  0.13440723290E+02  0.36752794621E+02  0.51100000000E-03 0.  1.
         22    1    1    0    0    0 -0.51978701299E+02 -0.26114732240E+02 -0.22857938795E+02  0.62499999957E+02  0.00000000000E+00 0.  1.
</event>
<event>
 4    1  0.1964735E-002  0.9118800E+02  0.7818608E-02  0.1130116E+00
         25   -1    0    0    0    0  0.00000000000E+00  0.00000000000E+00  0.99999998245E-14  0.12500000000E+03  0.12500000000E+03 0.  0.
        -11    1    1    0    0    0  0.52237252006E+01  0.62496758827E+01  0.35956650495E+01  0.89036262848E+01  0.51100000000E-03 0.  1.
         11    1    1    0    0    0 -0.30310914706E+02  0.10295216921E+02  0.47226926372E+02  0.57053708176E+02  0.51100000000E-03 0. -1.
         22    1    1    0    0    0  0.25087189505E+02 -0.16544892804E+02 -0.50822591422E+02  0.59042665539E+02  0.00000000000E+00 0. -1.
</event>
<event>
 4    1  0.1964735E-002  0.9118800E+02  0.7818608E-02  0.1130116E+00
         25   -1    0    0    0    0  0.00000000000E+00  0.00000000000E+00  0.99999998245E-14  0.12500000000E+03  0.12500000000E+03 0.  0.
        -11    1    1    0    0    0  0.17447706630E+02 -0.18434921867E+01 -0.39657437664E+01  0.17987441563E+02  0.51100000000E-03 0.  1.
         11    1    1    0    0    0  0.44223427354E+02  0.74986248710E+01 -0.11716456392E+01  0.44869963847E+02  0.51100000000E-03 0. -1.
         22    1    1    0    0    0 -0.61671133984E+02 -0.56551326842E+01  0.51373894056E+01  0.62142594590E+02  0.00000000000E+00 0. -1.
</event>
<event>
 4    1  0.1964735E-002  0.9118800E+02  0.7818608E-02  0.1130116E+00
         25   -1    0    0    0    0  0.00000000000E+00  0.00000000000E+00  0.99999998245E-14  0.12500000000E+03  0.12500000000E+03 0.  0.
        -11    1    1    0    0    0  0.25420071619E+01  0.54241534917E+02  0.10444760757E+02  0.55296464065E+02  0.51100000000E-03 0.  1.
         11    1    1    0    0    0 -0.21283456959E+01  0.70885792626E+01  0.43727193599E+00  0.74141094118E+01  0.51100000000E-03 0. -1.
         22    1    1    0    0    0 -0.41366146601E+00 -0.61330114179E+02 -0.10882032693E+02  0.62289426523E+02  0.00000000000E+00 0.  1.
</event>
<event>
 4    1  0.1964735E-002  0.9118800E+02  0.7818608E-02  0.1130116E+00
         25   -1    0    0    0    0  0.00000000000E+00  0.00000000000E+00  0.99999998245E-14  0.12500000000E+03  0.12500000000E+03 0.  0.
        -11    1    1    0    0    0  0.15549363033E+02  0.84197493313E+01  0.18448651352E+01  0.17778593790E+02  0.51100000000E-03 0.  1.
         11    1    1    0    0    0  0.28360005163E+02  0.35241554096E+02 -0.23617601755E+01  0.45297184674E+02  0.51100000000E-03 0. -1.
         22    1    1    0    0    0 -0.43909368196E+02 -0.43661303427E+02  0.51689504030E+00  0.61924221536E+02  0.00000000000E+00 0. -1.
</event>
<event>
 4    1  0.1964735E-002  0.9118800E+02  0.7818608E-02  0.1130116E+00
         25   -1    0    0    0    0  0.00000000000E+00  0.00000000000E+00  0.99999998245E-14  0.12500000000E+03  0.12500000000E+03 0.  0.
        -11    1    1    0    0    0 -0.11413439183E+02  0.19737391825E+02 -0.56055796153E+02  0.60515151100E+02  0.51100000000E-03 0. -1.
         11    1    1    0    0    0 -0.66390085909E+01 -0.53471290584E+01  0.11641599132E+02  0.14428965827E+02  0.51100000000E-03 0.  1.
         22    1    1    0    0    0  0.18052447774E+02 -0.14390262766E+02  0.44414197021E+02  0.50055883072E+02  0.00000000000E+00 0. -1.
</event>
<event>
 4    1  0.1964735E-002  0.9118800E+02  0.7818608E-02  0.1130116E+00
         25   -1    0    0    0    0  0.00000000000E+00  0.00000000000E+00  0.99999998245E-14  0.12500000000E+03  0.12500000000E+03 0.  0.
        -11    1    1    0    0    0  0.14040851323E+02  0.65844134273E+01 -0.10107334929E+01  0.15540964852E+02  0.51100000000E-03 0.  1.
         11    1    1    0    0    0  0.42446350601E+02  0.19856983004E+02 -0.30263609427E+01  0.46959038685E+02  0.51100000000E-03 0. -1.
         22    1    1    0    0    0 -0.56487201924E+02 -0.26441396431E+02  0.40370944356E+01  0.62499996464E+02  0.00000000000E+00 0. -1.
</event>
<event>
 4    1  0.1964735E-002  0.9118800E+02  0.7818608E-02  0.1130116E+00
         25   -1    0    0    0    0  0.00000000000E+00  0.00000000000E+00  0.99999998245E-14  0.12500000000E+03  0.12500000000E+03 0.  0.
        -11    1    1    0    0    0  0.12963074368E+02  0.11437010048E+02  0.37771117376E+01  0.17695001250E+02  0.51100000000E-03 0.  1.
         11    1    1    0    0    0  0.16433340356E+02  0.73415188339E+01  0.44351645592E+02  0.47864611573E+02  0.51100000000E-03 0. -1.
         22    1    1    0    0    0 -0.29396414725E+02 -0.18778528882E+02 -0.48128757329E+02  0.59440387177E+02  0.00000000000E+00 0. -1.
</event>
<event>
 4    1  0.1964735E-002  0.9118800E+02  0.7818608E-02  0.1130116E+00
         25   -1    0    0    0    0  0.00000000000E+00  0.00000000000E+00  0.99999998245E-14  0.12500000000E+03  0.12500000000E+03 0.  0.
        -11    1    1    0    0    0  0.98457113099E+01  0.92619451273E+01  0.14792717029E+02  0.20038616123E+02  0.51100000000E-03 0. -1.
         11    1    1    0    0    0  0.20880318039E+02  0.19625741570E+02  0.31333875881E+02  0.42461384711E+02  0.51100000000E-03 0.  1.
         22    1    1    0    0    0 -0.30726029349E+02 -0.28887686698E+02 -0.46126592910E+02  0.62499999166E+02  0.00000000000E+00 0.  1.
</event>
<event>
 4    1  0.1964735E-002  0.9118800E+02  0.7818608E-02  0.1130116E+00
         25   -1    0    0    0    0  0.00000000000E+00  0.00000000000E+00  0.99999998245E-14  0.12500000000E+03  0.12500000000E+03 0.  0.
        -11    1    1    0    0    0  0.13403944400E+02 -0.30230974482E+02  0.32288273363E+02  0.46218071580E+02  0.51100000000E-03 0. -1.
         11    1    1    0    0    0  0.18702905846E+02  0.27581030555E+01  0.78785416414E+01  0.20481143479E+02  0.51100000000E-03 0.  1.
         22    1    1    0    0    0 -0.32106850246E+02  0.27472871426E+02 -0.40166815004E+02  0.58300784941E+02  0.00000000000E+00 0. -1.
</event>
<event>
 4    1  0.1964735E-002  0.9118800E+02  0.7818608E-02  0.1130116E+00
         25   -1    0    0    0    0  0.00000000000E+00  0.00000000000E+00  0.99999998245E-14  0.12500000000E+03  0.12500000000E+03 0.  0.
        -11    1    1    0    0    0  0.91214823648E+00 -0.79134220048E+00 -0.12328015979E+01  0.17256989670E+01  0.51100000000E-03 0.  1.
         11    1    1    0    0    0  0.33763706682E+02 -0.25452622330E+02 -0.43655587752E+02  0.60775276344E+02  0.51100000000E-03 0. -1.
         22    1    1    0    0    0 -0.34675854919E+02  0.26243964531E+02  0.44888389350E+02  0.62499024689E+02  0.00000000000E+00 0. -1.
</event>
<event>
 4    1  0.1964735E-002  0.9118800E+02  0.7818608E-02  0.1130116E+00
         25   -1    0    0    0    0  0.00000000000E+00  0.00000000000E+00  0.99999998245E-14  0.12500000000E+03  0.12500000000E+03 0.  0.
        -11    1    1    0    0    0  0.42168674260E+01  0.90707303248E+01 -0.16251722295E+02  0.19083463976E+02  0.51100000000E-03 0. -1.
         11    1    1    0    0    0  0.95932386111E+01  0.20636310554E+02 -0.36974424407E+02  0.43416536029E+02  0.51100000000E-03 0. -1.
         22    1    1    0    0    0 -0.13810106037E+02 -0.29707040878E+02  0.53226146702E+02  0.62499999994E+02  0.00000000000E+00 0. -1.
</event>
<event>
 4    1  0.1964735E-002  0.9118800E+02  0.7818608E-02  0.1130116E+00
         25   -1    0    0    0    0  0.00000000000E+00  0.00000000000E+00  0.99999998245E-14  0.12500000000E+03  0.12500000000E+03 0.  0.
        -11    1    1    0    0    0  0.94479037900E+01 -0.20100165197E+02 -0.44079458628E+01  0.22643089762E+02  0.51100000000E-03 0. -1.
         11    1    1    0    0    0  0.16632117637E+02 -0.35381334561E+02 -0.77528787376E+01  0.39856910334E+02  0.51100000000E-03 0.  1.
         22    1    1    0    0    0 -0.26080021427E+02  0.55481499758E+02  0.12160824600E+02  0.62499999904E+02  0.00000000000E+00 0.  1.
</event>
<event>
 4    1  0.1964735E-002  0.9118800E+02  0.7818608E-02  0.1130116E+00
         25   -1    0    0    0    0  0.00000000000E+00  0.00000000000E+00  0.99999998245E-14  0.12500000000E+03  0.12500000000E+03 0.  0.
        -11    1    1    0    0    0  0.62443013841E+00 -0.60333609550E+00 -0.84882267344E+01  0.85325213623E+01  0.51100000000E-03 0.  1.
         11    1    1    0    0    0  0.48477249918E+01 -0.40185676351E+01 -0.53599420070E+02  0.53968019748E+02  0.51100000000E-03 0. -1.
         22    1    1    0    0    0 -0.54721551302E+01  0.46219037306E+01  0.62087646804E+02  0.62499458890E+02  0.00000000000E+00 0. -1.
</event>
<event>
 4    1  0.1964735E-002  0.9118800E+02  0.7818608E-02  0.1130116E+00
         25   -1    0    0    0    0  0.00000000000E+00  0.00000000000E+00  0.99999998245E-14  0.12500000000E+03  0.12500000000E+03 0.  0.
        -11    1    1    0    0    0 -0.20944574843E+02 -0.39592332225E+02  0.16844321514E+02  0.47853517675E+02  0.51100000000E-03 0. -1.
         11    1    1    0    0    0 -0.67501876137E+01 -0.11948529154E+02  0.51227577071E+01  0.14648379724E+02  0.51100000000E-03 0.  1.
         22    1    1    0    0    0  0.27694762457E+02  0.51540861378E+02 -0.21967079221E+02  0.62498102601E+02  0.00000000000E+00 0. -1.
</event>
<event>
 4    1  0.1964735E-002  0.9118800E+02  0.7818608E-02  0.1130116E+00
         25   -1    0    0    0    0  0.00000000000E+00  0.00000000000E+00  0.99999998245E-14  0.12500000000E+03  0.12500000000E+03 0.  0.
        -11    1    1    0    0    0  0.10248644753E+02 -0.22307371878E+02 -0.15051194093E+02  0.28795694180E+02  0.51100000000E-03 0.  1.
         11    1    1    0    0    0  0.12051998456E+02 -0.25923773699E+02 -0.17852423366E+02  0.33704624755E+02  0.51100000000E-03 0. -1.
         22    1    1    0    0    0 -0.22300643209E+02  0.48231145578E+02  0.32903617459E+02  0.62499681065E+02  0.00000000000E+00 0. -1.
</event>
<event>
 4    1  0.1964735E-002  0.9118800E+02  0.7818608E-02  0.1130116E+00
         25   -1    0    0    0    0  0.00000000000E+00  0.00000000000E+00  0.99999998245E-14  0.12500000000E+03  0.12500000000E+03 0.  0.
        -11    1    1    0    0    0 -0.26838278595E+02  0.19224470073E+02 -0.11084649570E+02  0.34824458415E+02  0.51100000000E-03 0. -1.
         11    1    1    0    0    0  0.86949902589E+00 -0.53529872128E+00 -0.34482519013E+02  0.34497633122E+02  0.51100000000E-03 0.  1.
         22    1    1    0    0    0  0.25968779569E+02 -0.18689171352E+02  0.45567168584E+02  0.55677908463E+02  0.00000000000E+00 0.  1.
</event>
<event>
 4    1  0.1964735E-002  0.9118800E+02  0.7818608E-02  0.1130116E+00
         25   -1    0    0    0    0  0.00000000000E+00  0.00000000000E+00  0.99999998245E-14  0.12500000000E+03  0.12500000000E+03 0.  0.
        -11    1    1    0    0    0 -0.19759044261E+02  0.97995884674E+01  0.10928964689E+02  0.24614914862E+02  0.51100000000E-03 0. -1.
         11    1    1    0    0    0 -0.30411508500E+02  0.15083720708E+02  0.16819666966E+02  0.37885085149E+02  0.51100000000E-03 0. -1.
         22    1    1    0    0    0  0.50170552761E+02 -0.24883309176E+02 -0.27748631655E+02  0.62499999989E+02  0.00000000000E+00 0. -1.
</event>
<event>
 4    1  0.1964735E-002  0.9118800E+02  0.7818608E-02  0.1130116E+00
         25   -1    0    0    0    0  0.00000000000E+00  0.00000000000E+00  0.99999998245E-14  0.12500000000E+03  0.12500000000E+03 0.  0.
        -11    1    1    0    0    0  0.25053960059E+02  0.12822530202E+01  0.85119663573E+01  0.26491482763E+02  0.51100000000E-03 0.  1.
         11    1    1    0    0    0  0.34058751051E+02  0.17618482320E+01  0.11554687794E+02  0.36008519029E+02  0.51100000000E-03 0. -1.
         22    1    1    0    0    0 -0.59112711110E+02 -0.30441012522E+01 -0.20066654151E+02  0.62499998208E+02  0.00000000000E+00 0. -1.
</event>
<event>
 4    1  0.1964735E-002  0.9118800E+02  0.7818608E-02  0.1130116E+00
         25   -1    0    0    0    0  0.00000000000E+00  0.00000000000E+00  0.99999998245E-14  0.12500000000E+03  0.12500000000E+03 0.  0.
        -11    1    1    0    0    0 -0.28677943679E+02  0.22228480912E+02 -0.10193452918E+02  0.37688676017E+02  0.51100000000E-03 0.  1.
         11    1    1    0    0    0 -0.18916299982E+02  0.14593856713E+02 -0.66929603754E+01  0.24811343729E+02  0.51100000000E-03 0. -1.
         22    1    1    0    0    0  0.47594243661E+02 -0.36822337625E+02  0.16886413294E+02  0.62499980254E+02  0.00000000000E+00 0.  1.
</event>
<event>
 4    1  0.1964735E-002  0.9118800E+02  0.7818608E-02  0.1130116E+00
         25   -1    0    0    0    0  0.00000000000E+00  0.00000000000E+00  0.99999998245E-14  0.12500000000E+03  0.12500000000E+03 0.  0.
        -11    1    1    0    0    0 -0.22908707230E+02  0.36120371863E+01 -0.16432404572E+02  0.28423222897E+02  0.51100000000E-03 0.  1.
         11    1    1    0    0    0 -0.27340433383E+02  0.44923781451E+01 -0.19838341233E+02  0.34076979651E+02  0.51100000000E-03 0. -1.
         22    1    1    0    0    0  0.50249140614E+02 -0.81044153314E+01  0.36270745805E+02  0.62499797452E+02  0.00000000000E+00 0.  1.
</event>
<event>
 4    1  0.1964735E-002  0.9118800E+02  0.7818608E-02  0.1130116E+00
         25   -1    0    0    0    0  0.00000000000E+00  0.00000000000E+00  0.99999998245E-14  0.12500000000E+03  0.12500000000E+03 0.  0.
        -11    1    1    0    0    0  0.40018623410E+01 -0.11054448968E+02 -0.55625434916E+01  0.13006061453E+02  0.51100000000E-03 0.  1.
         11    1    1    0    0    0  0.13559362292E+02 -0.40656525973E+02 -0.24793252864E+02  0.49512774087E+02  0.51100000000E-03 0. -1.
         22    1    1    0    0    0 -0.17561224633E+02  0.51710974940E+02  0.30355796356E+02  0.62481164460E+02  0.00000000000E+00 0. -1.
</event>
<event>
 4    1  0.1964735E-002  0.9118800E+02  0.7818608E-02  0.1130116E+00
         25   -1    0    0    0    0  0.00000000000E+00  0.00000000000E+00  0.99999998245E-14  0.12500000000E+03  0.12500000000E+03 0.  0.
        -11    1    1    0    0    0 -0.46729644596E+02 -0.24493164550E+02  0.53581979968E+01  0.53030982262E+02  0.51100000000E-03 0. -1.
         11    1    1    0    0    0 -0.83093131925E+01 -0.44359313162E+01  0.97075894320E+00  0.94691364739E+01  0.51100000000E-03 0.  1.
         22    1    1    0    0    0  0.55038957788E+02  0.28929095866E+02 -0.63289569400E+01  0.62499881264E+02  0.00000000000E+00 0. -1.
</event>
<event>
 4    1  0.1964735E-002  0.9118800E+02  0.7818608E-02  0.1130116E+00
         25   -1    0    0    0    0  0.00000000000E+00  0.00000000000E+00  0.99999998245E-14  0.12500000000E+03  0.12500000000E+03 0.  0.
        -11    1    1    0    0    0  0.12435161068E+01 -0.21554179528E+02  0.67689254320E+01  0.22626253318E+02  0.51100000000E-03 0.  1.
         11    1    1    0    0    0 -0.39970438595E+01 -0.11962942313E+02  0.41595746348E+02  0.43466015033E+02  0.51100000000E-03 0. -1.
         22    1    1    0    0    0  0.27535277527E+01  0.33517121841E+02 -0.48364671780E+02  0.58907731648E+02  0.00000000000E+00 0. -1.
</event>
<event>
 4    1  0.1964735E-002  0.9118800E+02  0.7818608E-02  0.1130116E+00
         25   -1    0    0    0    0  0.00000000000E+00  0.00000000000E+00  0.99999998245E-14  0.12500000000E+03  0.12500000000E+03 0.  0.
        -11    1    1    0    0    0 -0.34689117085E+02 -0.19432492653E+00  0.20865002187E+02  0.40481118102E+02  0.51100000000E-03 0.  1.
         11    1    1    0    0    0 -0.18883371215E+02 -0.12490984786E+00  0.11324055978E+02  0.22018890866E+02  0.51100000000E-03 0. -1.
         22    1    1    0    0    0  0.53572488300E+02  0.31923477439E+00 -0.32189058165E+02  0.62499991032E+02  0.00000000000E+00 0.  1.
</event>
<event>
 4    1  0.1964735E-002  0.9118800E+02  0.7818608E-02  0.1130116E+00
         25   -1    0    0    0    0  0.00000000000E+00  0.00000000000E+00  0.99999998245E-14  0.12500000000E+03  0.12500000000E+03 0.  0.
        -11    1    1    0    0    0 -0.40393474319E+01  0.33214734328E+00  0.10301883445E+00  0.40542894167E+01  0.51100000000E-03 0. -1.
         11    1    1    0    0    0 -0.58280003476E+02  0.37274490588E+01  0.23471431281E+01  0.58446229672E+02  0.51100000000E-03 0.  1.
         22    1    1    0    0    0  0.62319350908E+02 -0.40595964020E+01 -0.24501619626E+01  0.62499480912E+02  0.00000000000E+00 0.  1.
</event>
<event>
 4    1  0.1964735E-002  0.9118800E+02  0.7818608E-02  0.1130116E+00
         25   -1    0    0    0    0  0.00000000000E+00  0.00000000000E+00  0.99999998245E-14  0.12500000000E+03  0.12500000000E+03 0.  0.
        -11    1    1    0    0    0  0.21893698687E+02  0.78306612379E+00  0.18940815563E+02  0.28960347532E+02  0.51100000000E-03 0. -1.
         11    1    1    0    0    0  0.25318489382E+02  0.91569140444E+00  0.21978276717E+02  0.33539663729E+02  0.51100000000E-03 0.  1.
         22    1    1    0    0    0 -0.47212188069E+02 -0.16987575282E+01 -0.40919092280E+02  0.62499988739E+02  0.00000000000E+00 0.  1.
</event>
<event>
 4    1  0.1964735E-002  0.9118800E+02  0.7818608E-02  0.1130116E+00
         25   -1    0    0    0    0  0.00000000000E+00  0.00000000000E+00  0.99999998245E-14  0.12500000000E+03  0.12500000000E+03 0.  0.
        -11    1    1    0    0    0 -0.13736172402E+02  0.19168137444E+02  0.44755862296E+01  0.24002724797E+02  0.51100000000E-03 0.  1.
         11    1    1    0    0    0 -0.23787259946E+02  0.29664157998E+02  0.61058188895E+01  0.38510739152E+02  0.51100000000E-03 0. -1.
         22    1    1    0    0    0  0.37523432347E+02 -0.48832295443E+02 -0.10581405119E+02  0.62486536051E+02  0.00000000000E+00 0. -1.
</event>
<event>
 4    1  0.1964735E-002  0.9118800E+02  0.7818608E-02  0.1130116E+00
         25   -1    0    0    0    0  0.00000000000E+00  0.00000000000E+00  0.99999998245E-14  0.12500000000E+03  0.12500000000E+03 0.  0.
        -11    1    1    0    0    0  0.24348674747E+02 -0.35447210466E+02 -0.55359600050E+01  0.43359076849E+02  0.51100000000E-03 0. -1.
         11    1    1    0    0    0  0.10748603493E+02 -0.15648341444E+02 -0.24437413971E+01  0.19140923157E+02  0.51100000000E-03 0. -1.
         22    1    1    0    0    0 -0.35097278240E+02  0.51095551910E+02  0.79797014021E+01  0.62499999995E+02  0.00000000000E+00 0. -1.
</event>
<event>
 4    1  0.1964735E-002  0.9118800E+02  0.7818608E-02  0.1130116E+00
         25   -1    0    0    0    0  0.00000000000E+00  0.00000000000E+00  0.99999998245E-14  0.12500000000E+03  0.12500000000E+03 0.  0.
        -11    1    1    0    0    0  0.33513594894E+01  0.91056255755E+01  0.52166558129E+02  0.53061227039E+02  0.51100000000E-03 0. -1.
         11    1    1    0    0    0  0.61751960160E+00  0.16271328526E+01  0.92769479387E+01  0.94387846197E+01  0.51100000000E-03 0.  1.
         22    1    1    0    0    0 -0.39688790910E+01 -0.10732758428E+02 -0.61443506068E+02  0.62499988341E+02  0.00000000000E+00 0. -1.
</event>
<event>
 4    1  0.1964735E-002  0.9118800E+02  0.7818608E-02  0.1130116E+00
         25   -1    0    0    0    0  0.00000000000E+00  0.00000000000E+00  0.99999998245E-14  0.12500000000E+03  0.12500000000E+03 0.  0.
        -11    1    1    0    0    0  0.26348665908E+02  0.19886195195E+02 -0.46501638233E+01  0.33336721170E+02  0.51100000000E-03 0.  1.
         11    1    1    0    0    0  0.22457271153E+02  0.18021566366E+02 -0.46563011385E+01  0.29168253676E+02  0.51100000000E-03 0. -1.
         22    1    1    0    0    0 -0.48805937061E+02 -0.37907761561E+02  0.93064649617E+01  0.62495025155E+02  0.00000000000E+00 0.  1.
</event>
<event>
 4    1  0.1964735E-002  0.9118800E+02  0.7818608E-02  0.1130116E+00
         25   -1    0    0    0    0  0.00000000000E+00  0.00000000000E+00  0.99999998245E-14  0.12500000000E+03  0.12500000000E+03 0.  0.
        -11    1    1    0    0    0 -0.76276317286E+01 -0.31816241743E+01 -0.13176915937E+02  0.15554247396E+02  0.51100000000E-03 0. -1.
         11    1    1    0    0    0 -0.39335239639E+02  0.30375529266E+02 -0.95557244763E+01  0.50608751478E+02  0.51100000000E-03 0.  1.
         22    1    1    0    0    0  0.46962871368E+02 -0.27193905092E+02  0.22732640414E+02  0.58837001125E+02  0.00000000000E+00 0.  1.
</event>
<event>
 4    1  0.1964735E-002  0.9118800E+02  0.7818608E-02  0.1130116E+00
         25   -1    0    0    0    0  0.00000000000E+00  0.00000000000E+00  0.99999998245E-14  0.12500000000E+03  0.12500000000E+03 0.  0.
        -11    1    1    0    0    0  0.51133580051E+01  0.24442151191E+00  0.10605508524E+02  0.11776373945E+02  0.51100000000E-03 0.  1.
         11    1    1    0    0    0  0.21754788977E+02  0.68910057659E+00  0.45816608295E+02  0.50723833639E+02  0.51100000000E-03 0. -1.
         22    1    1    0    0    0 -0.26868146982E+02 -0.93352208850E+00 -0.56422116820E+02  0.62499792417E+02  0.00000000000E+00 0. -1.
</event>
<event>
 4    1  0.1964735E-002  0.9118800E+02  0.7818608E-02  0.1130116E+00
         25   -1    0    0    0    0  0.00000000000E+00  0.00000000000E+00  0.99999998245E-14  0.12500000000E+03  0.12500000000E+03 0.  0.
        -11    1    1    0    0    0 -0.38826331762E+02 -0.32567690321E+02 -0.23331742764E+02  0.55789862086E+02  0.51100000000E-03 0. -1.
         11    1    1    0    0    0 -0.46705617081E+01 -0.39168677771E+01 -0.28053433754E+01  0.67101379694E+01  0.51100000000E-03 0. -1.
         22    1    1    0    0    0  0.43496893471E+02  0.36484558098E+02  0.26137086139E+02  0.62499999944E+02  0.00000000000E+00 0. -1.
</event>
<event>
 4    1  0.1964735E-002  0.9118800E+02  0.7818608E-02  0.1130116E+00
         25   -1    0    0    0    0  0.00000000000E+00  0.00000000000E+00  0.99999998245E-14  0.12500000000E+03  0.12500000000E+03 0.  0.
        -11    1    1    0    0    0 -0.68735120595E+01  0.20417494757E+01  0.17026978466E+01  0.73697414589E+01  0.51100000000E-03 0. -1.
         11    1    1    0    0    0  0.43693940309E+02  0.23057896670E+02  0.34464915959E+02  0.60238338713E+02  0.51100000000E-03 0.  1.
         22    1    1    0    0    0 -0.36820428250E+02 -0.25099646146E+02 -0.36167613806E+02  0.57391919828E+02  0.00000000000E+00 0.  1.
</event>
<event>
 4    1  0.1964735E-002  0.9118800E+02  0.7818608E-02  0.1130116E+00
         25   -1    0    0    0    0  0.00000000000E+00  0.00000000000E+00  0.99999998245E-14  0.12500000000E+03  0.12500000000E+03 0.  0.
        -11    1    1    0    0    0  0.90207921705E+01 -0.34613105286E+01 -0.73829907505E+00  0.96902243392E+01  0.51100000000E-03 0. -1.
         11    1    1    0    0    0  0.49145028445E+02 -0.18961035896E+02 -0.37581807578E+01  0.52809834557E+02  0.51100000000E-03 0.  1.
         22    1    1    0    0    0 -0.58165820615E+02  0.22422346425E+02  0.44964798329E+01  0.62499941103E+02  0.00000000000E+00 0.  1.
</event>
<event>
 4    1  0.1964735E-002  0.9118800E+02  0.7818608E-02  0.1130116E+00
         25   -1    0    0    0    0  0.00000000000E+00  0.00000000000E+00  0.99999998245E-14  0.12500000000E+03  0.12500000000E+03 0.  0.
        -11    1    1    0    0    0 -0.33153472987E+02  0.47386885008E+02 -0.18570708805E+02  0.60741590921E+02  0.51100000000E-03 0. -1.
         11    1    1    0    0    0  0.15132975367E+00  0.16012614198E+01 -0.11594470801E+01  0.19827396757E+01  0.51100000000E-03 0.  1.
         22    1    1    0    0    0  0.33002143233E+02 -0.48988146427E+02  0.19730155885E+02  0.62275669403E+02  0.00000000000E+00 0. -1.
</event>
<event>
 4    1  0.1964735E-002  0.9118800E+02  0.7818608E-02  0.1130116E+00
         25   -1    0    0    0    0  0.00000000000E+00  0.00000000000E+00  0.99999998245E-14  0.12500000000E+03  0.12500000000E+03 0.  0.
        -11    1    1    0    0    0  0.32127588103E+02 -0.47305669373E+02 -0.19141984807E+02  0.60302768218E+02  0.51100000000E-03 0. -1.
         11    1    1    0    0    0  0.12738007752E+01 -0.16675207758E+01 -0.65731943492E+00  0.21989231577E+01  0.51100000000E-03 0.  1.
         22    1    1    0    0    0 -0.33401388879E+02  0.48973190149E+02  0.19799304242E+02  0.62498308624E+02  0.00000000000E+00 0. -1.
</event>
<event>
 4    1  0.1964735E-002  0.9118800E+02  0.7818608E-02  0.1130116E+00
         25   -1    0    0    0    0  0.00000000000E+00  0.00000000000E+00  0.99999998245E-14  0.12500000000E+03  0.12500000000E+03 0.  0.
        -11    1    1    0    0    0 -0.39868953137E+02 -0.19520713822E+02 -0.90270094081E+01  0.45299874078E+02  0.51100000000E-03 0.  1.
         11    1    1    0    0    0 -0.15148343032E+02 -0.73457055292E+01 -0.35238668047E+01  0.17200271040E+02  0.51100000000E-03 0. -1.
         22    1    1    0    0    0  0.55017296169E+02  0.26866419351E+02  0.12550876213E+02  0.62499854882E+02  0.00000000000E+00 0.  1.
</event>
<event>
 4    1  0.1964735E-002  0.9118800E+02  0.7818608E-02  0.1130116E+00
         25   -1    0    0    0    0  0.00000000000E+00  0.00000000000E+00  0.99999998245E-14  0.12500000000E+03  0.12500000000E+03 0.  0.
        -11    1    1    0    0    0  0.10423059446E+02  0.28293197537E+01 -0.83588357702E+01  0.13657062429E+02  0.51100000000E-03 0. -1.
         11    1    1    0    0    0  0.37272752612E+02  0.10121116838E+02 -0.29898786968E+02  0.48842937624E+02  0.51100000000E-03 0.  1.
         22    1    1    0    0    0 -0.47695812059E+02 -0.12950436591E+02  0.38257622738E+02  0.62499999947E+02  0.00000000000E+00 0.  1.
</event>
<event>
 4    1  0.1964735E-002  0.9118800E+02  0.7818608E-02  0.1130116E+00
         25   -1    0    0    0    0  0.00000000000E+00  0.00000000000E+00  0.99999998245E-14  0.12500000000E+03  0.12500000000E+03 0.  0.
        -11    1    1    0    0    0 -0.13560640707E+02  0.67505360237E+01  0.32414213468E+02  0.35779071369E+02  0.51100000000E-03 0.  1.
         11    1    1    0    0    0 -0.46063409062E+01  0.13624828028E+02  0.23183877557E+02  0.27282714201E+02  0.51100000000E-03 0. -1.
         22    1    1    0    0    0  0.18166981613E+02 -0.20375364051E+02 -0.55598091025E+02  0.61938214430E+02  0.00000000000E+00 0.  1.
</event>
<event>
 4    1  0.1964735E-002  0.9118800E+02  0.7818608E-02  0.1130116E+00
         25   -1    0    0    0    0  0.00000000000E+00  0.00000000000E+00  0.99999998245E-14  0.12500000000E+03  0.12500000000E+03 0.  0.
        -11    1    1    0    0    0 -0.41638082463E+02  0.50080670718E+01  0.21419423541E+02  0.47091425462E+02  0.51100000000E-03 0. -1.
         11    1    1    0    0    0 -0.13623874782E+02  0.16384000962E+01  0.70092688994E+01  0.15408574552E+02  0.51100000000E-03 0.  1.
         22    1    1    0    0    0  0.55261957245E+02 -0.66464671681E+01 -0.28428692440E+02  0.62499999986E+02  0.00000000000E+00 0. -1.
</event>
<event>
 4    1  0.1964735E-002  0.9118800E+02  0.7818608E-02  0.1130116E+00
         25   -1    0    0    0    0  0.00000000000E+00  0.00000000000E+00  0.99999998245E-14  0.12500000000E+03  0.12500000000E+03 0.  0.
        -11    1    1    0    0    0  0.12498722407E+01  0.61245947881E+00  0.44700173518E+01  0.46817029613E+01  0.51100000000E-03 0. -1.
         11    1    1    0    0    0  0.25188584201E+02 -0.42894618262E+02  0.31458210509E+02  0.58856028226E+02  0.51100000000E-03 0.  1.
         22    1    1    0    0    0 -0.26438456442E+02  0.42282158783E+02 -0.35928227860E+02  0.61462268813E+02  0.00000000000E+00 0.  1.
</event>
<event>
 4    1  0.1964735E-002  0.9118800E+02  0.7818608E-02  0.1130116E+00
         25   -1    0    0    0    0  0.00000000000E+00  0.00000000000E+00  0.99999998245E-14  0.12500000000E+03  0.12500000000E+03 0.  0.
        -11    1    1    0    0    0  0.46648439692E+02 -0.99966525749E+01 -0.58533315082E+01  0.48065283505E+02  0.51100000000E-03 0. -1.
         11    1    1    0    0    0 -0.11837525022E+01 -0.20567700675E+02 -0.47316703617E+01  0.21138123987E+02  0.51100000000E-03 0.  1.
         22    1    1    0    0    0 -0.45464687190E+02  0.30564353250E+02  0.10585001870E+02  0.55796592507E+02  0.00000000000E+00 0. -1.
</event>
<event>
 4    1  0.1964735E-002  0.9118800E+02  0.7818608E-02  0.1130116E+00
         25   -1    0    0    0    0  0.00000000000E+00  0.00000000000E+00  0.99999998245E-14  0.12500000000E+03  0.12500000000E+03 0.  0.
        -11    1    1    0    0    0  0.55543190317E+01 -0.47689008863E+02 -0.21773123774E+02  0.52717747917E+02  0.51100000000E-03 0. -1.
         11    1    1    0    0    0  0.83475751570E+01 -0.58678081889E+01 -0.43521573157E+01  0.11092991369E+02  0.51100000000E-03 0.  1.
         22    1    1    0    0    0 -0.13901894189E+02  0.53556817052E+02  0.26125281090E+02  0.61189260715E+02  0.00000000000E+00 0. -1.
</event>
<event>
 4    1  0.1964735E-002  0.9118800E+02  0.7818608E-02  0.1130116E+00
         25   -1    0    0    0    0  0.00000000000E+00  0.00000000000E+00  0.99999998245E-14  0.12500000000E+03  0.12500000000E+03 0.  0.
        -11    1    1    0    0    0 -0.58541019894E+01 -0.13451978603E+02  0.17764189134E+02  0.23038937786E+02  0.51100000000E-03 0. -1.
         11    1    1    0    0    0 -0.16826348671E+02 -0.23554910975E+02  0.27017448718E+02  0.39596747040E+02  0.51100000000E-03 0.  1.
         22    1    1    0    0    0  0.22680450660E+02  0.37006889579E+02 -0.44781637852E+02  0.62364315174E+02  0.00000000000E+00 0.  1.
</event>
<event>
 4    1  0.1964735E-002  0.9118800E+02  0.7818608E-02  0.1130116E+00
         25   -1    0    0    0    0  0.00000000000E+00  0.00000000000E+00  0.99999998245E-14  0.12500000000E+03  0.12500000000E+03 0.  0.
        -11    1    1    0    0    0 -0.61297070880E+01 -0.34098882709E+00 -0.24366174996E+00  0.61440177143E+01  0.51100000000E-03 0.  1.
         11    1    1    0    0    0 -0.51175691031E+02  0.24347060152E+02  0.18904176744E+01  0.56703653937E+02  0.51100000000E-03 0. -1.
         22    1    1    0    0    0  0.57305398119E+02 -0.24006071325E+02 -0.16467559244E+01  0.62152328349E+02  0.00000000000E+00 0. -1.
</event>
<event>
 4    1  0.1964735E-002  0.9118800E+02  0.7818608E-02  0.1130116E+00
         25   -1    0    0    0    0  0.00000000000E+00  0.00000000000E+00  0.99999998245E-14  0.12500000000E+03  0.12500000000E+03 0.  0.
        -11    1    1    0    0    0 -0.51190409077E+02 -0.14728226412E+02  0.50426789960E+00  0.53269437026E+02  0.51100000000E-03 0.  1.
         11    1    1    0    0    0 -0.88441521026E+01 -0.26411756496E+01  0.11122696329E+00  0.92307749904E+01  0.51100000000E-03 0. -1.
         22    1    1    0    0    0  0.60034561180E+02  0.17369402062E+02 -0.61549486289E+00  0.62499787983E+02  0.00000000000E+00 0.  1.
</event>
<event>
 4    1  0.1964735E-002  0.9118800E+02  0.7818608E-02  0.1130116E+00
         25   -1    0    0    0    0  0.00000000000E+00  0.00000000000E+00  0.99999998245E-14  0.12500000000E+03  0.12500000000E+03 0.  0.
        -11    1    1    0    0    0  0.11036744432E+02 -0.74430125845E+01  0.10179376733E+01  0.13350818753E+02  0.51100000000E-03 0. -1.
         11    1    1    0    0    0  0.40603989139E+02 -0.27441327027E+02  0.37325501398E+01  0.49149184060E+02  0.51100000000E-03 0.  1.
         22    1    1    0    0    0 -0.51640733572E+02  0.34884339611E+02 -0.47504878131E+01  0.62499997187E+02  0.00000000000E+00 0.  1.
</event>
<event>
 4    1  0.1964735E-002  0.9118800E+02  0.7818608E-02  0.1130116E+00
         25   -1    0    0    0    0  0.00000000000E+00  0.00000000000E+00  0.99999998245E-14  0.12500000000E+03  0.12500000000E+03 0.  0.
        -11    1    1    0    0    0 -0.49807716183E+02 -0.15234065231E+02  0.12099208426E+01  0.52099416922E+02  0.51100000000E-03 0. -1.
         11    1    1    0    0    0 -0.99399371772E+01 -0.30506798708E+01  0.25142010550E+00  0.10400587055E+02  0.51100000000E-03 0.  1.
         22    1    1    0    0    0  0.59747653361E+02  0.18284745102E+02 -0.14613409481E+01  0.62499996023E+02  0.00000000000E+00 0. -1.
</event>
<event>
 4    1  0.1964735E-002  0.9118800E+02  0.7818608E-02  0.1130116E+00
         25   -1    0    0    0    0  0.00000000000E+00  0.00000000000E+00  0.99999998245E-14  0.12500000000E+03  0.12500000000E+03 0.  0.
        -11    1    1    0    0    0 -0.13237050956E+02 -0.14475062488E+01 -0.31180375898E+02  0.33904728782E+02  0.51100000000E-03 0. -1.
         11    1    1    0    0    0 -0.11333957958E+02 -0.15778225671E+01 -0.26206603044E+02  0.28596051658E+02  0.51100000000E-03 0.  1.
         22    1    1    0    0    0  0.24571008914E+02  0.30253288159E+01  0.57386978943E+02  0.62499219560E+02  0.00000000000E+00 0.  1.
</event>
<event>
 4    1  0.1964735E-002  0.9118800E+02  0.7818608E-02  0.1130116E+00
         25   -1    0    0    0    0  0.00000000000E+00  0.00000000000E+00  0.99999998245E-14  0.12500000000E+03  0.12500000000E+03 0.  0.
        -11    1    1    0    0    0 -0.29375330258E+02  0.17269348296E+02  0.36441749408E+02  0.49891297022E+02  0.51100000000E-03 0.  1.
         11    1    1    0    0    0 -0.73725179071E+01  0.44803729733E+01  0.91955494847E+01  0.12608960816E+02  0.51100000000E-03 0. -1.
         22    1    1    0    0    0  0.36747848165E+02 -0.21749721269E+02 -0.45637298893E+02  0.62499742162E+02  0.00000000000E+00 0.  1.
</event>
<event>
 4    1  0.1964735E-002  0.9118800E+02  0.7818608E-02  0.1130116E+00
         25   -1    0    0    0    0  0.00000000000E+00  0.00000000000E+00  0.99999998245E-14  0.12500000000E+03  0.12500000000E+03 0.  0.
        -11    1    1    0    0    0 -0.36707224877E+02  0.35547362396E+02 -0.85327755533E+01  0.51805825835E+02  0.51100000000E-03 0. -1.
         11    1    1    0    0    0 -0.75743827222E+01  0.73407411303E+01 -0.17628428226E+01  0.10694174538E+02  0.51100000000E-03 0.  1.
         22    1    1    0    0    0  0.44281607599E+02 -0.42888103527E+02  0.10295618376E+02  0.62499999628E+02  0.00000000000E+00 0. -1.
</event>
<event>
 4    1  0.1964735E-002  0.9118800E+02  0.7818608E-02  0.1130116E+00
         25   -1    0    0    0    0  0.00000000000E+00  0.00000000000E+00  0.99999998245E-14  0.12500000000E+03  0.12500000000E+03 0.  0.
        -11    1    1    0    0    0  0.17678139426E+02  0.74568096397E+01 -0.20896880235E+02  0.28369001170E+02  0.51100000000E-03 0.  1.
         11    1    1    0    0    0  0.24806437072E+02  0.12376002534E+02 -0.20185758583E+02  0.34292704891E+02  0.51100000000E-03 0. -1.
         22    1    1    0    0    0 -0.42484576498E+02 -0.19832812174E+02  0.41082638818E+02  0.62338293939E+02  0.00000000000E+00 0. -1.
</event>
<event>
 4    1  0.1964735E-002  0.9118800E+02  0.7818608E-02  0.1130116E+00
         25   -1    0    0    0    0  0.00000000000E+00  0.00000000000E+00  0.99999998245E-14  0.12500000000E+03  0.12500000000E+03 0.  0.
        -11    1    1    0    0    0  0.87390891845E+00  0.13369012848E+02 -0.26293090581E+02  0.29509673564E+02  0.51100000000E-03 0. -1.
         11    1    1    0    0    0 -0.24597202606E+02  0.75162162396E+01 -0.24594085168E+02  0.35586302254E+02  0.51100000000E-03 0.  1.
         22    1    1    0    0    0  0.23723293688E+02 -0.20885229087E+02  0.50887175749E+02  0.59904024181E+02  0.00000000000E+00 0. -1.
</event>
<event>
 4    1  0.1964735E-002  0.9118800E+02  0.7818608E-02  0.1130116E+00
         25   -1    0    0    0    0  0.00000000000E+00  0.00000000000E+00  0.99999998245E-14  0.12500000000E+03  0.12500000000E+03 0.  0.
        -11    1    1    0    0    0 -0.98683076206E+01  0.27947785334E+02  0.28126465860E+02  0.40860253088E+02  0.51100000000E-03 0. -1.
         11    1    1    0    0    0 -0.52628047528E+01  0.14782483728E+02  0.14901686793E+02  0.21639759901E+02  0.51100000000E-03 0.  1.
         22    1    1    0    0    0  0.15131112373E+02 -0.42730269061E+02 -0.43028152653E+02  0.62499987012E+02  0.00000000000E+00 0. -1.
</event>
<event>
 4    1  0.1964735E-002  0.9118800E+02  0.7818608E-02  0.1130116E+00
         25   -1    0    0    0    0  0.00000000000E+00  0.00000000000E+00  0.99999998245E-14  0.12500000000E+03  0.12500000000E+03 0.  0.
        -11    1    1    0    0    0  0.45345085578E+02  0.21981171845E+02  0.12178806921E+02  0.51842762658E+02  0.51100000000E-03 0. -1.
         11    1    1    0    0    0  0.90076463810E+01  0.48300018775E+01  0.30522221196E+01  0.10666896062E+02  0.51100000000E-03 0.  1.
         22    1    1    0    0    0 -0.54352731959E+02 -0.26811173722E+02 -0.15231029040E+02  0.62490341281E+02  0.00000000000E+00 0. -1.
</event>
<event>
 4    1  0.1964735E-002  0.9118800E+02  0.7818608E-02  0.1130116E+00
         25   -1    0    0    0    0  0.00000000000E+00  0.00000000000E+00  0.99999998245E-14  0.12500000000E+03  0.12500000000E+03 0.  0.
        -11    1    1    0    0    0  0.13023335129E+02 -0.16674830507E+02 -0.51266221147E+02  0.55460640649E+02  0.51100000000E-03 0.  1.
         11    1    1    0    0    0  0.19320964526E+01 -0.23596254134E+01 -0.63500777033E+01  0.70444528455E+01  0.51100000000E-03 0. -1.
         22    1    1    0    0    0 -0.14955431582E+02  0.19034455920E+02  0.57616298850E+02  0.62494906505E+02  0.00000000000E+00 0.  1.
</event>
<event>
 4    1  0.1964735E-002  0.9118800E+02  0.7818608E-02  0.1130116E+00
         25   -1    0    0    0    0  0.00000000000E+00  0.00000000000E+00  0.99999998245E-14  0.12500000000E+03  0.12500000000E+03 0.  0.
        -11    1    1    0    0    0 -0.17630905258E+02 -0.37066996661E+02 -0.13121847053E+01  0.41067418846E+02  0.51100000000E-03 0. -1.
         11    1    1    0    0    0 -0.92164422183E+01 -0.19337337012E+02 -0.69299361376E+00  0.21432583845E+02  0.51100000000E-03 0.  1.
         22    1    1    0    0    0  0.26847347476E+02  0.56404333673E+02  0.20051783191E+01  0.62499997309E+02  0.00000000000E+00 0.  1.
</event>
<event>
 4    1  0.1964735E-002  0.9118800E+02  0.7818608E-02  0.1130116E+00
         25   -1    0    0    0    0  0.00000000000E+00  0.00000000000E+00  0.99999998245E-14  0.12500000000E+03  0.12500000000E+03 0.  0.
        -11    1    1    0    0    0 -0.65231494464E+01  0.29365118807E+02 -0.16194425433E+02  0.34163154079E+02  0.51100000000E-03 0.  1.
         11    1    1    0    0    0 -0.46720684257E+01  0.24024563206E+02 -0.14295162901E+02  0.28343597923E+02  0.51100000000E-03 0. -1.
         22    1    1    0    0    0  0.11195217872E+02 -0.53389682013E+02  0.30489588334E+02  0.62493247998E+02  0.00000000000E+00 0.  1.
</event>
<event>
 4    1  0.1964735E-002  0.9118800E+02  0.7818608E-02  0.1130116E+00
         25   -1    0    0    0    0  0.00000000000E+00  0.00000000000E+00  0.99999998245E-14  0.12500000000E+03  0.12500000000E+03 0.  0.
        -11    1    1    0    0    0 -0.29135582771E+02  0.25967620456E+02  0.42453341579E+02  0.57667024434E+02  0.51100000000E-03 0. -1.
         11    1    1    0    0    0 -0.24056364691E+01  0.22365739189E+01  0.35455117614E+01  0.48332187647E+01  0.51100000000E-03 0.  1.
         22    1    1    0    0    0  0.31541219240E+02 -0.28204194375E+02 -0.45998853341E+02  0.62499756801E+02  0.00000000000E+00 0. -1.
</event>
<event>
 4    1  0.1964735E-002  0.9118800E+02  0.7818608E-02  0.1130116E+00
         25   -1    0    0    0    0  0.00000000000E+00  0.00000000000E+00  0.99999998245E-14  0.12500000000E+03  0.12500000000E+03 0.  0.
        -11    1    1    0    0    0 -0.13650194098E+01  0.48636432902E+01  0.30577855701E+01  0.59049434287E+01  0.51100000000E-03 0.  1.
         11    1    1    0    0    0 -0.56825921213E+02  0.12705510227E+02  0.74543966400E-01  0.58229038021E+02  0.51100000000E-03 0. -1.
         22    1    1    0    0    0  0.58190940622E+02 -0.17569153517E+02 -0.31323295365E+01  0.60866018550E+02  0.00000000000E+00 0. -1.
</event>
<event>
 4    1  0.1964735E-002  0.9118800E+02  0.7818608E-02  0.1130116E+00
         25   -1    0    0    0    0  0.00000000000E+00  0.00000000000E+00  0.99999998245E-14  0.12500000000E+03  0.12500000000E+03 0.  0.
        -11    1    1    0    0    0  0.70180969970E+01 -0.47027221152E+02  0.35280294178E+02  0.59207367551E+02  0.51100000000E-03 0.  1.
         11    1    1    0    0    0 -0.69371067527E+00 -0.34515098715E+01  0.55645776804E+00  0.35642391057E+01  0.51100000000E-03 0. -1.
         22    1    1    0    0    0 -0.63243863217E+01  0.50478731024E+02 -0.35836751946E+02  0.62228393344E+02  0.00000000000E+00 0.  1.
</event>
<event>
 4    1  0.1964735E-002  0.9118800E+02  0.7818608E-02  0.1130116E+00
         25   -1    0    0    0    0  0.00000000000E+00  0.00000000000E+00  0.99999998245E-14  0.12500000000E+03  0.12500000000E+03 0.  0.
        -11    1    1    0    0    0 -0.19193226933E+01  0.23636030060E+01 -0.10209806273E+01  0.32113580419E+01  0.51100000000E-03 0.  1.
         11    1    1    0    0    0 -0.36977277977E+02  0.45397992645E+02 -0.94476640520E+01  0.59308980594E+02  0.51100000000E-03 0. -1.
         22    1    1    0    0    0  0.38896600670E+02 -0.47761595651E+02  0.10468644679E+02  0.62479661364E+02  0.00000000000E+00 0. -1.
</event>
<event>
 4    1  0.1964735E-002  0.9118800E+02  0.7818608E-02  0.1130116E+00
         25   -1    0    0    0    0  0.00000000000E+00  0.00000000000E+00  0.99999998245E-14  0.12500000000E+03  0.12500000000E+03 0.  0.
        -11    1    1    0    0    0 -0.51679545094E+02 -0.11237930882E+02 -0.22831232332E+02  0.57604961954E+02  0.51100000000E-03 0.  1.
         11    1    1    0    0    0 -0.35822169684E+01 -0.28867340407E+01 -0.22076566953E+01  0.51028678384E+01  0.51100000000E-03 0. -1.
         22    1    1    0    0    0  0.55261762063E+02  0.14124664923E+02  0.25038889027E+02  0.62292170208E+02  0.00000000000E+00 0.  1.
</event>
<event>
 4    1  0.1964735E-002  0.9118800E+02  0.7818608E-02  0.1130116E+00
         25   -1    0    0    0    0  0.00000000000E+00  0.00000000000E+00  0.99999998245E-14  0.12500000000E+03  0.12500000000E+03 0.  0.
        -11    1    1    0    0    0 -0.21704485492E+02 -0.86530647734E+01  0.32565032859E+02  0.40080438942E+02  0.51100000000E-03 0.  1.
         11    1    1    0    0    0 -0.10074864960E+02 -0.92781477353E+01  0.17965894778E+02  0.22591155455E+02  0.51100000000E-03 0. -1.
         22    1    1    0    0    0  0.31779350452E+02  0.17931212509E+02 -0.50530927636E+02  0.62328405603E+02  0.00000000000E+00 0. -1.
</event>
<event>
 4    1  0.1964735E-002  0.9118800E+02  0.7818608E-02  0.1130116E+00
         25   -1    0    0    0    0  0.00000000000E+00  0.00000000000E+00  0.99999998245E-14  0.12500000000E+03  0.12500000000E+03 0.  0.
        -11    1    1    0    0    0  0.18029660361E+02  0.44826084220E+02 -0.92958367460E+01  0.49202226172E+02  0.51100000000E-03 0.  1.
         11    1    1    0    0    0  0.48770795241E+01  0.12100020516E+02 -0.25760590702E+01  0.13297837485E+02  0.51100000000E-03 0. -1.
         22    1    1    0    0    0 -0.22906739886E+02 -0.56926104736E+02  0.11871895816E+02  0.62499936343E+02  0.00000000000E+00 0.  1.
</event>
<event>
 4    1  0.1964735E-002  0.9118800E+02  0.7818608E-02  0.1130116E+00
         25   -1    0    0    0    0  0.00000000000E+00  0.00000000000E+00  0.99999998245E-14  0.12500000000E+03  0.12500000000E+03 0.  0.
        -11    1    1    0    0    0 -0.17025486709E+02 -0.38140327491E+02 -0.29276784155E+02  0.51006684557E+02  0.51100000000E-03 0. -1.
         11    1    1    0    0    0 -0.38369145789E+01 -0.85937917045E+01 -0.65970546919E+01  0.11493315458E+02  0.51100000000E-03 0. -1.
         22    1    1    0    0    0  0.20862401288E+02  0.46734119196E+02  0.35873838847E+02  0.62499999985E+02  0.00000000000E+00 0. -1.
</event>
<event>
 4    1  0.1964735E-002  0.9118800E+02  0.7818608E-02  0.1130116E+00
         25   -1    0    0    0    0  0.00000000000E+00  0.00000000000E+00  0.99999998245E-14  0.12500000000E+03  0.12500000000E+03 0.  0.
        -11    1    1    0    0    0 -0.37314920411E+01 -0.12856400141E+01  0.11994076736E+02  0.12626748596E+02  0.51100000000E-03 0. -1.
         11    1    1    0    0    0 -0.14738065189E+02 -0.51011969490E+01  0.47372022175E+02  0.49873251960E+02  0.51100000000E-03 0.  1.
         22    1    1    0    0    0  0.18469557230E+02  0.63868369632E+01 -0.59366098911E+02  0.62499999444E+02  0.00000000000E+00 0.  1.
</event>
<event>
 4    1  0.1964735E-002  0.9118800E+02  0.7818608E-02  0.1130116E+00
         25   -1    0    0    0    0  0.00000000000E+00  0.00000000000E+00  0.99999998245E-14  0.12500000000E+03  0.12500000000E+03 0.  0.
        -11    1    1    0    0    0  0.15770317602E+02  0.43384661398E+02  0.57359100540E+01  0.46517012224E+02  0.51100000000E-03 0.  1.
         11    1    1    0    0    0  0.50440552417E+01  0.15120571429E+02 -0.36404304587E+01  0.16350134794E+02  0.51100000000E-03 0. -1.
         22    1    1    0    0    0 -0.20814372843E+02 -0.58505232826E+02 -0.20954795953E+01  0.62132852982E+02  0.00000000000E+00 0.  1.
</event>
<event>
 4    1  0.1964735E-002  0.9118800E+02  0.7818608E-02  0.1130116E+00
         25   -1    0    0    0    0  0.00000000000E+00  0.00000000000E+00  0.99999998245E-14  0.12500000000E+03  0.12500000000E+03 0.  0.
        -11    1    1    0    0    0  0.75634282415E+01  0.35738377104E+02 -0.29033102865E+01  0.36645139591E+02  0.51100000000E-03 0.  1.
         11    1    1    0    0    0  0.50826581599E+01  0.25380096009E+02  0.24434920969E+00  0.25885177114E+02  0.51100000000E-03 0. -1.
         22    1    1    0    0    0 -0.12646086401E+02 -0.61118473113E+02  0.26589610768E+01  0.62469683295E+02  0.00000000000E+00 0.  1.
</event>
<event>
 4    1  0.1964735E-002  0.9118800E+02  0.7818608E-02  0.1130116E+00
         25   -1    0    0    0    0  0.00000000000E+00  0.00000000000E+00  0.99999998245E-14  0.12500000000E+03  0.12500000000E+03 0.  0.
        -11    1    1    0    0    0  0.19494236870E+02 -0.14008813144E+02 -0.38412210210E+02  0.45296467967E+02  0.51100000000E-03 0.  1.
         11    1    1    0    0    0  0.13199566130E+02  0.91909967471E+01 -0.11549508460E+02  0.19801366447E+02  0.51100000000E-03 0. -1.
         22    1    1    0    0    0 -0.32693802999E+02  0.48178163968E+01  0.49961718670E+02  0.59902165586E+02  0.00000000000E+00 0. -1.
</event>
<event>
 4    1  0.1964735E-002  0.9118800E+02  0.7818608E-02  0.1130116E+00
         25   -1    0    0    0    0  0.00000000000E+00  0.00000000000E+00  0.99999998245E-14  0.12500000000E+03  0.12500000000E+03 0.  0.
        -11    1    1    0    0    0  0.38980282863E+02  0.33648165721E+02  0.15944459115E+02  0.53906282428E+02  0.51100000000E-03 0. -1.
         11    1    1    0    0    0  0.56032448485E+01  0.57413606701E+01  0.31416834171E+01  0.86156688731E+01  0.51100000000E-03 0.  1.
         22    1    1    0    0    0 -0.44583527712E+02 -0.39389526391E+02 -0.19086142532E+02  0.62478048699E+02  0.00000000000E+00 0. -1.
</event>
<event>
 4    1  0.1964735E-002  0.9118800E+02  0.7818608E-02  0.1130116E+00
         25   -1    0    0    0    0  0.00000000000E+00  0.00000000000E+00  0.99999998245E-14  0.12500000000E+03  0.12500000000E+03 0.  0.
        -11    1    1    0    0    0 -0.23269208773E+01 -0.72927306469E+01  0.11652298653E+02  0.13941827183E+02  0.51100000000E-03 0. -1.
         11    1    1    0    0    0 -0.24190384760E+02 -0.44998244187E+02  0.91315886982E+00  0.51096482796E+02  0.51100000000E-03 0.  1.
         22    1    1    0    0    0  0.26517305637E+02  0.52290974834E+02 -0.12565457522E+02  0.59961690020E+02  0.00000000000E+00 0.  1.
</event>
<event>
 4    1  0.1964735E-002  0.9118800E+02  0.7818608E-02  0.1130116E+00
         25   -1    0    0    0    0  0.00000000000E+00  0.00000000000E+00  0.99999998245E-14  0.12500000000E+03  0.12500000000E+03 0.  0.
        -11    1    1    0    0    0 -0.36945538104E+02 -0.42537388527E+02 -0.16586287238E+01  0.56366242185E+02  0.51100000000E-03 0. -1.
         11    1    1    0    0    0 -0.41144705417E+01 -0.45483227149E+01 -0.12352841492E+00  0.61344410411E+01  0.51100000000E-03 0.  1.
         22    1    1    0    0    0  0.41060008646E+02  0.47085711242E+02  0.17821571387E+01  0.62499316774E+02  0.00000000000E+00 0. -1.
</event>
<event>
 4    1  0.1964735E-002  0.9118800E+02  0.7818608E-02  0.1130116E+00
         25   -1    0    0    0    0  0.00000000000E+00  0.00000000000E+00  0.99999998245E-14  0.12500000000E+03  0.12500000000E+03 0.  0.
        -11    1    1    0    0    0 -0.63961460881E+01 -0.52046707327E+02 -0.27570759126E+02  0.59244554073E+02  0.51100000000E-03 0. -1.
         11    1    1    0    0    0 -0.65891368760E+00 -0.26540942946E+01 -0.17949066479E+01  0.32710967439E+01  0.51100000000E-03 0.  1.
         22    1    1    0    0    0  0.70550597757E+01  0.54700801621E+02  0.29365665774E+02  0.62484349183E+02  0.00000000000E+00 0. -1.
</event>
<event>
 4    1  0.1964735E-002  0.9118800E+02  0.7818608E-02  0.1130116E+00
         25   -1    0    0    0    0  0.00000000000E+00  0.00000000000E+00  0.99999998245E-14  0.12500000000E+03  0.12500000000E+03 0.  0.
        -11    1    1    0    0    0  0.50356616511E+02 -0.23388490527E+02  0.12031709751E+02  0.56811727270E+02  0.51100000000E-03 0. -1.
         11    1    1    0    0    0 -0.33287688352E+02 -0.27418117287E+01  0.30210650713E+01  0.33536764331E+02  0.51100000000E-03 0.  1.
         22    1    1    0    0    0 -0.17068928158E+02  0.26130302256E+02 -0.15052774823E+02  0.34651508399E+02  0.00000000000E+00 0. -1.
</event>
<event>
 4    1  0.1964735E-002  0.9118800E+02  0.7818608E-02  0.1130116E+00
         25   -1    0    0    0    0  0.00000000000E+00  0.00000000000E+00  0.99999998245E-14  0.12500000000E+03  0.12500000000E+03 0.  0.
        -11    1    1    0    0    0 -0.11791455227E+02  0.10130777861E+01 -0.69683898434E+01  0.13734016173E+02  0.51100000000E-03 0.  1.
         11    1    1    0    0    0 -0.47468816014E+02  0.95335838067E+01 -0.84084820693E+01  0.49141431450E+02  0.51100000000E-03 0. -1.
         22    1    1    0    0    0  0.59260271241E+02 -0.10546661593E+02  0.15376871913E+02  0.62124552377E+02  0.00000000000E+00 0. -1.
</event>
<event>
 4    1  0.1964735E-002  0.9118800E+02  0.7818608E-02  0.1130116E+00
         25   -1    0    0    0    0  0.00000000000E+00  0.00000000000E+00  0.99999998245E-14  0.12500000000E+03  0.12500000000E+03 0.  0.
        -11    1    1    0    0    0  0.30186232005E+02  0.12542263201E+01 -0.78400202751E+00  0.30222447713E+02  0.51100000000E-03 0. -1.
         11    1    1    0    0    0  0.32238877061E+02  0.13383070012E+01 -0.83912037222E+00  0.32277552309E+02  0.51100000000E-03 0. -1.
         22    1    1    0    0    0 -0.62425109066E+02 -0.25925333213E+01  0.16231223997E+01  0.62499999978E+02  0.00000000000E+00 0. -1.
</event>
<event>
 4    1  0.1964735E-002  0.9118800E+02  0.7818608E-02  0.1130116E+00
         25   -1    0    0    0    0  0.00000000000E+00  0.00000000000E+00  0.99999998245E-14  0.12500000000E+03  0.12500000000E+03 0.  0.
        -11    1    1    0    0    0  0.35796177608E+00  0.65808213973E+01  0.60436177814E+00  0.66182021967E+01  0.51100000000E-03 0. -1.
         11    1    1    0    0    0  0.30343719634E+01  0.55567343668E+02  0.50831348232E+01  0.55881798069E+02  0.51100000000E-03 0.  1.
         22    1    1    0    0    0 -0.33923337394E+01 -0.62148165065E+02 -0.56874966014E+01  0.62499999734E+02  0.00000000000E+00 0.  1.
</event>
<event>
 4    1  0.1964735E-002  0.9118800E+02  0.7818608E-02  0.1130116E+00
         25   -1    0    0    0    0  0.00000000000E+00  0.00000000000E+00  0.99999998245E-14  0.12500000000E+03  0.12500000000E+03 0.  0.
        -11    1    1    0    0    0  0.22473389158E+02  0.66377032722E+01  0.29527396159E+01  0.23618446106E+02  0.51100000000E-03 0. -1.
         11    1    1    0    0    0  0.36921037425E+02  0.11125161280E+02  0.49854210804E+01  0.38881700602E+02  0.51100000000E-03 0.  1.
         22    1    1    0    0    0 -0.59394426583E+02 -0.17762864552E+02 -0.79381606962E+01  0.62499853292E+02  0.00000000000E+00 0. -1.
</event>
<event>
 4    1  0.1964735E-002  0.9118800E+02  0.7818608E-02  0.1130116E+00
         25   -1    0    0    0    0  0.00000000000E+00  0.00000000000E+00  0.99999998245E-14  0.12500000000E+03  0.12500000000E+03 0.  0.
        -11    1    1    0    0    0  0.11275930263E+01  0.11493226184E+02  0.98037978757E+01  0.15148602814E+02  0.51100000000E-03 0.  1.
         11    1    1    0    0    0  0.35247040095E+01  0.35926935807E+02  0.30642887618E+02  0.47351397199E+02  0.51100000000E-03 0. -1.
         22    1    1    0    0    0 -0.46522970357E+01 -0.47420161991E+02 -0.40446685494E+02  0.62499999988E+02  0.00000000000E+00 0. -1.
</event>
<event>
 4    1  0.1964735E-002  0.9118800E+02  0.7818608E-02  0.1130116E+00
         25   -1    0    0    0    0  0.00000000000E+00  0.00000000000E+00  0.99999998245E-14  0.12500000000E+03  0.12500000000E+03 0.  0.
        -11    1    1    0    0    0 -0.53806138115E+01 -0.29023249306E+02 -0.71574138156E+01  0.30373155550E+02  0.51100000000E-03 0.  1.
         11    1    1    0    0    0 -0.56644507525E+01 -0.30676885573E+02 -0.76798446239E+01  0.32126894100E+02  0.51100000000E-03 0. -1.
         22    1    1    0    0    0  0.11045064564E+02  0.59700134879E+02  0.14837258440E+02  0.62499950350E+02  0.00000000000E+00 0. -1.
</event>
<event>
 4    1  0.1964735E-002  0.9118800E+02  0.7818608E-02  0.1130116E+00
         25   -1    0    0    0    0  0.00000000000E+00  0.00000000000E+00  0.99999998245E-14  0.12500000000E+03  0.12500000000E+03 0.  0.
        -11    1    1    0    0    0  0.10950929563E+02 -0.10366216213E+02  0.17114013305E+02  0.22809444283E+02  0.51100000000E-03 0. -1.
         11    1    1    0    0    0  0.19063600976E+02 -0.18020316738E+02  0.29785694409E+02  0.39690556676E+02  0.51100000000E-03 0.  1.
         22    1    1    0    0    0 -0.30014530539E+02  0.28386532951E+02 -0.46899707714E+02  0.62499999041E+02  0.00000000000E+00 0.  1.
</event>
<event>
 4    1  0.1964735E-002  0.9118800E+02  0.7818608E-02  0.1130116E+00
         25   -1    0    0    0    0  0.00000000000E+00  0.00000000000E+00  0.99999998245E-14  0.12500000000E+03  0.12500000000E+03 0.  0.
        -11    1    1    0    0    0 -0.26285965954E+01  0.30119611957E+01  0.47140900340E+01  0.61809445407E+01  0.51100000000E-03 0. -1.
         11    1    1    0    0    0 -0.25238463416E+02  0.26377789336E+02  0.42885972244E+02  0.56320284280E+02  0.51100000000E-03 0.  1.
         22    1    1    0    0    0  0.27867060011E+02 -0.29389750532E+02 -0.47600062278E+02  0.62498771179E+02  0.00000000000E+00 0.  1.
</event>
<event>
 4    1  0.1964735E-002  0.9118800E+02  0.7818608E-02  0.1130116E+00
         25   -1    0    0    0    0  0.00000000000E+00  0.00000000000E+00  0.99999998245E-14  0.12500000000E+03  0.12500000000E+03 0.  0.
        -11    1    1    0    0    0 -0.97217366322E+01  0.16597612522E+02 -0.98417399950E+01  0.21606775580E+02  0.51100000000E-03 0.  1.
         11    1    1    0    0    0 -0.18414403656E+02  0.31411159749E+02 -0.18614635332E+02  0.40893225204E+02  0.51100000000E-03 0. -1.
         22    1    1    0    0    0  0.28136140289E+02 -0.48008772271E+02  0.28456375327E+02  0.62499999216E+02  0.00000000000E+00 0. -1.
</event>
<event>
 4    1  0.1964735E-002  0.9118800E+02  0.7818608E-02  0.1130116E+00
         25   -1    0    0    0    0  0.00000000000E+00  0.00000000000E+00  0.99999998245E-14  0.12500000000E+03  0.12500000000E+03 0.  0.
        -11    1    1    0    0    0 -0.35023984497E+02  0.34572916127E+02 -0.15454395433E+02  0.51582985160E+02  0.51100000000E-03 0. -1.
         11    1    1    0    0    0 -0.76928839979E+01  0.70722768755E+01 -0.31693939106E+01  0.10919827033E+02  0.51100000000E-03 0.  1.
         22    1    1    0    0    0  0.42716868495E+02 -0.41645193003E+02  0.18623789344E+02  0.62497187807E+02  0.00000000000E+00 0. -1.
</event>
<event>
 4    1  0.1964735E-002  0.9118800E+02  0.7818608E-02  0.1130116E+00
         25   -1    0    0    0    0  0.00000000000E+00  0.00000000000E+00  0.99999998245E-14  0.12500000000E+03  0.12500000000E+03 0.  0.
        -11    1    1    0    0    0 -0.12825484374E+02 -0.53498841165E+01  0.15912004981E+01  0.13987359607E+02  0.51100000000E-03 0.  1.
         11    1    1    0    0    0 -0.44490836416E+02 -0.18536756121E+02  0.55163820778E+01  0.48512640868E+02  0.51100000000E-03 0. -1.
         22    1    1    0    0    0  0.57316320789E+02  0.23886640238E+02 -0.71075825759E+01  0.62499999526E+02  0.00000000000E+00 0. -1.
</event>
<event>
 4    1  0.1964735E-002  0.9118800E+02  0.7818608E-02  0.1130116E+00
         25   -1    0    0    0    0  0.00000000000E+00  0.00000000000E+00  0.99999998245E-14  0.12500000000E+03  0.12500000000E+03 0.  0.
        -11    1    1    0    0    0  0.48304853735E+01 -0.26827453363E+01  0.46010059694E+01  0.71902689570E+01  0.51100000000E-03 0.  1.
         11    1    1    0    0    0  0.36865362367E+02 -0.20598184135E+02  0.35718865401E+02  0.55309831657E+02  0.51100000000E-03 0. -1.
         22    1    1    0    0    0 -0.41695847741E+02  0.23280929472E+02 -0.40319871370E+02  0.62499899386E+02  0.00000000000E+00 0. -1.
</event>
<event>
 4    1  0.1964735E-002  0.9118800E+02  0.7818608E-02  0.1130116E+00
         25   -1    0    0    0    0  0.00000000000E+00  0.00000000000E+00  0.99999998245E-14  0.12500000000E+03  0.12500000000E+03 0.  0.
        -11    1    1    0    0    0  0.22287322238E+01 -0.26122580063E+01  0.76525531752E+00  0.35180612813E+01  0.51100000000E-03 0.  1.
         11    1    1    0    0    0  0.37353566585E+02 -0.43801780808E+02  0.12844616376E+02  0.58981938834E+02  0.51100000000E-03 0. -1.
         22    1    1    0    0    0 -0.39582298809E+02  0.46414038814E+02 -0.13609871693E+02  0.62499999884E+02  0.00000000000E+00 0. -1.
</event>
<event>
 4    1  0.1964735E-002  0.9118800E+02  0.7818608E-02  0.1130116E+00
         25   -1    0    0    0    0  0.00000000000E+00  0.00000000000E+00  0.99999998245E-14  0.12500000000E+03  0.12500000000E+03 0.  0.
        -11    1    1    0    0    0  0.38482407612E+01  0.13446855385E+01 -0.86534622260E-01  0.40773305796E+01  0.51100000000E-03 0. -1.
         11    1    1    0    0    0  0.40927448204E+02 -0.18867213069E+02 -0.38499179751E+02  0.59272376258E+02  0.51100000000E-03 0.  1.
         22    1    1    0    0    0 -0.44775688965E+02  0.17522527531E+02  0.38585714374E+02  0.61650293163E+02  0.00000000000E+00 0.  1.
</event>
<event>
 4    1  0.1964735E-002  0.9118800E+02  0.7818608E-02  0.1130116E+00
         25   -1    0    0    0    0  0.00000000000E+00  0.00000000000E+00  0.99999998245E-14  0.12500000000E+03  0.12500000000E+03 0.  0.
        -11    1    1    0    0    0 -0.23644703931E+02 -0.40898579858E+02  0.55245718784E+00  0.47244799370E+02  0.51100000000E-03 0. -1.
         11    1    1    0    0    0 -0.11308480768E+01 -0.13760349644E+02  0.97004231588E+01  0.16873774012E+02  0.51100000000E-03 0.  1.
         22    1    1    0    0    0  0.24775552008E+02  0.54658929502E+02 -0.10252880347E+02  0.60881426617E+02  0.00000000000E+00 0. -1.
</event>
<event>
 4    1  0.1964735E-002  0.9118800E+02  0.7818608E-02  0.1130116E+00
         25   -1    0    0    0    0  0.00000000000E+00  0.00000000000E+00  0.99999998245E-14  0.12500000000E+03  0.12500000000E+03 0.  0.
        -11    1    1    0    0    0  0.30286335765E+02  0.11993120285E+02  0.21327244470E+02  0.38935182357E+02  0.51100000000E-03 0.  1.
         11    1    1    0    0    0  0.22230205888E+02  0.86385865780E+01  0.40597456248E+01  0.24192742025E+02  0.51100000000E-03 0. -1.
         22    1    1    0    0    0 -0.52516541653E+02 -0.20631706863E+02 -0.25386990094E+02  0.61872075618E+02  0.00000000000E+00 0. -1.
</event>
<event>
 4    1  0.1964735E-002  0.9118800E+02  0.7818608E-02  0.1130116E+00
         25   -1    0    0    0    0  0.00000000000E+00  0.00000000000E+00  0.99999998245E-14  0.12500000000E+03  0.12500000000E+03 0.  0.
        -11    1    1    0    0    0 -0.94489087798E+00  0.22727531962E+01 -0.17105482782E+00  0.24672830963E+01  0.51100000000E-03 0. -1.
         11    1    1    0    0    0 -0.22976272291E+02  0.55327504721E+02 -0.38583771445E+01  0.60032732251E+02  0.51100000000E-03 0.  1.
         22    1    1    0    0    0  0.23921163169E+02 -0.57600257918E+02  0.40294319724E+01  0.62499984652E+02  0.00000000000E+00 0.  1.
</event>
<event>
 4    1  0.1964735E-002  0.9118800E+02  0.7818608E-02  0.1130116E+00
         25   -1    0    0    0    0  0.00000000000E+00  0.00000000000E+00  0.99999998245E-14  0.12500000000E+03  0.12500000000E+03 0.  0.
        -11    1    1    0    0    0  0.52856087443E+02 -0.52885526532E+01  0.30889073933E+02  0.61448105403E+02  0.51100000000E-03 0.  1.
         11    1    1    0    0    0  0.90470538974E+00 -0.90449076181E-01  0.52897000369E+00  0.10518946732E+01  0.51100000000E-03 0.  1.
         22    1    1    0    0    0 -0.53760792833E+02  0.53790017294E+01 -0.31418043937E+02  0.62499999923E+02  0.00000000000E+00 0.  1.
</event>
<event>
 4    1  0.1964735E-002  0.9118800E+02  0.7818608E-02  0.1130116E+00
         25   -1    0    0    0    0  0.00000000000E+00  0.00000000000E+00  0.99999998245E-14  0.12500000000E+03  0.12500000000E+03 0.  0.
        -11    1    1    0    0    0 -0.24591014933E+02 -0.83566073069E+01  0.30147284691E+02  0.39792080564E+02  0.51100000000E-03 0.  1.
         11    1    1    0    0    0 -0.13782126226E+02 -0.48310387624E+01  0.17389535050E+02  0.22708629821E+02  0.51100000000E-03 0. -1.
         22    1    1    0    0    0  0.38373141159E+02  0.13187646069E+02 -0.47536819741E+02  0.62499289615E+02  0.00000000000E+00 0.  1.
</event>
<event>
 4    1  0.1964735E-002  0.9118800E+02  0.7818608E-02  0.1130116E+00
         25   -1    0    0    0    0  0.00000000000E+00  0.00000000000E+00  0.99999998245E-14  0.12500000000E+03  0.12500000000E+03 0.  0.
        -11    1    1    0    0    0 -0.30649006933E+02 -0.24077198025E+02  0.37760999959E+02  0.54267542867E+02  0.51100000000E-03 0. -1.
         11    1    1    0    0    0 -0.25035601121E+01  0.87796107332E+01  0.80357899563E+01  0.12162372233E+02  0.51100000000E-03 0.  1.
         22    1    1    0    0    0  0.33152567045E+02  0.15297587291E+02 -0.45796789915E+02  0.58570084899E+02  0.00000000000E+00 0. -1.
</event>
<event>
 4    1  0.1964735E-002  0.9118800E+02  0.7818608E-02  0.1130116E+00
         25   -1    0    0    0    0  0.00000000000E+00  0.00000000000E+00  0.99999998245E-14  0.12500000000E+03  0.12500000000E+03 0.  0.
        -11    1    1    0    0    0  0.22349030104E+01  0.24774709207E+02 -0.23485938801E+02  0.34210675664E+02  0.51100000000E-03 0.  1.
         11    1    1    0    0    0  0.20950411400E+01  0.20573198182E+02 -0.19304472155E+02  0.28289721212E+02  0.51100000000E-03 0. -1.
         22    1    1    0    0    0 -0.43299441503E+01 -0.45347907389E+02  0.42790410956E+02  0.62499603124E+02  0.00000000000E+00 0. -1.
</event>
<event>
 4    1  0.1964735E-002  0.9118800E+02  0.7818608E-02  0.1130116E+00
         25   -1    0    0    0    0  0.00000000000E+00  0.00000000000E+00  0.99999998245E-14  0.12500000000E+03  0.12500000000E+03 0.  0.
        -11    1    1    0    0    0  0.27906424289E+01 -0.54719682367E+01 -0.16486210258E+01  0.63598799594E+01  0.51100000000E-03 0.  1.
         11    1    1    0    0    0  0.25326716455E+02 -0.47663830481E+02 -0.15443942753E+02  0.56140882345E+02  0.51100000000E-03 0. -1.
         22    1    1    0    0    0 -0.28117358884E+02  0.53135798718E+02  0.17092563779E+02  0.62499237695E+02  0.00000000000E+00 0. -1.
</event>
<event>
 4    1  0.1964735E-002  0.9118800E+02  0.7818608E-02  0.1130116E+00
         25   -1    0    0    0    0  0.00000000000E+00  0.00000000000E+00  0.99999998245E-14  0.12500000000E+03  0.12500000000E+03 0.  0.
        -11    1    1    0    0    0  0.78165489555E+01 -0.30649815616E+02  0.31373379257E+01  0.31786042918E+02  0.51100000000E-03 0.  1.
         11    1    1    0    0    0  0.76878513000E+01 -0.29696259489E+02  0.16860882904E+01  0.30721552357E+02  0.51100000000E-03 0. -1.
         22    1    1    0    0    0 -0.15504400256E+02  0.60346075105E+02 -0.48234262161E+01  0.62492404725E+02  0.00000000000E+00 0. -1.
</event>
<event>
 4    1  0.1964735E-002  0.9118800E+02  0.7818608E-02  0.1130116E+00
         25   -1    0    0    0    0  0.00000000000E+00  0.00000000000E+00  0.99999998245E-14  0.12500000000E+03  0.12500000000E+03 0.  0.
        -11    1    1    0    0    0  0.73934354139E+01 -0.57011977459E+02 -0.12450049524E+02  0.58822038339E+02  0.51100000000E-03 0.  1.
         11    1    1    0    0    0 -0.12869944023E+01 -0.32437270979E+01 -0.18479146698E+01  0.39487857583E+01  0.51100000000E-03 0. -1.
         22    1    1    0    0    0 -0.61064410116E+01  0.60255704556E+02  0.14297964194E+02  0.62229175903E+02  0.00000000000E+00 0.  1.
</event>
<event>
 4    1  0.1964735E-002  0.9118800E+02  0.7818608E-02  0.1130116E+00
         25   -1    0    0    0    0  0.00000000000E+00  0.00000000000E+00  0.99999998245E-14  0.12500000000E+03  0.12500000000E+03 0.  0.
        -11    1    1    0    0    0 -0.26031284678E+02 -0.24561093604E+02 -0.39953110987E+02  0.53638849529E+02  0.51100000000E-03 0. -1.
         11    1    1    0    0    0 -0.68479491960E+01 -0.58912161412E+01  0.20700486926E+02  0.22585636919E+02  0.51100000000E-03 0.  1.
         22    1    1    0    0    0  0.32879233874E+02  0.30452309745E+02  0.19252624062E+02  0.48775513552E+02  0.00000000000E+00 0. -1.
</event>
<event>
 4    1  0.1964735E-002  0.9118800E+02  0.7818608E-02  0.1130116E+00
         25   -1    0    0    0    0  0.00000000000E+00  0.00000000000E+00  0.99999998245E-14  0.12500000000E+03  0.12500000000E+03 0.  0.
        -11    1    1    0    0    0 -0.29755507931E+02 -0.43124234670E+02  0.20661445521E+02  0.56320379965E+02  0.51100000000E-03 0. -1.
         11    1    1    0    0    0 -0.12854524380E+01 -0.33641450496E+01  0.58051277379E+01  0.68314982397E+01  0.51100000000E-03 0.  1.
         22    1    1    0    0    0  0.31040960369E+02  0.46488379720E+02 -0.26466573258E+02  0.61848121796E+02  0.00000000000E+00 0. -1.
</event>
<event>
 4    1  0.1964735E-002  0.9118800E+02  0.7818608E-02  0.1130116E+00
         25   -1    0    0    0    0  0.00000000000E+00  0.00000000000E+00  0.99999998245E-14  0.12500000000E+03  0.12500000000E+03 0.  0.
        -11    1    1    0    0    0 -0.86017852920E+01 -0.19283394311E+01 -0.28787800933E+02  0.30107253046E+02  0.51100000000E-03 0.  1.
         11    1    1    0    0    0 -0.35354563445E+01 -0.16434506672E+01 -0.32286859631E+02  0.32521403518E+02  0.51100000000E-03 0. -1.
         22    1    1    0    0    0  0.12137241636E+02  0.35717900983E+01  0.61074660564E+02  0.62371343436E+02  0.00000000000E+00 0.  1.
</event>
<event>
 4    1  0.1964735E-002  0.9118800E+02  0.7818608E-02  0.1130116E+00
         25   -1    0    0    0    0  0.00000000000E+00  0.00000000000E+00  0.99999998245E-14  0.12500000000E+03  0.12500000000E+03 0.  0.
        -11    1    1    0    0    0  0.17198006098E+02 -0.18709674810E+02 -0.13315983010E+02  0.28690394717E+02  0.51100000000E-03 0.  1.
         11    1    1    0    0    0  0.20258194327E+02 -0.22055918984E+02 -0.15691763458E+02  0.33809605740E+02  0.51100000000E-03 0. -1.
         22    1    1    0    0    0 -0.37456200425E+02  0.40765593794E+02  0.29007746469E+02  0.62499999543E+02  0.00000000000E+00 0. -1.
</event>
<event>
 4    1  0.1964735E-002  0.9118800E+02  0.7818608E-02  0.1130116E+00
         25   -1    0    0    0    0  0.00000000000E+00  0.00000000000E+00  0.99999998245E-14  0.12500000000E+03  0.12500000000E+03 0.  0.
        -11    1    1    0    0    0 -0.15155523343E+02 -0.39607436934E+02 -0.30273975209E+02  0.52105206299E+02  0.51100000000E-03 0.  1.
         11    1    1    0    0    0 -0.30227981039E+01 -0.79020082357E+01 -0.60392626842E+01  0.10394793724E+02  0.51100000000E-03 0.  1.
         22    1    1    0    0    0  0.18178321446E+02  0.47509445169E+02  0.36313237893E+02  0.62499999977E+02  0.00000000000E+00 0.  1.
</event>
<event>
 4    1  0.1964735E-002  0.9118800E+02  0.7818608E-02  0.1130116E+00
         25   -1    0    0    0    0  0.00000000000E+00  0.00000000000E+00  0.99999998245E-14  0.12500000000E+03  0.12500000000E+03 0.  0.
        -11    1    1    0    0    0  0.24947732992E+01  0.16452483896E+01 -0.23451749566E+01  0.37987605763E+01  0.51100000000E-03 0.  1.
         11    1    1    0    0    0  0.38491149217E+02  0.25534032251E+02 -0.36225414096E+02  0.58701243579E+02  0.51100000000E-03 0. -1.
         22    1    1    0    0    0 -0.40985922516E+02 -0.27179280641E+02  0.38570589053E+02  0.62499995844E+02  0.00000000000E+00 0. -1.
</event>
<event>
 4    1  0.1964735E-002  0.9118800E+02  0.7818608E-02  0.1130116E+00
         25   -1    0    0    0    0  0.00000000000E+00  0.00000000000E+00  0.99999998245E-14  0.12500000000E+03  0.12500000000E+03 0.  0.
        -11    1    1    0    0    0  0.12062311310E+02 -0.15139443820E+01  0.56069789607E+01  0.13387665781E+02  0.51100000000E-03 0.  1.
         11    1    1    0    0    0  0.44259740833E+02 -0.55402512965E+01  0.20552430241E+02  0.49112334827E+02  0.51100000000E-03 0. -1.
         22    1    1    0    0    0 -0.56322052143E+02  0.70541956785E+01 -0.26159409201E+02  0.62499999393E+02  0.00000000000E+00 0. -1.
</event>
<event>
 4    1  0.1964735E-002  0.9118800E+02  0.7818608E-02  0.1130116E+00
         25   -1    0    0    0    0  0.00000000000E+00  0.00000000000E+00  0.99999998245E-14  0.12500000000E+03  0.12500000000E+03 0.  0.
        -11    1    1    0    0    0  0.16942980328E+02 -0.19425302952E+02  0.24378506369E+02  0.35478423728E+02  0.51100000000E-03 0. -1.
         11    1    1    0    0    0  0.13021293396E+02 -0.14835260769E+02  0.18453578682E+02  0.27021724783E+02  0.51100000000E-03 0.  1.
         22    1    1    0    0    0 -0.29964273724E+02  0.34260563721E+02 -0.42832085052E+02  0.62499851489E+02  0.00000000000E+00 0. -1.
</event>
<event>
 4    1  0.1964735E-002  0.9118800E+02  0.7818608E-02  0.1130116E+00
         25   -1    0    0    0    0  0.00000000000E+00  0.00000000000E+00  0.99999998245E-14  0.12500000000E+03  0.12500000000E+03 0.  0.
        -11    1    1    0    0    0 -0.40618146899E+01 -0.16293120956E+02 -0.63315206128E+01  0.17945815183E+02  0.51100000000E-03 0.  1.
         11    1    1    0    0    0 -0.10231229239E+02 -0.40523524143E+02 -0.15435567255E+02  0.44554357783E+02  0.51100000000E-03 0. -1.
         22    1    1    0    0    0  0.14293043929E+02  0.56816645099E+02  0.21767087868E+02  0.62499827034E+02  0.00000000000E+00 0. -1.
</event>
<event>
 4    1  0.1964735E-002  0.9118800E+02  0.7818608E-02  0.1130116E+00
         25   -1    0    0    0    0  0.00000000000E+00  0.00000000000E+00  0.99999998245E-14  0.12500000000E+03  0.12500000000E+03 0.  0.
        -11    1    1    0    0    0 -0.16736247007E+01 -0.69491794784E+00 -0.47378105650E+01  0.50725516069E+01  0.51100000000E-03 0. -1.
         11    1    1    0    0    0 -0.24732257720E+02 -0.13904045560E+02 -0.49962890718E+02  0.57456918679E+02  0.51100000000E-03 0.  1.
         22    1    1    0    0    0  0.26405882421E+02  0.14598963508E+02  0.54700701283E+02  0.62470529714E+02  0.00000000000E+00 0.  1.
</event>
<event>
 4    1  0.1964735E-002  0.9118800E+02  0.7818608E-02  0.1130116E+00
         25   -1    0    0    0    0  0.00000000000E+00  0.00000000000E+00  0.99999998245E-14  0.12500000000E+03  0.12500000000E+03 0.  0.
        -11    1    1    0    0    0 -0.34834370821E+01  0.48295762231E+00  0.10426658047E+01  0.36680695483E+01  0.51100000000E-03 0. -1.
         11    1    1    0    0    0 -0.55835691941E+02  0.77413013999E+01  0.16841741276E+02  0.58831934282E+02  0.51100000000E-03 0.  1.
         22    1    1    0    0    0  0.59319129023E+02 -0.82242590222E+01 -0.17884407081E+02  0.62499996169E+02  0.00000000000E+00 0.  1.
</event>
<event>
 4    1  0.1964735E-002  0.9118800E+02  0.7818608E-02  0.1130116E+00
         25   -1    0    0    0    0  0.00000000000E+00  0.00000000000E+00  0.99999998245E-14  0.12500000000E+03  0.12500000000E+03 0.  0.
        -11    1    1    0    0    0  0.77302007757E+01 -0.19083639601E+02 -0.19179148187E+02  0.28138603908E+02  0.51100000000E-03 0. -1.
         11    1    1    0    0    0  0.94438462747E+01 -0.23304208242E+02 -0.23418650513E+02  0.34361396164E+02  0.51100000000E-03 0.  1.
         22    1    1    0    0    0 -0.17174047050E+02  0.42387847843E+02  0.42597798700E+02  0.62499999928E+02  0.00000000000E+00 0. -1.
</event>
<event>
 4    1  0.1964735E-002  0.9118800E+02  0.7818608E-02  0.1130116E+00
         25   -1    0    0    0    0  0.00000000000E+00  0.00000000000E+00  0.99999998245E-14  0.12500000000E+03  0.12500000000E+03 0.  0.
        -11    1    1    0    0    0  0.10902428307E+02 -0.50789985094E+01  0.18131646417E+01  0.12163335691E+02  0.51100000000E-03 0. -1.
         11    1    1    0    0    0  0.45115965007E+02 -0.21023069370E+02  0.75073319879E+01  0.50336664352E+02  0.51100000000E-03 0.  1.
         22    1    1    0    0    0 -0.56018393315E+02  0.26102067879E+02 -0.93204966296E+01  0.62499999957E+02  0.00000000000E+00 0.  1.
</event>
<event>
 4    1  0.1964735E-002  0.9118800E+02  0.7818608E-02  0.1130116E+00
         25   -1    0    0    0    0  0.00000000000E+00  0.00000000000E+00  0.99999998245E-14  0.12500000000E+03  0.12500000000E+03 0.  0.
        -11    1    1    0    0    0 -0.50092363860E+02 -0.31688854990E+02 -0.19556113983E+02  0.62416905098E+02  0.51100000000E-03 0. -1.
         11    1    1    0    0    0  0.17390115360E+02  0.92160579788E+01  0.80999858865E+01  0.21282894740E+02  0.51100000000E-03 0.  1.
         22    1    1    0    0    0  0.32702248500E+02  0.22472797011E+02  0.11456128096E+02  0.41300200162E+02  0.00000000000E+00 0. -1.
</event>
<event>
 4    1  0.1964735E-002  0.9118800E+02  0.7818608E-02  0.1130116E+00
         25   -1    0    0    0    0  0.00000000000E+00  0.00000000000E+00  0.99999998245E-14  0.12500000000E+03  0.12500000000E+03 0.  0.
        -11    1    1    0    0    0  0.64312707264E+01  0.23551217606E+01  0.45607413474E+01  0.82284994721E+01  0.51100000000E-03 0.  1.
         11    1    1    0    0    0  0.44332454834E+02  0.62605835569E+01  0.30769624948E+02  0.54326156479E+02  0.51100000000E-03 0. -1.
         22    1    1    0    0    0 -0.50763725560E+02 -0.86157053175E+01 -0.35330366295E+02  0.62445344049E+02  0.00000000000E+00 0. -1.
</event>
<event>
 4    1  0.1964735E-002  0.9118800E+02  0.7818608E-02  0.1130116E+00
         25   -1    0    0    0    0  0.00000000000E+00  0.00000000000E+00  0.99999998245E-14  0.12500000000E+03  0.12500000000E+03 0.  0.
        -11    1    1    0    0    0 -0.24274284576E+02  0.44618294958E+02 -0.30681256105E+02  0.59341154464E+02  0.51100000000E-03 0. -1.
         11    1    1    0    0    0  0.12564365022E+02 -0.18600681321E+01  0.12254101145E+02  0.17648969290E+02  0.51100000000E-03 0.  1.
         22    1    1    0    0    0  0.11709919554E+02 -0.42758226826E+02  0.18427154960E+02  0.48009876247E+02  0.00000000000E+00 0. -1.
</event>
<event>
 4    1  0.1964735E-002  0.9118800E+02  0.7818608E-02  0.1130116E+00
         25   -1    0    0    0    0  0.00000000000E+00  0.00000000000E+00  0.99999998245E-14  0.12500000000E+03  0.12500000000E+03 0.  0.
        -11    1    1    0    0    0  0.26200219067E+00  0.42828981181E+01 -0.51127102977E+01  0.66747036105E+01  0.51100000000E-03 0.  1.
         11    1    1    0    0    0  0.21789768033E+01  0.35821977695E+02 -0.42760983387E+02  0.55825296474E+02  0.51100000000E-03 0. -1.
         22    1    1    0    0    0 -0.24409789940E+01 -0.40104875813E+02  0.47873693685E+02  0.62499999916E+02  0.00000000000E+00 0. -1.
</event>
<event>
 4    1  0.1964735E-002  0.9118800E+02  0.7818608E-02  0.1130116E+00
         25   -1    0    0    0    0  0.00000000000E+00  0.00000000000E+00  0.99999998245E-14  0.12500000000E+03  0.12500000000E+03 0.  0.
        -11    1    1    0    0    0  0.14892176973E+01 -0.31812523453E+02  0.26290754431E+00  0.31848446405E+02  0.51100000000E-03 0.  1.
         11    1    1    0    0    0  0.14618199422E+01 -0.30617019575E+02 -0.49333564031E-01  0.30651936958E+02  0.51100000000E-03 0. -1.
         22    1    1    0    0    0 -0.29510376395E+01  0.62429543028E+02 -0.21357398028E+00  0.62499616637E+02  0.00000000000E+00 0. -1.
</event>
<event>
 4    1  0.1964735E-002  0.9118800E+02  0.7818608E-02  0.1130116E+00
         25   -1    0    0    0    0  0.00000000000E+00  0.00000000000E+00  0.99999998245E-14  0.12500000000E+03  0.12500000000E+03 0.  0.
        -11    1    1    0    0    0  0.97817691073E+01  0.59808613774E+01 -0.48856759303E+01  0.12462886473E+02  0.51100000000E-03 0. -1.
         11    1    1    0    0    0  0.39008681628E+02  0.24856017731E+02 -0.19087157736E+02  0.50038169935E+02  0.51100000000E-03 0.  1.
         22    1    1    0    0    0 -0.48790450735E+02 -0.30836879109E+02  0.23972833667E+02  0.62498943592E+02  0.00000000000E+00 0.  1.
</event>
<event>
 4    1  0.1964735E-002  0.9118800E+02  0.7818608E-02  0.1130116E+00
         25   -1    0    0    0    0  0.00000000000E+00  0.00000000000E+00  0.99999998245E-14  0.12500000000E+03  0.12500000000E+03 0.  0.
        -11    1    1    0    0    0  0.23423113687E+02 -0.27331557866E+02 -0.48488964257E+02  0.60389038452E+02  0.51100000000E-03 0. -1.
         11    1    1    0    0    0  0.82252856627E+00 -0.94605081366E+00 -0.16984251297E+01  0.21109745538E+01  0.51100000000E-03 0.  1.
         22    1    1    0    0    0 -0.24245642254E+02  0.28277608679E+02  0.50187389386E+02  0.62499986995E+02  0.00000000000E+00 0. -1.
</event>
<event>
 4    1  0.1964735E-002  0.9118800E+02  0.7818608E-02  0.1130116E+00
         25   -1    0    0    0    0  0.00000000000E+00  0.00000000000E+00  0.99999998245E-14  0.12500000000E+03  0.12500000000E+03 0.  0.
        -11    1    1    0    0    0  0.75944735290E+01  0.19800002555E+02  0.40367057248E+01  0.21587290768E+02  0.51100000000E-03 0.  1.
         11    1    1    0    0    0  0.12989487783E+02  0.37722419146E+02  0.91023731282E+01  0.40921398998E+02  0.51100000000E-03 0. -1.
         22    1    1    0    0    0 -0.20583961312E+02 -0.57522421701E+02 -0.13139078853E+02  0.62491310234E+02  0.00000000000E+00 0. -1.
</event>
<event>
 4    1  0.1964735E-002  0.9118800E+02  0.7818608E-02  0.1130116E+00
         25   -1    0    0    0    0  0.00000000000E+00  0.00000000000E+00  0.99999998245E-14  0.12500000000E+03  0.12500000000E+03 0.  0.
        -11    1    1    0    0    0  0.12082165158E+02  0.15571635547E+02  0.35132539369E+02  0.40283369662E+02  0.51100000000E-03 0. -1.
         11    1    1    0    0    0 -0.78993007075E+01  0.23681942692E+01  0.22631118833E+02  0.24086818712E+02  0.51100000000E-03 0.  1.
         22    1    1    0    0    0 -0.41828644504E+01 -0.17939829816E+02 -0.57763658203E+02  0.60629811626E+02  0.00000000000E+00 0. -1.
</event>
<event>
 4    1  0.1964735E-002  0.9118800E+02  0.7818608E-02  0.1130116E+00
         25   -1    0    0    0    0  0.00000000000E+00  0.00000000000E+00  0.99999998245E-14  0.12500000000E+03  0.12500000000E+03 0.  0.
        -11    1    1    0    0    0  0.97290132945E+01 -0.31033293053E+00 -0.10265270602E+01  0.97879397362E+01  0.51100000000E-03 0.  1.
         11    1    1    0    0    0  0.52394687188E+02 -0.16758034704E+01 -0.55271816303E+01  0.52712060288E+02  0.51100000000E-03 0.  1.
         22    1    1    0    0    0 -0.62123700482E+02  0.19861364009E+01  0.65537086905E+01  0.62499999976E+02  0.00000000000E+00 0.  1.
</event>
<event>
 4    1  0.1964735E-002  0.9118800E+02  0.7818608E-02  0.1130116E+00
         25   -1    0    0    0    0  0.00000000000E+00  0.00000000000E+00  0.99999998245E-14  0.12500000000E+03  0.12500000000E+03 0.  0.
        -11    1    1    0    0    0  0.34570673117E+00 -0.48938713714E+00  0.93328623210E+00  0.11090700456E+01  0.51100000000E-03 0. -1.
         11    1    1    0    0    0  0.19300310085E+02 -0.26789254576E+02  0.51755978170E+02  0.61390939125E+02  0.51100000000E-03 0.  1.
         22    1    1    0    0    0 -0.19646016816E+02  0.27278641713E+02 -0.52689264402E+02  0.62499990829E+02  0.00000000000E+00 0.  1.
</event>
<event>
 4    1  0.1964735E-002  0.9118800E+02  0.7818608E-02  0.1130116E+00
         25   -1    0    0    0    0  0.00000000000E+00  0.00000000000E+00  0.99999998245E-14  0.12500000000E+03  0.12500000000E+03 0.  0.
        -11    1    1    0    0    0 -0.17878317278E+01  0.60554345134E+01 -0.25891001892E+02  0.26649739374E+02  0.51100000000E-03 0.  1.
         11    1    1    0    0    0 -0.24063439589E+01  0.81453608959E+01 -0.34829639563E+02  0.35850260637E+02  0.51100000000E-03 0. -1.
         22    1    1    0    0    0  0.41941756867E+01 -0.14200795409E+02  0.60720641455E+02  0.62499999990E+02  0.00000000000E+00 0. -1.
</event>
<event>
 4    1  0.1964735E-002  0.9118800E+02  0.7818608E-02  0.1130116E+00
         25   -1    0    0    0    0  0.00000000000E+00  0.00000000000E+00  0.99999998245E-14  0.12500000000E+03  0.12500000000E+03 0.  0.
        -11    1    1    0    0    0 -0.17718942580E-01  0.43905927787E+00 -0.49221775719E-01  0.44216518942E+00  0.51100000000E-03 0.  1.
         11    1    1    0    0    0  0.22000387859E-01  0.61211258600E+02 -0.10218504726E+02  0.62058331451E+02  0.51100000000E-03 0. -1.
         22    1    1    0    0    0 -0.42814452791E-02 -0.61650317877E+02  0.10267726502E+02  0.62499503360E+02  0.00000000000E+00 0. -1.
</event>
<event>
 4    1  0.1964735E-002  0.9118800E+02  0.7818608E-02  0.1130116E+00
         25   -1    0    0    0    0  0.00000000000E+00  0.00000000000E+00  0.99999998245E-14  0.12500000000E+03  0.12500000000E+03 0.  0.
        -11    1    1    0    0    0 -0.14989581584E+02 -0.15328063559E+02 -0.10406994617E+02  0.23831546860E+02  0.51100000000E-03 0. -1.
         11    1    1    0    0    0 -0.29140896042E+02 -0.21605767942E+02 -0.13698726615E+02  0.38777005320E+02  0.51100000000E-03 0.  1.
         22    1    1    0    0    0  0.44130477626E+02  0.36933831500E+02  0.24105721233E+02  0.62391447819E+02  0.00000000000E+00 0.  1.
</event>
<event>
 4    1  0.1964735E-002  0.9118800E+02  0.7818608E-02  0.1130116E+00
         25   -1    0    0    0    0  0.00000000000E+00  0.00000000000E+00  0.99999998245E-14  0.12500000000E+03  0.12500000000E+03 0.  0.
        -11    1    1    0    0    0  0.43572942847E+02 -0.27336993568E+02  0.35019633431E+02  0.62227705177E+02  0.51100000000E-03 0. -1.
         11    1    1    0    0    0  0.19022234477E+00 -0.11872791912E+00  0.15448218774E+00  0.27229738647E+00  0.51100000000E-03 0.  1.
         22    1    1    0    0    0 -0.43763165192E+02  0.27455721487E+02 -0.35174115619E+02  0.62499997436E+02  0.00000000000E+00 0. -1.
</event>
<event>
 4    1  0.1964735E-002  0.9118800E+02  0.7818608E-02  0.1130116E+00
         25   -1    0    0    0    0  0.00000000000E+00  0.00000000000E+00  0.99999998245E-14  0.12500000000E+03  0.12500000000E+03 0.  0.
        -11    1    1    0    0    0  0.86261626403E+01  0.14717247239E+01  0.47950312165E+01  0.99784257370E+01  0.51100000000E-03 0. -1.
         11    1    1    0    0    0  0.45119801601E+02  0.89621755492E+01  0.25348058342E+02  0.52522767912E+02  0.51100000000E-03 0.  1.
         22    1    1    0    0    0 -0.53745964242E+02 -0.10433900273E+02 -0.30143089559E+02  0.62498806351E+02  0.00000000000E+00 0.  1.
</event>
<event>
 4    1  0.1964735E-002  0.9118800E+02  0.7818608E-02  0.1130116E+00
         25   -1    0    0    0    0  0.00000000000E+00  0.00000000000E+00  0.99999998245E-14  0.12500000000E+03  0.12500000000E+03 0.  0.
        -11    1    1    0    0    0 -0.33098109883E+02 -0.33584943667E+02  0.30235380226E+00  0.47154265311E+02  0.51100000000E-03 0. -1.
         11    1    1    0    0    0 -0.10774716416E+02 -0.10926263274E+02  0.11827104218E+00  0.15345739841E+02  0.51100000000E-03 0.  1.
         22    1    1    0    0    0  0.43872826299E+02  0.44511206941E+02 -0.42062484444E+00  0.62499994848E+02  0.00000000000E+00 0. -1.
</event>
<event>
 4    1  0.1964735E-002  0.9118800E+02  0.7818608E-02  0.1130116E+00
         25   -1    0    0    0    0  0.00000000000E+00  0.00000000000E+00  0.99999998245E-14  0.12500000000E+03  0.12500000000E+03 0.  0.
        -11    1    1    0    0    0  0.15952259863E+02 -0.20045314008E+02 -0.18576057002E+02  0.31644258601E+02  0.51100000000E-03 0. -1.
         11    1    1    0    0    0  0.11630608742E+02 -0.22537237713E+02 -0.17750580751E+02  0.30956118308E+02  0.51100000000E-03 0.  1.
         22    1    1    0    0    0 -0.27582868605E+02  0.42582551721E+02  0.36326637753E+02  0.62399623091E+02  0.00000000000E+00 0. -1.
</event>
<event>
 4    1  0.1964735E-002  0.9118800E+02  0.7818608E-02  0.1130116E+00
         25   -1    0    0    0    0  0.00000000000E+00  0.00000000000E+00  0.99999998245E-14  0.12500000000E+03  0.12500000000E+03 0.  0.
        -11    1    1    0    0    0 -0.15372158336E+02 -0.58427489504E+02  0.59894189398E+01  0.60712008047E+02  0.51100000000E-03 0.  1.
         11    1    1    0    0    0 -0.64582451614E+00 -0.16814735188E+01 -0.12533877570E+00  0.18055892583E+01  0.51100000000E-03 0. -1.
         22    1    1    0    0    0  0.16017982853E+02  0.60108963022E+02 -0.58640801641E+01  0.62482402694E+02  0.00000000000E+00 0.  1.
</event>
<event>
 4    1  0.1964735E-002  0.9118800E+02  0.7818608E-02  0.1130116E+00
         25   -1    0    0    0    0  0.00000000000E+00  0.00000000000E+00  0.99999998245E-14  0.12500000000E+03  0.12500000000E+03 0.  0.
        -11    1    1    0    0    0 -0.53673609380E+01 -0.19866653805E+02  0.39141391733E+02  0.44221499793E+02  0.51100000000E-03 0. -1.
         11    1    1    0    0    0 -0.22156757009E+01 -0.83440871023E+01  0.16111435908E+02  0.18278713731E+02  0.51100000000E-03 0.  1.
         22    1    1    0    0    0  0.75830366389E+01  0.28210740907E+02 -0.55252827641E+02  0.62499786476E+02  0.00000000000E+00 0. -1.
</event>
<event>
 4    1  0.1964735E-002  0.9118800E+02  0.7818608E-02  0.1130116E+00
         25   -1    0    0    0    0  0.00000000000E+00  0.00000000000E+00  0.99999998245E-14  0.12500000000E+03  0.12500000000E+03 0.  0.
        -11    1    1    0    0    0  0.77987111719E+01  0.22379084957E+02  0.54710207414E+02  0.59622563976E+02  0.51100000000E-03 0. -1.
         11    1    1    0    0    0  0.37964710452E+00  0.10830723107E+01  0.26386495244E+01  0.28774379451E+01  0.51100000000E-03 0.  1.
         22    1    1    0    0    0 -0.81783582764E+01 -0.23462157268E+02 -0.57348856939E+02  0.62499998079E+02  0.00000000000E+00 0. -1.
</event>
<event>
 4    1  0.1964735E-002  0.9118800E+02  0.7818608E-02  0.1130116E+00
         25   -1    0    0    0    0  0.00000000000E+00  0.00000000000E+00  0.99999998245E-14  0.12500000000E+03  0.12500000000E+03 0.  0.
        -11    1    1    0    0    0  0.22624749216E+02  0.52937290223E+01  0.25658616647E+02  0.34615999950E+02  0.51100000000E-03 0. -1.
         11    1    1    0    0    0  0.18223452725E+02  0.42640197873E+01  0.20669817746E+02  0.27884000070E+02  0.51100000000E-03 0. -1.
         22    1    1    0    0    0 -0.40848201942E+02 -0.95577488095E+01 -0.46328434393E+02  0.62499999980E+02  0.00000000000E+00 0. -1.
</event>
<event>
 4    1  0.1964735E-002  0.9118800E+02  0.7818608E-02  0.1130116E+00
         25   -1    0    0    0    0  0.00000000000E+00  0.00000000000E+00  0.99999998245E-14  0.12500000000E+03  0.12500000000E+03 0.  0.
        -11    1    1    0    0    0  0.23706066073E+01  0.36227194825E+02  0.87584577835E+01  0.37346218062E+02  0.51100000000E-03 0. -1.
         11    1    1    0    0    0  0.10481760762E+02  0.23673535715E+02 -0.41005850298E+01  0.26212943363E+02  0.51100000000E-03 0.  1.
         22    1    1    0    0    0 -0.12852367370E+02 -0.59900730539E+02 -0.46578727537E+01  0.61440838575E+02  0.00000000000E+00 0. -1.
</event>
<event>
 4    1  0.1964735E-002  0.9118800E+02  0.7818608E-02  0.1130116E+00
         25   -1    0    0    0    0  0.00000000000E+00  0.00000000000E+00  0.99999998245E-14  0.12500000000E+03  0.12500000000E+03 0.  0.
        -11    1    1    0    0    0  0.22077730638E+02  0.52137645335E+01 -0.29595112318E+02  0.37289143247E+02  0.51100000000E-03 0. -1.
         11    1    1    0    0    0  0.14937370214E+02  0.35195222178E+01 -0.20001882198E+02  0.25210857924E+02  0.51100000000E-03 0.  1.
         22    1    1    0    0    0 -0.37015100851E+02 -0.87332867513E+01  0.49596994516E+02  0.62499998829E+02  0.00000000000E+00 0. -1.
</event>
<event>
 4    1  0.1964735E-002  0.9118800E+02  0.7818608E-02  0.1130116E+00
         25   -1    0    0    0    0  0.00000000000E+00  0.00000000000E+00  0.99999998245E-14  0.12500000000E+03  0.12500000000E+03 0.  0.
        -11    1    1    0    0    0  0.52832329187E+00 -0.27966815029E+01  0.53749368547E+01  0.60819815342E+01  0.51100000000E-03 0. -1.
         11    1    1    0    0    0  0.13184544116E+02 -0.37405502986E+02  0.40301128594E+02  0.56543654139E+02  0.51100000000E-03 0.  1.
         22    1    1    0    0    0 -0.13712867408E+02  0.40202184489E+02 -0.45676065449E+02  0.62374364326E+02  0.00000000000E+00 0.  1.
</event>
<event>
 4    1  0.1964735E-002  0.9118800E+02  0.7818608E-02  0.1130116E+00
         25   -1    0    0    0    0  0.00000000000E+00  0.00000000000E+00  0.99999998245E-14  0.12500000000E+03  0.12500000000E+03 0.  0.
        -11    1    1    0    0    0  0.16853385386E+02  0.21939119666E+02  0.15429398530E+02  0.31676930248E+02  0.51100000000E-03 0.  1.
         11    1    1    0    0    0  0.16291726516E+02  0.21952578360E+02  0.14246760901E+02  0.30827037580E+02  0.51100000000E-03 0. -1.
         22    1    1    0    0    0 -0.33145111902E+02 -0.43891698027E+02 -0.29676159430E+02  0.62496032172E+02  0.00000000000E+00 0.  1.
</event>
<event>
 4    1  0.1964735E-002  0.9118800E+02  0.7818608E-02  0.1130116E+00
         25   -1    0    0    0    0  0.00000000000E+00  0.00000000000E+00  0.99999998245E-14  0.12500000000E+03  0.12500000000E+03 0.  0.
        -11    1    1    0    0    0 -0.14385095049E+02 -0.16110020113E+02  0.32799795017E+01  0.21845410809E+02  0.51100000000E-03 0.  1.
         11    1    1    0    0    0 -0.26770793845E+02 -0.29982170361E+02  0.60983346713E+01  0.40654589270E+02  0.51100000000E-03 0.  1.
         22    1    1    0    0    0  0.41155888894E+02  0.46092190475E+02 -0.93783141730E+01  0.62499999921E+02  0.00000000000E+00 0.  1.
</event>
<event>
 4    1  0.1964735E-002  0.9118800E+02  0.7818608E-02  0.1130116E+00
         25   -1    0    0    0    0  0.00000000000E+00  0.00000000000E+00  0.99999998245E-14  0.12500000000E+03  0.12500000000E+03 0.  0.
        -11    1    1    0    0    0 -0.23167696750E+02 -0.33129691420E+02 -0.18066603251E+02  0.44280026870E+02  0.51100000000E-03 0. -1.
         11    1    1    0    0    0 -0.95318475269E+01 -0.13632573991E+02 -0.74339915536E+01  0.18219973149E+02  0.51100000000E-03 0. -1.
         22    1    1    0    0    0  0.32699544277E+02  0.46762265410E+02  0.25500594804E+02  0.62499999981E+02  0.00000000000E+00 0. -1.
</event>
<event>
 4    1  0.1964735E-002  0.9118800E+02  0.7818608E-02  0.1130116E+00
         25   -1    0    0    0    0  0.00000000000E+00  0.00000000000E+00  0.99999998245E-14  0.12500000000E+03  0.12500000000E+03 0.  0.
        -11    1    1    0    0    0 -0.24287594995E+01  0.99786401636E+01 -0.27728302392E+01  0.10637702760E+02  0.51100000000E-03 0.  1.
         11    1    1    0    0    0 -0.12028878268E+02  0.48584515278E+02 -0.13585012870E+02  0.51862333269E+02  0.51100000000E-03 0. -1.
         22    1    1    0    0    0  0.14457637767E+02 -0.58563155442E+02  0.16357843109E+02  0.62499963970E+02  0.00000000000E+00 0. -1.
</event>
<event>
 4    1  0.1964735E-002  0.9118800E+02  0.7818608E-02  0.1130116E+00
         25   -1    0    0    0    0  0.00000000000E+00  0.00000000000E+00  0.99999998245E-14  0.12500000000E+03  0.12500000000E+03 0.  0.
        -11    1    1    0    0    0 -0.19198159595E+01 -0.21446428653E+01 -0.10741811264E+00  0.28804036609E+01  0.51100000000E-03 0.  1.
         11    1    1    0    0    0 -0.15317979030E+02 -0.56586535504E+02  0.11813569947E+02  0.59801646441E+02  0.51100000000E-03 0. -1.
         22    1    1    0    0    0  0.17237794990E+02  0.58731178369E+02 -0.11706151834E+02  0.62317949898E+02  0.00000000000E+00 0. -1.
</event>
<event>
 4    1  0.1964735E-002  0.9118800E+02  0.7818608E-02  0.1130116E+00
         25   -1    0    0    0    0  0.00000000000E+00  0.00000000000E+00  0.99999998245E-14  0.12500000000E+03  0.12500000000E+03 0.  0.
        -11    1    1    0    0    0  0.10115402420E+01 -0.21804715159E+01 -0.86062454253E+00  0.25531048856E+01  0.51100000000E-03 0.  1.
         11    1    1    0    0    0  0.23766316550E+02 -0.51194110196E+02 -0.20197908868E+02  0.59946895199E+02  0.51100000000E-03 0. -1.
         22    1    1    0    0    0 -0.24777856792E+02  0.53374581712E+02  0.21058533410E+02  0.62499999916E+02  0.00000000000E+00 0. -1.
</event>
<event>
 4    1  0.1964735E-002  0.9118800E+02  0.7818608E-02  0.1130116E+00
         25   -1    0    0    0    0  0.00000000000E+00  0.00000000000E+00  0.99999998245E-14  0.12500000000E+03  0.12500000000E+03 0.  0.
        -11    1    1    0    0    0  0.12753042732E+02 -0.19216310143E+02 -0.99484803411E+01  0.25117303514E+02  0.51100000000E-03 0.  1.
         11    1    1    0    0    0  0.18961441370E+02 -0.28596356372E+02 -0.14838410323E+02  0.37382700247E+02  0.51100000000E-03 0. -1.
         22    1    1    0    0    0 -0.31714484102E+02  0.47812666515E+02  0.24786890664E+02  0.62499996239E+02  0.00000000000E+00 0. -1.
</event>
<event>
 4    1  0.1964735E-002  0.9118800E+02  0.7818608E-02  0.1130116E+00
         25   -1    0    0    0    0  0.00000000000E+00  0.00000000000E+00  0.99999998245E-14  0.12500000000E+03  0.12500000000E+03 0.  0.
        -11    1    1    0    0    0  0.24620282594E+01 -0.18840943442E+01 -0.26524793485E+00  0.31115512812E+01  0.51100000000E-03 0. -1.
         11    1    1    0    0    0  0.46906845909E+02 -0.36055459573E+02 -0.51710907710E+01  0.59388454586E+02  0.51100000000E-03 0.  1.
         22    1    1    0    0    0 -0.49368874168E+02  0.37939553917E+02  0.54363387059E+01  0.62499994133E+02  0.00000000000E+00 0.  1.
</event>
<event>
 4    1  0.1964735E-002  0.9118800E+02  0.7818608E-02  0.1130116E+00
         25   -1    0    0    0    0  0.00000000000E+00  0.00000000000E+00  0.99999998245E-14  0.12500000000E+03  0.12500000000E+03 0.  0.
        -11    1    1    0    0    0 -0.52853866422E+02  0.14041053742E+02  0.27550656371E+01  0.54756486126E+02  0.51100000000E-03 0.  1.
         11    1    1    0    0    0 -0.73998140037E+01 -0.85071213127E+00 -0.41901865374E+01  0.85462636221E+01  0.51100000000E-03 0. -1.
         22    1    1    0    0    0  0.60253680426E+02 -0.13190341611E+02  0.14351209002E+01  0.61697250252E+02  0.00000000000E+00 0.  1.
</event>
<event>
 4    1  0.1964735E-002  0.9118800E+02  0.7818608E-02  0.1130116E+00
         25   -1    0    0    0    0  0.00000000000E+00  0.00000000000E+00  0.99999998245E-14  0.12500000000E+03  0.12500000000E+03 0.  0.
        -11    1    1    0    0    0 -0.61208488298E+01  0.23499207326E+02 -0.64964905101E+01  0.25137261676E+02  0.51100000000E-03 0. -1.
         11    1    1    0    0    0 -0.10539400675E+02  0.34664705551E+02 -0.91507774332E+01  0.37369205309E+02  0.51100000000E-03 0.  1.
         22    1    1    0    0    0  0.16660249505E+02 -0.58163912877E+02  0.15647267943E+02  0.62493533016E+02  0.00000000000E+00 0.  1.
</event>
<event>
 4    1  0.1964735E-002  0.9118800E+02  0.7818608E-02  0.1130116E+00
         25   -1    0    0    0    0  0.00000000000E+00  0.00000000000E+00  0.99999998245E-14  0.12500000000E+03  0.12500000000E+03 0.  0.
        -11    1    1    0    0    0  0.56702346458E+01  0.21015729547E+00  0.36107127194E+01  0.67255463443E+01  0.51100000000E-03 0.  1.
         11    1    1    0    0    0 -0.77354858970E+00 -0.56939393776E+02 -0.17672007757E+02  0.59623760360E+02  0.51100000000E-03 0. -1.
         22    1    1    0    0    0 -0.48966860561E+01  0.56729236480E+02  0.14061295037E+02  0.58650693296E+02  0.00000000000E+00 0. -1.
</event>
<event>
 4    1  0.1964735E-002  0.9118800E+02  0.7818608E-02  0.1130116E+00
         25   -1    0    0    0    0  0.00000000000E+00  0.00000000000E+00  0.99999998245E-14  0.12500000000E+03  0.12500000000E+03 0.  0.
        -11    1    1    0    0    0  0.24055209393E+02  0.12039501387E+01  0.16436933454E+02  0.29159481760E+02  0.51100000000E-03 0. -1.
         11    1    1    0    0    0  0.10003059846E+02 -0.12789492200E+02 -0.46313548814E+02  0.49077256658E+02  0.51100000000E-03 0.  1.
         22    1    1    0    0    0 -0.34058269239E+02  0.11585542061E+02  0.29876615360E+02  0.46763261582E+02  0.00000000000E+00 0.  1.
</event>
<event>
 4    1  0.1964735E-002  0.9118800E+02  0.7818608E-02  0.1130116E+00
         25   -1    0    0    0    0  0.00000000000E+00  0.00000000000E+00  0.99999998245E-14  0.12500000000E+03  0.12500000000E+03 0.  0.
        -11    1    1    0    0    0 -0.56974771568E+01  0.29119995916E+01 -0.73701597562E+00  0.64408214059E+01  0.51100000000E-03 0.  1.
         11    1    1    0    0    0 -0.49594556654E+02  0.25330158417E+02 -0.64338606188E+01  0.56059178890E+02  0.51100000000E-03 0. -1.
         22    1    1    0    0    0  0.55292033810E+02 -0.28242158009E+02  0.71708765944E+01  0.62499999704E+02  0.00000000000E+00 0. -1.
</event>
<event>
 4    1  0.1964735E-002  0.9118800E+02  0.7818608E-02  0.1130116E+00
         25   -1    0    0    0    0  0.00000000000E+00  0.00000000000E+00  0.99999998245E-14  0.12500000000E+03  0.12500000000E+03 0.  0.
        -11    1    1    0    0    0  0.63632803145E+01  0.19729823611E+02  0.31541936639E+02  0.37744549849E+02  0.51100000000E-03 0. -1.
         11    1    1    0    0    0  0.41607015377E+01  0.12949853735E+02  0.20683864348E+02  0.24755451797E+02  0.51100000000E-03 0.  1.
         22    1    1    0    0    0 -0.10523981852E+02 -0.32679677346E+02 -0.52225800988E+02  0.62499998354E+02  0.00000000000E+00 0. -1.
</event>
<event>
 4    1  0.1964735E-002  0.9118800E+02  0.7818608E-02  0.1130116E+00
         25   -1    0    0    0    0  0.00000000000E+00  0.00000000000E+00  0.99999998245E-14  0.12500000000E+03  0.12500000000E+03 0.  0.
        -11    1    1    0    0    0  0.32947328217E+01  0.27251543257E+02 -0.53754929929E-01  0.27450041240E+02  0.51100000000E-03 0. -1.
         11    1    1    0    0    0  0.42056346001E+01  0.34796659520E+02 -0.68799345876E-01  0.35049958769E+02  0.51100000000E-03 0.  1.
         22    1    1    0    0    0 -0.75003674217E+01 -0.62048202776E+02  0.12255427581E+00  0.62499999990E+02  0.00000000000E+00 0.  1.
</event>
<event>
 4    1  0.1964735E-002  0.9118800E+02  0.7818608E-02  0.1130116E+00
         25   -1    0    0    0    0  0.00000000000E+00  0.00000000000E+00  0.99999998245E-14  0.12500000000E+03  0.12500000000E+03 0.  0.
        -11    1    1    0    0    0  0.73865979769E+01  0.45821800395E+01  0.48046624008E+02  0.48826594008E+02  0.51100000000E-03 0.  1.
         11    1    1    0    0    0  0.20684829774E+01  0.12819410364E+01  0.13455111940E+02  0.13673406021E+02  0.51100000000E-03 0. -1.
         22    1    1    0    0    0 -0.94550809543E+01 -0.58641210759E+01 -0.61501735947E+02  0.62499999971E+02  0.00000000000E+00 0.  1.
</event>
<event>
 4    1  0.1964735E-002  0.9118800E+02  0.7818608E-02  0.1130116E+00
         25   -1    0    0    0    0  0.00000000000E+00  0.00000000000E+00  0.99999998245E-14  0.12500000000E+03  0.12500000000E+03 0.  0.
        -11    1    1    0    0    0  0.11765914907E+02 -0.66123708301E+01 -0.13241559195E+02  0.18907646383E+02  0.51100000000E-03 0.  1.
         11    1    1    0    0    0  0.27126149887E+02 -0.15245534834E+02 -0.30529313029E+02  0.43592353623E+02  0.51100000000E-03 0.  1.
         22    1    1    0    0    0 -0.38892064794E+02  0.21857905664E+02  0.43770872224E+02  0.62499999994E+02  0.00000000000E+00 0.  1.
</event>
<event>
 4    1  0.1964735E-002  0.9118800E+02  0.7818608E-02  0.1130116E+00
         25   -1    0    0    0    0  0.00000000000E+00  0.00000000000E+00  0.99999998245E-14  0.12500000000E+03  0.12500000000E+03 0.  0.
        -11    1    1    0    0    0  0.51515931565E+01  0.94226628128E+01  0.52542700774E+01  0.11955452348E+02  0.51100000000E-03 0.  1.
         11    1    1    0    0    0  0.20732261933E+02  0.41192598447E+02  0.20702503974E+02  0.50549485880E+02  0.51100000000E-03 0. -1.
         22    1    1    0    0    0 -0.25883855089E+02 -0.50615261260E+02 -0.25956774051E+02  0.62495061772E+02  0.00000000000E+00 0. -1.
</event>
<event>
 4    1  0.1964735E-002  0.9118800E+02  0.7818608E-02  0.1130116E+00
         25   -1    0    0    0    0  0.00000000000E+00  0.00000000000E+00  0.99999998245E-14  0.12500000000E+03  0.12500000000E+03 0.  0.
        -11    1    1    0    0    0 -0.34965696414E+02  0.16437220660E+01  0.82320710104E+01  0.35959265028E+02  0.51100000000E-03 0.  1.
         11    1    1    0    0    0 -0.25807171067E+02  0.12047860458E+01  0.60785728054E+01  0.26540735399E+02  0.51100000000E-03 0. -1.
         22    1    1    0    0    0  0.60772867481E+02 -0.28485081117E+01 -0.14310643816E+02  0.62499999574E+02  0.00000000000E+00 0.  1.
</event>
<event>
 4    1  0.1964735E-002  0.9118800E+02  0.7818608E-02  0.1130116E+00
         25   -1    0    0    0    0  0.00000000000E+00  0.00000000000E+00  0.99999998245E-14  0.12500000000E+03  0.12500000000E+03 0.  0.
        -11    1    1    0    0    0 -0.99567438918E+00 -0.29750733231E+01  0.43890200981E+00  0.31678169143E+01  0.51100000000E-03 0.  1.
         11    1    1    0    0    0 -0.19565722231E+02 -0.55353906364E+02  0.85710781514E+01  0.59332417928E+02  0.51100000000E-03 0. -1.
         22    1    1    0    0    0  0.20561396620E+02  0.58328979687E+02 -0.90099801612E+01  0.62499765158E+02  0.00000000000E+00 0. -1.
</event>
<event>
 4    1  0.1964735E-002  0.9118800E+02  0.7818608E-02  0.1130116E+00
         25   -1    0    0    0    0  0.00000000000E+00  0.00000000000E+00  0.99999998245E-14  0.12500000000E+03  0.12500000000E+03 0.  0.
        -11    1    1    0    0    0  0.13276243268E+02  0.23711424270E+02 -0.35258494850E+01  0.27402954058E+02  0.51100000000E-03 0.  1.
         11    1    1    0    0    0  0.16983552856E+02  0.30331955907E+02 -0.48328503441E+01  0.35097365421E+02  0.51100000000E-03 0. -1.
         22    1    1    0    0    0 -0.30259796124E+02 -0.54043380177E+02  0.83586998291E+01  0.62499680522E+02  0.00000000000E+00 0.  1.
</event>
<event>
 4    1  0.1964735E-002  0.9118800E+02  0.7818608E-02  0.1130116E+00
         25   -1    0    0    0    0  0.00000000000E+00  0.00000000000E+00  0.99999998245E-14  0.12500000000E+03  0.12500000000E+03 0.  0.
        -11    1    1    0    0    0  0.20872319045E+02 -0.10391703192E+02 -0.21556491135E+02  0.31754110094E+02  0.51100000000E-03 0. -1.
         11    1    1    0    0    0  0.20210412196E+02 -0.10061854562E+02 -0.20871225841E+02  0.30745889916E+02  0.51100000000E-03 0.  1.
         22    1    1    0    0    0 -0.41082731241E+02  0.20453557754E+02  0.42427716976E+02  0.62499999990E+02  0.00000000000E+00 0.  1.
</event>
<event>
 4    1  0.1964735E-002  0.9118800E+02  0.7818608E-02  0.1130116E+00
         25   -1    0    0    0    0  0.00000000000E+00  0.00000000000E+00  0.99999998245E-14  0.12500000000E+03  0.12500000000E+03 0.  0.
        -11    1    1    0    0    0  0.42225634571E+01  0.22218906337E+01  0.56614743986E+02  0.56815456321E+02  0.51100000000E-03 0.  1.
         11    1    1    0    0    0  0.49005146825E+00  0.38253970754E+01  0.48764785861E+01  0.62172226024E+01  0.51100000000E-03 0. -1.
         22    1    1    0    0    0 -0.47126149253E+01 -0.60472877091E+01 -0.61491222572E+02  0.61967321077E+02  0.00000000000E+00 0.  1.
</event>
<event>
 4    1  0.1964735E-002  0.9118800E+02  0.7818608E-02  0.1130116E+00
         25   -1    0    0    0    0  0.00000000000E+00  0.00000000000E+00  0.99999998245E-14  0.12500000000E+03  0.12500000000E+03 0.  0.
        -11    1    1    0    0    0 -0.26456851732E+02 -0.37817969490E+01  0.39762947735E+02  0.47909905078E+02  0.51100000000E-03 0.  1.
         11    1    1    0    0    0 -0.80337545439E+01 -0.11853677860E+01  0.12121273000E+02  0.14590118857E+02  0.51100000000E-03 0. -1.
         22    1    1    0    0    0  0.34490606276E+02  0.49671647350E+01 -0.51884220735E+02  0.62499976065E+02  0.00000000000E+00 0.  1.
</event>
<event>
 4    1  0.1964735E-002  0.9118800E+02  0.7818608E-02  0.1130116E+00
         25   -1    0    0    0    0  0.00000000000E+00  0.00000000000E+00  0.99999998245E-14  0.12500000000E+03  0.12500000000E+03 0.  0.
        -11    1    1    0    0    0  0.68458905565E-01 -0.58374833760E+01  0.41123905918E+01  0.71409141871E+01  0.51100000000E-03 0.  1.
         11    1    1    0    0    0  0.52356174839E+00 -0.45263467781E+02  0.31868052457E+02  0.55359085976E+02  0.51100000000E-03 0. -1.
         22    1    1    0    0    0 -0.59202065396E+00  0.51100951157E+02 -0.35980443049E+02  0.62499999837E+02  0.00000000000E+00 0. -1.
</event>
<event>
 4    1  0.1964735E-002  0.9118800E+02  0.7818608E-02  0.1130116E+00
         25   -1    0    0    0    0  0.00000000000E+00  0.00000000000E+00  0.99999998245E-14  0.12500000000E+03  0.12500000000E+03 0.  0.
        -11    1    1    0    0    0  0.23034978523E+01  0.90577506689E+01  0.15916560358E+02  0.18457677086E+02  0.51100000000E-03 0. -1.
         11    1    1    0    0    0  0.54842080289E+01  0.21612582992E+02  0.37980862933E+02  0.44042323176E+02  0.51100000000E-03 0.  1.
         22    1    1    0    0    0 -0.77877058813E+01 -0.30670333661E+02 -0.53897423291E+02  0.62499999738E+02  0.00000000000E+00 0.  1.
</event>
<event>
 4    1  0.1964735E-002  0.9118800E+02  0.7818608E-02  0.1130116E+00
         25   -1    0    0    0    0  0.00000000000E+00  0.00000000000E+00  0.99999998245E-14  0.12500000000E+03  0.12500000000E+03 0.  0.
        -11    1    1    0    0    0 -0.44747677688E+02  0.39183781870E+02 -0.10161213657E+02  0.60340481299E+02  0.51100000000E-03 0.  1.
         11    1    1    0    0    0 -0.15969715767E+01  0.14000120746E+01 -0.39187444450E+00  0.21596105823E+01  0.51100000000E-03 0. -1.
         22    1    1    0    0    0  0.46344649265E+02 -0.40583793945E+02  0.10553088102E+02  0.62499908119E+02  0.00000000000E+00 0.  1.
</event>
<event>
 4    1  0.1964735E-002  0.9118800E+02  0.7818608E-02  0.1130116E+00
         25   -1    0    0    0    0  0.00000000000E+00  0.00000000000E+00  0.99999998245E-14  0.12500000000E+03  0.12500000000E+03 0.  0.
        -11    1    1    0    0    0  0.35760450262E+00 -0.50959557525E+02 -0.27754862264E+02  0.58028758074E+02  0.51100000000E-03 0.  1.
         11    1    1    0    0    0  0.29329856159E-01 -0.39509184609E+01 -0.20934681763E+01  0.44713785561E+01  0.51100000000E-03 0. -1.
         22    1    1    0    0    0 -0.38693435878E+00  0.54910475986E+02  0.29848330440E+02  0.62499863370E+02  0.00000000000E+00 0.  1.
</event>
<event>
 4    1  0.1964735E-002  0.9118800E+02  0.7818608E-02  0.1130116E+00
         25   -1    0    0    0    0  0.00000000000E+00  0.00000000000E+00  0.99999998245E-14  0.12500000000E+03  0.12500000000E+03 0.  0.
        -11    1    1    0    0    0 -0.62991050370E+01 -0.37437182508E+01 -0.51481061934E+01  0.89552860506E+01  0.51100000000E-03 0. -1.
         11    1    1    0    0    0 -0.35921111853E+02 -0.23114278298E+02 -0.32293338154E+02  0.53548630490E+02  0.51100000000E-03 0.  1.
         22    1    1    0    0    0  0.42220216890E+02  0.26857996549E+02  0.37441444348E+02  0.62496083459E+02  0.00000000000E+00 0.  1.
</event>
<event>
 4    1  0.1964735E-002  0.9118800E+02  0.7818608E-02  0.1130116E+00
         25   -1    0    0    0    0  0.00000000000E+00  0.00000000000E+00  0.99999998245E-14  0.12500000000E+03  0.12500000000E+03 0.  0.
        -11    1    1    0    0    0 -0.75028752547E+00  0.32357272824E+01 -0.30396869914E-01  0.33217144139E+01  0.51100000000E-03 0.  1.
         11    1    1    0    0    0 -0.13341433376E+02  0.57651467060E+02 -0.61981375315E+00  0.59178287133E+02  0.51100000000E-03 0. -1.
         22    1    1    0    0    0  0.14091720901E+02 -0.60887194342E+02  0.65021062307E+00  0.62499998453E+02  0.00000000000E+00 0. -1.
</event>
<event>
 4    1  0.1964735E-002  0.9118800E+02  0.7818608E-02  0.1130116E+00
         25   -1    0    0    0    0  0.00000000000E+00  0.00000000000E+00  0.99999998245E-14  0.12500000000E+03  0.12500000000E+03 0.  0.
        -11    1    1    0    0    0  0.11426840593E+02  0.13900767827E+02  0.51277122711E+02  0.54342868399E+02  0.51100000000E-03 0. -1.
         11    1    1    0    0    0  0.73584557765E+00  0.10138043770E+01  0.81220379976E+01  0.82180757799E+01  0.51100000000E-03 0.  1.
         22    1    1    0    0    0 -0.12162686170E+02 -0.14914572204E+02 -0.59399160709E+02  0.62439055821E+02  0.00000000000E+00 0. -1.
</event>
<event>
 4    1  0.1964735E-002  0.9118800E+02  0.7818608E-02  0.1130116E+00
         25   -1    0    0    0    0  0.00000000000E+00  0.00000000000E+00  0.99999998245E-14  0.12500000000E+03  0.12500000000E+03 0.  0.
        -11    1    1    0    0    0 -0.53934048385E+00  0.99401539260E+00  0.74760066067E+01  0.75610600978E+01  0.51100000000E-03 0.  1.
         11    1    1    0    0    0 -0.39925749507E+01  0.71956817974E+01  0.54319140270E+02  0.54938943302E+02  0.51100000000E-03 0. -1.
         22    1    1    0    0    0  0.45319154345E+01 -0.81896971900E+01 -0.61795146876E+02  0.62499996600E+02  0.00000000000E+00 0. -1.
</event>
<event>
 4    1  0.1964735E-002  0.9118800E+02  0.7818608E-02  0.1130116E+00
         25   -1    0    0    0    0  0.00000000000E+00  0.00000000000E+00  0.99999998245E-14  0.12500000000E+03  0.12500000000E+03 0.  0.
        -11    1    1    0    0    0  0.48385561067E+02 -0.10951679078E+02  0.13129022284E+02  0.51317375427E+02  0.51100000000E-03 0. -1.
         11    1    1    0    0    0  0.10680211279E+02 -0.21346857247E+01  0.25496593253E+01  0.11185908951E+02  0.51100000000E-03 0.  1.
         22    1    1    0    0    0 -0.59065772346E+02  0.13086364803E+02 -0.15678681609E+02  0.62496715622E+02  0.00000000000E+00 0.  1.
</event>
<event>
 4    1  0.1964735E-002  0.9118800E+02  0.7818608E-02  0.1130116E+00
         25   -1    0    0    0    0  0.00000000000E+00  0.00000000000E+00  0.99999998245E-14  0.12500000000E+03  0.12500000000E+03 0.  0.
        -11    1    1    0    0    0 -0.18011126409E+01  0.11689174864E+02 -0.26477207510E+02  0.28998678134E+02  0.51100000000E-03 0.  1.
         11    1    1    0    0    0 -0.19316819809E+01  0.13524501776E+02 -0.30589218297E+02  0.33501400267E+02  0.51100000000E-03 0. -1.
         22    1    1    0    0    0  0.37327946218E+01 -0.25213676640E+02  0.57066425807E+02  0.62499921598E+02  0.00000000000E+00 0.  1.
</event>
<event>
 4    1  0.1964735E-002  0.9118800E+02  0.7818608E-02  0.1130116E+00
         25   -1    0    0    0    0  0.00000000000E+00  0.00000000000E+00  0.99999998245E-14  0.12500000000E+03  0.12500000000E+03 0.  0.
        -11    1    1    0    0    0  0.16947048999E+02 -0.60610654368E+01  0.23377656382E+02  0.29503454072E+02  0.51100000000E-03 0. -1.
         11    1    1    0    0    0  0.18951919885E+02 -0.67717865935E+01  0.26148416702E+02  0.32996546142E+02  0.51100000000E-03 0.  1.
         22    1    1    0    0    0 -0.35898968884E+02  0.12832852030E+02 -0.49526073084E+02  0.62499999786E+02  0.00000000000E+00 0.  1.
</event>
<event>
 4    1  0.1964735E-002  0.9118800E+02  0.7818608E-02  0.1130116E+00
         25   -1    0    0    0    0  0.00000000000E+00  0.00000000000E+00  0.99999998245E-14  0.12500000000E+03  0.12500000000E+03 0.  0.
        -11    1    1    0    0    0  0.92404433676E-01 -0.62906007706E-01  0.99666518263E-01  0.14976455239E+00  0.51100000000E-03 0. -1.
         11    1    1    0    0    0  0.26605699705E+02  0.75744868918E+01  0.55893639547E+02  0.62364533595E+02  0.51100000000E-03 0.  1.
         22    1    1    0    0    0 -0.26698104138E+02 -0.75115808841E+01 -0.55993306065E+02  0.62485701853E+02  0.00000000000E+00 0.  1.
</event>
<event>
 4    1  0.1964735E-002  0.9118800E+02  0.7818608E-02  0.1130116E+00
         25   -1    0    0    0    0  0.00000000000E+00  0.00000000000E+00  0.99999998245E-14  0.12500000000E+03  0.12500000000E+03 0.  0.
        -11    1    1    0    0    0  0.13777556652E+02 -0.29307887032E+02  0.18404921449E+02  0.37249354939E+02  0.51100000000E-03 0. -1.
         11    1    1    0    0    0  0.93779483472E+01 -0.19866965701E+02  0.12448032496E+02  0.25250658499E+02  0.51100000000E-03 0.  1.
         22    1    1    0    0    0 -0.23155504999E+02  0.49174852733E+02 -0.30852953945E+02  0.62499986562E+02  0.00000000000E+00 0.  1.
</event>
<event>
 4    1  0.1964735E-002  0.9118800E+02  0.7818608E-02  0.1130116E+00
         25   -1    0    0    0    0  0.00000000000E+00  0.00000000000E+00  0.99999998245E-14  0.12500000000E+03  0.12500000000E+03 0.  0.
        -11    1    1    0    0    0 -0.11176890564E+02  0.90981419347E+01  0.25512178144E+02  0.29301370330E+02  0.51100000000E-03 0.  1.
         11    1    1    0    0    0 -0.12411074546E+02  0.10247806197E+02  0.29036468853E+02  0.33198928100E+02  0.51100000000E-03 0. -1.
         22    1    1    0    0    0  0.23587965109E+02 -0.19345948132E+02 -0.54548646997E+02  0.62499701570E+02  0.00000000000E+00 0. -1.
</event>
<event>
 4    1  0.1964735E-002  0.9118800E+02  0.7818608E-02  0.1130116E+00
         25   -1    0    0    0    0  0.00000000000E+00  0.00000000000E+00  0.99999998245E-14  0.12500000000E+03  0.12500000000E+03 0.  0.
        -11    1    1    0    0    0  0.22367947902E+02 -0.22796055732E+02 -0.27687496234E+02  0.42267986683E+02  0.51100000000E-03 0. -1.
         11    1    1    0    0    0  0.51812145713E+01  0.32189911923E+02 -0.10917769638E+02  0.34383616857E+02  0.51100000000E-03 0.  1.
         22    1    1    0    0    0 -0.27549162474E+02 -0.93938561913E+01  0.38605265872E+02  0.48348396459E+02  0.00000000000E+00 0. -1.
</event>
<event>
 4    1  0.1964735E-002  0.9118800E+02  0.7818608E-02  0.1130116E+00
         25   -1    0    0    0    0  0.00000000000E+00  0.00000000000E+00  0.99999998245E-14  0.12500000000E+03  0.12500000000E+03 0.  0.
        -11    1    1    0    0    0 -0.61577008070E+01  0.16215100864E+02 -0.28472161289E+01  0.17577070723E+02  0.51100000000E-03 0. -1.
         11    1    1    0    0    0 -0.13545994047E+02  0.42314427631E+02 -0.67003058209E+01  0.44932158182E+02  0.51100000000E-03 0.  1.
         22    1    1    0    0    0  0.19703694854E+02 -0.58529528495E+02  0.95475219498E+01  0.62490771096E+02  0.00000000000E+00 0.  1.
</event>
<event>
 4    1  0.1964735E-002  0.9118800E+02  0.7818608E-02  0.1130116E+00
         25   -1    0    0    0    0  0.00000000000E+00  0.00000000000E+00  0.99999998245E-14  0.12500000000E+03  0.12500000000E+03 0.  0.
        -11    1    1    0    0    0 -0.85198617291E+01 -0.43987047375E+01  0.13386370676E+01  0.96813530413E+01  0.51100000000E-03 0. -1.
         11    1    1    0    0    0 -0.46480019372E+02 -0.24005156803E+02  0.72917575076E+01  0.52818647102E+02  0.51100000000E-03 0.  1.
         22    1    1    0    0    0  0.54999881101E+02  0.28403861540E+02 -0.86303945751E+01  0.62499999856E+02  0.00000000000E+00 0.  1.
</event>
<event>
 4    1  0.1964735E-002  0.9118800E+02  0.7818608E-02  0.1130116E+00
         25   -1    0    0    0    0  0.00000000000E+00  0.00000000000E+00  0.99999998245E-14  0.12500000000E+03  0.12500000000E+03 0.  0.
        -11    1    1    0    0    0 -0.17257504098E+02 -0.45207436699E+02  0.71546148664E+01  0.48915460692E+02  0.51100000000E-03 0. -1.
         11    1    1    0    0    0 -0.41542301752E+01 -0.12883465268E+02  0.12983958134E+01  0.13598791770E+02  0.51100000000E-03 0.  1.
         22    1    1    0    0    0  0.21411734273E+02  0.58090901966E+02 -0.84530106798E+01  0.62485747538E+02  0.00000000000E+00 0. -1.
</event>
<event>
 4    1  0.1964735E-002  0.9118800E+02  0.7818608E-02  0.1130116E+00
         25   -1    0    0    0    0  0.00000000000E+00  0.00000000000E+00  0.99999998245E-14  0.12500000000E+03  0.12500000000E+03 0.  0.
        -11    1    1    0    0    0 -0.16529248621E+01 -0.49483322811E+02 -0.28732389087E+02  0.57244052791E+02  0.51100000000E-03 0.  1.
         11    1    1    0    0    0 -0.15325471143E+00 -0.45396461873E+01 -0.26444531177E+01  0.52559496825E+01  0.51100000000E-03 0. -1.
         22    1    1    0    0    0  0.18061795735E+01  0.54022968998E+02  0.31376842205E+02  0.62499997526E+02  0.00000000000E+00 0.  1.
</event>
<event>
 4    1  0.1964735E-002  0.9118800E+02  0.7818608E-02  0.1130116E+00
         25   -1    0    0    0    0  0.00000000000E+00  0.00000000000E+00  0.99999998245E-14  0.12500000000E+03  0.12500000000E+03 0.  0.
        -11    1    1    0    0    0  0.12580462468E+02  0.25752867378E+02  0.39982420158E+02  0.49194228687E+02  0.51100000000E-03 0.  1.
         11    1    1    0    0    0 -0.17654255393E+01  0.76475312703E+01  0.11238581476E+02  0.13707923830E+02  0.51100000000E-03 0. -1.
         22    1    1    0    0    0 -0.10815036928E+02 -0.33400398649E+02 -0.51221001634E+02  0.62097847484E+02  0.00000000000E+00 0.  1.
</event>
<event>
 4    1  0.1964735E-002  0.9118800E+02  0.7818608E-02  0.1130116E+00
         25   -1    0    0    0    0  0.00000000000E+00  0.00000000000E+00  0.99999998245E-14  0.12500000000E+03  0.12500000000E+03 0.  0.
        -11    1    1    0    0    0 -0.20150616550E+02 -0.27991757143E+01  0.65919134880E+01  0.21385416894E+02  0.51100000000E-03 0.  1.
         11    1    1    0    0    0 -0.37804207120E+02 -0.97501302880E+01  0.13023952856E+02  0.41156366031E+02  0.51100000000E-03 0. -1.
         22    1    1    0    0    0  0.57954823670E+02  0.12549306002E+02 -0.19615866344E+02  0.62458217075E+02  0.00000000000E+00 0.  1.
</event>
<event>
 4    1  0.1964735E-002  0.9118800E+02  0.7818608E-02  0.1130116E+00
         25   -1    0    0    0    0  0.00000000000E+00  0.00000000000E+00  0.99999998245E-14  0.12500000000E+03  0.12500000000E+03 0.  0.
        -11    1    1    0    0    0 -0.17730627551E+02 -0.77718391281E+01  0.24333735607E+02  0.31095133472E+02  0.51100000000E-03 0. -1.
         11    1    1    0    0    0 -0.17906932298E+02 -0.78501313055E+01  0.24576062663E+02  0.31404866535E+02  0.51100000000E-03 0. -1.
         22    1    1    0    0    0  0.35637559849E+02  0.15621970434E+02 -0.48909798270E+02  0.62499999992E+02  0.00000000000E+00 0. -1.
</event>
<event>
 4    1  0.1964735E-002  0.9118800E+02  0.7818608E-02  0.1130116E+00
         25   -1    0    0    0    0  0.00000000000E+00  0.00000000000E+00  0.99999998245E-14  0.12500000000E+03  0.12500000000E+03 0.  0.
        -11    1    1    0    0    0  0.25767111652E+01 -0.39668762298E+01  0.35861960174E+01  0.59360213602E+01  0.51100000000E-03 0.  1.
         11    1    1    0    0    0  0.24826877419E+02 -0.38964731492E+02  0.32634947360E+02  0.56565571968E+02  0.51100000000E-03 0. -1.
         22    1    1    0    0    0 -0.27403588584E+02  0.42931607722E+02 -0.36221143377E+02  0.62498406672E+02  0.00000000000E+00 0. -1.
</event>
<event>
 4    1  0.1964735E-002  0.9118800E+02  0.7818608E-02  0.1130116E+00
         25   -1    0    0    0    0  0.00000000000E+00  0.00000000000E+00  0.99999998245E-14  0.12500000000E+03  0.12500000000E+03 0.  0.
        -11    1    1    0    0    0 -0.82568943373E+00  0.22791356278E+01 -0.14463437636E+01  0.28227881243E+01  0.51100000000E-03 0.  1.
         11    1    1    0    0    0  0.29024529752E+02  0.21548486437E+02 -0.48237063501E+02  0.60279141421E+02  0.51100000000E-03 0. -1.
         22    1    1    0    0    0 -0.28198840319E+02 -0.23827622065E+02  0.49683407264E+02  0.61898070454E+02  0.00000000000E+00 0. -1.
</event>
<event>
 4    1  0.1964735E-002  0.9118800E+02  0.7818608E-02  0.1130116E+00
         25   -1    0    0    0    0  0.00000000000E+00  0.00000000000E+00  0.99999998245E-14  0.12500000000E+03  0.12500000000E+03 0.  0.
        -11    1    1    0    0    0 -0.21196165331E+02  0.23197743402E+02  0.33580767331E+02  0.45990006072E+02  0.51100000000E-03 0. -1.
         11    1    1    0    0    0 -0.77383611831E+01  0.80569682504E+01  0.12158122586E+02  0.16511114931E+02  0.51100000000E-03 0.  1.
         22    1    1    0    0    0  0.28934526514E+02 -0.31254711652E+02 -0.45738889917E+02  0.62498878997E+02  0.00000000000E+00 0. -1.
</event>
<event>
 4    1  0.1964735E-002  0.9118800E+02  0.7818608E-02  0.1130116E+00
         25   -1    0    0    0    0  0.00000000000E+00  0.00000000000E+00  0.99999998245E-14  0.12500000000E+03  0.12500000000E+03 0.  0.
        -11    1    1    0    0    0 -0.34350157163E+02  0.42953220041E+01  0.37871362042E+02  0.51309094237E+02  0.51100000000E-03 0.  1.
         11    1    1    0    0    0 -0.36170994522E+00  0.53802233780E+01  0.11421801188E+02  0.12630723666E+02  0.51100000000E-03 0. -1.
         22    1    1    0    0    0  0.34711867108E+02 -0.96755453821E+01 -0.49293163230E+02  0.61060182097E+02  0.00000000000E+00 0.  1.
</event>
<event>
 4    1  0.1964735E-002  0.9118800E+02  0.7818608E-02  0.1130116E+00
         25   -1    0    0    0    0  0.00000000000E+00  0.00000000000E+00  0.99999998245E-14  0.12500000000E+03  0.12500000000E+03 0.  0.
        -11    1    1    0    0    0 -0.28425820803E+01 -0.29939548668E+01  0.87392794005E+01  0.96653527266E+01  0.51100000000E-03 0.  1.
         11    1    1    0    0    0  0.28987534129E+02  0.49902237851E+02  0.97705804438E+01  0.58531826555E+02  0.51100000000E-03 0. -1.
         22    1    1    0    0    0 -0.26144952048E+02 -0.46908282984E+02 -0.18509859844E+02  0.56802820719E+02  0.00000000000E+00 0. -1.
</event>
<event>
 4    1  0.1964735E-002  0.9118800E+02  0.7818608E-02  0.1130116E+00
         25   -1    0    0    0    0  0.00000000000E+00  0.00000000000E+00  0.99999998245E-14  0.12500000000E+03  0.12500000000E+03 0.  0.
        -11    1    1    0    0    0  0.31401968874E+02  0.35627887605E+02  0.35700900870E+02  0.59413671386E+02  0.51100000000E-03 0. -1.
         11    1    1    0    0    0  0.18829312100E+01  0.18172857239E+01  0.16515828993E+01  0.30944601594E+01  0.51100000000E-03 0.  1.
         22    1    1    0    0    0 -0.33284900084E+02 -0.37445173329E+02 -0.37352483769E+02  0.62491868455E+02  0.00000000000E+00 0. -1.
</event>
<event>
 4    1  0.1964735E-002  0.9118800E+02  0.7818608E-02  0.1130116E+00
         25   -1    0    0    0    0  0.00000000000E+00  0.00000000000E+00  0.99999998245E-14  0.12500000000E+03  0.12500000000E+03 0.  0.
        -11    1    1    0    0    0 -0.20917146083E+01  0.33614819544E+01  0.16511337491E+02  0.16979372690E+02  0.51100000000E-03 0.  1.
         11    1    1    0    0    0 -0.55823173854E+01  0.90242170837E+01  0.44266565917E+02  0.45520628507E+02  0.51100000000E-03 0. -1.
         22    1    1    0    0    0  0.76740319937E+01 -0.12385699038E+02 -0.60777903408E+02  0.62499998803E+02  0.00000000000E+00 0. -1.
</event>
<event>
 4    1  0.1964735E-002  0.9118800E+02  0.7818608E-02  0.1130116E+00
         25   -1    0    0    0    0  0.00000000000E+00  0.00000000000E+00  0.99999998245E-14  0.12500000000E+03  0.12500000000E+03 0.  0.
        -11    1    1    0    0    0 -0.46226459055E+01 -0.14167635547E+01 -0.25455830719E+02  0.25910912604E+02  0.51100000000E-03 0.  1.
         11    1    1    0    0    0 -0.54402002577E+01 -0.18969703304E+01 -0.36136157545E+02  0.36592569706E+02  0.51100000000E-03 0. -1.
         22    1    1    0    0    0  0.10062846163E+02  0.33137338851E+01  0.61591988264E+02  0.62496517690E+02  0.00000000000E+00 0. -1.
</event>
<event>
 4    1  0.1964735E-002  0.9118800E+02  0.7818608E-02  0.1130116E+00
         25   -1    0    0    0    0  0.00000000000E+00  0.00000000000E+00  0.99999998245E-14  0.12500000000E+03  0.12500000000E+03 0.  0.
        -11    1    1    0    0    0 -0.17419143743E+01  0.26357608063E+01  0.11754686966E+01  0.33709386873E+01  0.51100000000E-03 0. -1.
         11    1    1    0    0    0 -0.32674239518E+02  0.44822884906E+02  0.20487172515E+02  0.59130543523E+02  0.51100000000E-03 0.  1.
         22    1    1    0    0    0  0.34416153893E+02 -0.47458645713E+02 -0.21662641212E+02  0.62498517790E+02  0.00000000000E+00 0.  1.
</event>
<event>
 4    1  0.1964735E-002  0.9118800E+02  0.7818608E-02  0.1130116E+00
         25   -1    0    0    0    0  0.00000000000E+00  0.00000000000E+00  0.99999998245E-14  0.12500000000E+03  0.12500000000E+03 0.  0.
        -11    1    1    0    0    0  0.11476714052E+02  0.41289784491E+01 -0.47180966817E+01  0.13077609301E+02  0.51100000000E-03 0. -1.
         11    1    1    0    0    0  0.43396608494E+02  0.15547119203E+02 -0.17821183139E+02  0.49422394853E+02  0.51100000000E-03 0.  1.
         22    1    1    0    0    0 -0.54873322545E+02 -0.19676097652E+02  0.22539279820E+02  0.62499995847E+02  0.00000000000E+00 0.  1.
</event>
<event>
 4    1  0.1964735E-002  0.9118800E+02  0.7818608E-02  0.1130116E+00
         25   -1    0    0    0    0  0.00000000000E+00  0.00000000000E+00  0.99999998245E-14  0.12500000000E+03  0.12500000000E+03 0.  0.
        -11    1    1    0    0    0 -0.27469050553E+02 -0.10064835202E+00 -0.29188809602E+02  0.40081734925E+02  0.51100000000E-03 0.  1.
         11    1    1    0    0    0 -0.15363976318E+02 -0.56012806143E-01 -0.16325553688E+02  0.22418265080E+02  0.51100000000E-03 0.  1.
         22    1    1    0    0    0  0.42833026871E+02  0.15666115816E+00  0.45514363290E+02  0.62499999995E+02  0.00000000000E+00 0.  1.
</event>
<event>
 4    1  0.1964735E-002  0.9118800E+02  0.7818608E-02  0.1130116E+00
         25   -1    0    0    0    0  0.00000000000E+00  0.00000000000E+00  0.99999998245E-14  0.12500000000E+03  0.12500000000E+03 0.  0.
        -11    1    1    0    0    0 -0.50848516431E+01  0.72412085772E+01  0.16236485002E+02  0.18490923811E+02  0.51100000000E-03 0. -1.
         11    1    1    0    0    0 -0.87424778668E+01  0.19024146128E+02  0.38737515622E+02  0.44033443789E+02  0.51100000000E-03 0.  1.
         22    1    1    0    0    0  0.13827329510E+02 -0.26265354706E+02 -0.54974000624E+02  0.62475632400E+02  0.00000000000E+00 0.  1.
</event>
<event>
 4    1  0.1964735E-002  0.9118800E+02  0.7818608E-02  0.1130116E+00
         25   -1    0    0    0    0  0.00000000000E+00  0.00000000000E+00  0.99999998245E-14  0.12500000000E+03  0.12500000000E+03 0.  0.
        -11    1    1    0    0    0  0.11741960006E+02  0.16616920844E+02 -0.36431991053E+02  0.41728714999E+02  0.51100000000E-03 0.  1.
         11    1    1    0    0    0  0.58844933153E+01  0.81086254690E+01 -0.18195598906E+02  0.20771540347E+02  0.51100000000E-03 0. -1.
         22    1    1    0    0    0 -0.17626453321E+02 -0.24725546313E+02  0.54627589959E+02  0.62499744654E+02  0.00000000000E+00 0.  1.
</event>
<event>
 4    1  0.1964735E-002  0.9118800E+02  0.7818608E-02  0.1130116E+00
         25   -1    0    0    0    0  0.00000000000E+00  0.00000000000E+00  0.99999998245E-14  0.12500000000E+03  0.12500000000E+03 0.  0.
        -11    1    1    0    0    0  0.78653797846E+01 -0.22472117029E+01 -0.47302432658E+01  0.94493048003E+01  0.51100000000E-03 0. -1.
         11    1    1    0    0    0  0.44370881729E+02 -0.12130923872E+02 -0.26428474851E+02  0.53050907086E+02  0.51100000000E-03 0.  1.
         22    1    1    0    0    0 -0.52236261514E+02  0.14378135575E+02  0.31158718117E+02  0.62499788114E+02  0.00000000000E+00 0.  1.
</event>
<event>
 4    1  0.1964735E-002  0.9118800E+02  0.7818608E-02  0.1130116E+00
         25   -1    0    0    0    0  0.00000000000E+00  0.00000000000E+00  0.99999998245E-14  0.12500000000E+03  0.12500000000E+03 0.  0.
        -11    1    1    0    0    0  0.29467524285E+01 -0.18765436960E+01 -0.21974837441E+02  0.22250803288E+02  0.51100000000E-03 0. -1.
         11    1    1    0    0    0  0.54590430022E+01 -0.32963173334E+01 -0.39740856249E+02  0.40249254827E+02  0.51100000000E-03 0.  1.
         22    1    1    0    0    0 -0.84057954306E+01  0.51728610295E+01  0.61715693690E+02  0.62499941886E+02  0.00000000000E+00 0.  1.
</event>
<event>
 4    1  0.1964735E-002  0.9118800E+02  0.7818608E-02  0.1130116E+00
         25   -1    0    0    0    0  0.00000000000E+00  0.00000000000E+00  0.99999998245E-14  0.12500000000E+03  0.12500000000E+03 0.  0.
        -11    1    1    0    0    0 -0.28158749743E+00  0.98476788167E+00 -0.98661869188E+00  0.14221378287E+01  0.51100000000E-03 0. -1.
         11    1    1    0    0    0 -0.11934933273E+02  0.43243198654E+02 -0.41450073934E+02  0.61078027894E+02  0.51100000000E-03 0.  1.
         22    1    1    0    0    0  0.12216520770E+02 -0.44227966536E+02  0.42436692626E+02  0.62499834277E+02  0.00000000000E+00 0.  1.
</event>
<event>
 4    1  0.1964735E-002  0.9118800E+02  0.7818608E-02  0.1130116E+00
         25   -1    0    0    0    0  0.00000000000E+00  0.00000000000E+00  0.99999998245E-14  0.12500000000E+03  0.12500000000E+03 0.  0.
        -11    1    1    0    0    0  0.22031778766E+02 -0.24254511423E+02 -0.21267214070E+01  0.32836009870E+02  0.51100000000E-03 0.  1.
         11    1    1    0    0    0 -0.38601658726E+02 -0.12983869383E+02  0.22573561381E+02  0.46564306010E+02  0.51100000000E-03 0. -1.
         22    1    1    0    0    0  0.16569879960E+02  0.37238380806E+02 -0.20446839974E+02  0.45599684120E+02  0.00000000000E+00 0.  1.
</event>
<event>
 4    1  0.1964735E-002  0.9118800E+02  0.7818608E-02  0.1130116E+00
         25   -1    0    0    0    0  0.00000000000E+00  0.00000000000E+00  0.99999998245E-14  0.12500000000E+03  0.12500000000E+03 0.  0.
        -11    1    1    0    0    0 -0.23809815811E+02 -0.35892428765E+02 -0.38762688872E+02  0.57945835229E+02  0.51100000000E-03 0.  1.
         11    1    1    0    0    0 -0.77285157509E+01  0.13008437729E+02  0.15556268397E+02  0.21701310895E+02  0.51100000000E-03 0. -1.
         22    1    1    0    0    0  0.31538331561E+02  0.22883991036E+02  0.23206420475E+02  0.45352853876E+02  0.00000000000E+00 0.  1.
</event>
<event>
 4    1  0.1964735E-002  0.9118800E+02  0.7818608E-02  0.1130116E+00
         25   -1    0    0    0    0  0.00000000000E+00  0.00000000000E+00  0.99999998245E-14  0.12500000000E+03  0.12500000000E+03 0.  0.
        -11    1    1    0    0    0  0.17142939225E+02 -0.74208297585E+01 -0.60754550523E+01  0.19643325429E+02  0.51100000000E-03 0.  1.
         11    1    1    0    0    0  0.37401051886E+02 -0.16188781671E+02 -0.13258175711E+02  0.42856674598E+02  0.51100000000E-03 0. -1.
         22    1    1    0    0    0 -0.54543991110E+02  0.23609611429E+02  0.19333630764E+02  0.62499999973E+02  0.00000000000E+00 0. -1.
</event>
<event>
 4    1  0.1964735E-002  0.9118800E+02  0.7818608E-02  0.1130116E+00
         25   -1    0    0    0    0  0.00000000000E+00  0.00000000000E+00  0.99999998245E-14  0.12500000000E+03  0.12500000000E+03 0.  0.
        -11    1    1    0    0    0 -0.19221392994E+02 -0.55162700746E+02  0.12745200636E+02  0.59789845641E+02  0.51100000000E-03 0. -1.
         11    1    1    0    0    0 -0.61046720044E+00 -0.26445979941E+01  0.26202625077E+00  0.27267612236E+01  0.51100000000E-03 0.  1.
         22    1    1    0    0    0  0.19831860195E+02  0.57807298740E+02 -0.13007226887E+02  0.62483393135E+02  0.00000000000E+00 0. -1.
</event>
<event>
 4    1  0.1964735E-002  0.9118800E+02  0.7818608E-02  0.1130116E+00
         25   -1    0    0    0    0  0.00000000000E+00  0.00000000000E+00  0.99999998245E-14  0.12500000000E+03  0.12500000000E+03 0.  0.
        -11    1    1    0    0    0 -0.37732645246E+02 -0.35155647084E+01  0.10886208372E+01  0.37911697510E+02  0.51100000000E-03 0.  1.
         11    1    1    0    0    0 -0.24472224111E+02 -0.22795924237E+01  0.70592125692E+00  0.24588302496E+02  0.51100000000E-03 0.  1.
         22    1    1    0    0    0  0.62204869357E+02  0.57951571321E+01 -0.17945420941E+01  0.62499999994E+02  0.00000000000E+00 0.  1.
</event>
<event>
 4    1  0.1964735E-002  0.9118800E+02  0.7818608E-02  0.1130116E+00
         25   -1    0    0    0    0  0.00000000000E+00  0.00000000000E+00  0.99999998245E-14  0.12500000000E+03  0.12500000000E+03 0.  0.
        -11    1    1    0    0    0 -0.26162182258E+02 -0.32314334106E+02 -0.18545151653E+02  0.45525801687E+02  0.51100000000E-03 0.  1.
         11    1    1    0    0    0 -0.68556713578E+01 -0.15950845253E+02  0.10896439396E+02  0.20497855640E+02  0.51100000000E-03 0. -1.
         22    1    1    0    0    0  0.33017853615E+02  0.48265179359E+02  0.76487122569E+01  0.58976342673E+02  0.00000000000E+00 0.  1.
</event>
<event>
 4    1  0.1964735E-002  0.9118800E+02  0.7818608E-02  0.1130116E+00
         25   -1    0    0    0    0  0.00000000000E+00  0.00000000000E+00  0.99999998245E-14  0.12500000000E+03  0.12500000000E+03 0.  0.
        -11    1    1    0    0    0 -0.15116498638E+02 -0.50227954829E+01  0.35955952021E+02  0.39326422308E+02  0.51100000000E-03 0.  1.
         11    1    1    0    0    0 -0.10757289237E+02 -0.20195571003E+01  0.20463068593E+02  0.23206358161E+02  0.51100000000E-03 0. -1.
         22    1    1    0    0    0  0.25873787875E+02  0.70423525832E+01 -0.56419020614E+02  0.62467219531E+02  0.00000000000E+00 0. -1.
</event>
<event>
 4    1  0.1964735E-002  0.9118800E+02  0.7818608E-02  0.1130116E+00
         25   -1    0    0    0    0  0.00000000000E+00  0.00000000000E+00  0.99999998245E-14  0.12500000000E+03  0.12500000000E+03 0.  0.
        -11    1    1    0    0    0 -0.39117491213E+02  0.22996154093E+02  0.39952861874E+02  0.60458517961E+02  0.51100000000E-03 0.  1.
         11    1    1    0    0    0 -0.11401017094E+01  0.26973840486E+01 -0.21608884844E+01  0.36393889483E+01  0.51100000000E-03 0. -1.
         22    1    1    0    0    0  0.40257592922E+02 -0.25693538142E+02 -0.37791973389E+02  0.60902093091E+02  0.00000000000E+00 0.  1.
</event>
<event>
 4    1  0.1964735E-002  0.9118800E+02  0.7818608E-02  0.1130116E+00
         25   -1    0    0    0    0  0.00000000000E+00  0.00000000000E+00  0.99999998245E-14  0.12500000000E+03  0.12500000000E+03 0.  0.
        -11    1    1    0    0    0  0.23820292589E+02 -0.20291330685E+02  0.51632352913E+02  0.60374202335E+02  0.51100000000E-03 0. -1.
         11    1    1    0    0    0 -0.80427205662E+01 -0.34809146300E+01 -0.53863432284E+01  0.10286632802E+02  0.51100000000E-03 0.  1.
         22    1    1    0    0    0 -0.15777572022E+02  0.23772245315E+02 -0.46246009685E+02  0.54339164863E+02  0.00000000000E+00 0. -1.
</event>
<event>
 4    1  0.1964735E-002  0.9118800E+02  0.7818608E-02  0.1130116E+00
         25   -1    0    0    0    0  0.00000000000E+00  0.00000000000E+00  0.99999998245E-14  0.12500000000E+03  0.12500000000E+03 0.  0.
        -11    1    1    0    0    0  0.19957580121E+02 -0.92862377988E+01 -0.10113150497E+02  0.24224265313E+02  0.51100000000E-03 0.  1.
         11    1    1    0    0    0  0.30678687575E+02 -0.17167603123E+02 -0.15185318184E+02  0.38294939051E+02  0.51100000000E-03 0. -1.
         22    1    1    0    0    0 -0.50636267696E+02  0.26453840921E+02  0.25298468681E+02  0.62480795636E+02  0.00000000000E+00 0.  1.
</event>
<event>
 4    1  0.1964735E-002  0.9118800E+02  0.7818608E-02  0.1130116E+00
         25   -1    0    0    0    0  0.00000000000E+00  0.00000000000E+00  0.99999998245E-14  0.12500000000E+03  0.12500000000E+03 0.  0.
        -11    1    1    0    0    0  0.44813217297E+02 -0.24064328028E+02  0.22832690304E+02  0.55755251544E+02  0.51100000000E-03 0.  1.
         11    1    1    0    0    0  0.54205448395E+01 -0.29110174376E+01  0.27632052822E+01  0.67447485181E+01  0.51100000000E-03 0. -1.
         22    1    1    0    0    0 -0.50233762136E+02  0.26975345466E+02 -0.25595895587E+02  0.62499999938E+02  0.00000000000E+00 0.  1.
</event>
<event>
 4    1  0.1964735E-002  0.9118800E+02  0.7818608E-02  0.1130116E+00
         25   -1    0    0    0    0  0.00000000000E+00  0.00000000000E+00  0.99999998245E-14  0.12500000000E+03  0.12500000000E+03 0.  0.
        -11    1    1    0    0    0 -0.19451328450E+02 -0.43171800751E+02  0.38216522450E+02  0.60849495865E+02  0.51100000000E-03 0.  1.
         11    1    1    0    0    0 -0.52814512195E+00 -0.11706980924E+01  0.10366738503E+01  0.16505042340E+01  0.51100000000E-03 0. -1.
         22    1    1    0    0    0  0.19979473572E+02  0.44342498843E+02 -0.39253196301E+02  0.62499999901E+02  0.00000000000E+00 0.  1.
</event>
<event>
 4    1  0.1964735E-002  0.9118800E+02  0.7818608E-02  0.1130116E+00
         25   -1    0    0    0    0  0.00000000000E+00  0.00000000000E+00  0.99999998245E-14  0.12500000000E+03  0.12500000000E+03 0.  0.
        -11    1    1    0    0    0 -0.51994752919E+01 -0.16504012890E+02  0.55004458342E+01  0.18156868932E+02  0.51100000000E-03 0.  1.
         11    1    1    0    0    0 -0.13590412365E+02 -0.40749809301E+02  0.11047097084E+02  0.44354082344E+02  0.51100000000E-03 0. -1.
         22    1    1    0    0    0  0.18789887657E+02  0.57253822192E+02 -0.16547542918E+02  0.62489048723E+02  0.00000000000E+00 0. -1.
</event>
<event>
 4    1  0.1964735E-002  0.9118800E+02  0.7818608E-02  0.1130116E+00
         25   -1    0    0    0    0  0.00000000000E+00  0.00000000000E+00  0.99999998245E-14  0.12500000000E+03  0.12500000000E+03 0.  0.
        -11    1    1    0    0    0  0.10174007077E+02 -0.45324824584E+02 -0.13831016084E+02  0.48468001298E+02  0.51100000000E-03 0.  1.
         11    1    1    0    0    0  0.28138702021E+01 -0.13092571298E+02 -0.41934029596E+01  0.14032744469E+02  0.51100000000E-03 0. -1.
         22    1    1    0    0    0 -0.12987877280E+02  0.58417395882E+02  0.18024419044E+02  0.62499254233E+02  0.00000000000E+00 0.  1.
</event>
<event>
 4    1  0.1964735E-002  0.9118800E+02  0.7818608E-02  0.1130116E+00
         25   -1    0    0    0    0  0.00000000000E+00  0.00000000000E+00  0.99999998245E-14  0.12500000000E+03  0.12500000000E+03 0.  0.
        -11    1    1    0    0    0 -0.30100389451E+01  0.18945100529E+02 -0.62202865006E+01  0.20166039098E+02  0.51100000000E-03 0.  1.
         11    1    1    0    0    0 -0.64074588944E+01  0.39670212055E+02 -0.13319042036E+02  0.42334124946E+02  0.51100000000E-03 0. -1.
         22    1    1    0    0    0  0.94174978395E+01 -0.58615312583E+02  0.19539328537E+02  0.62499835956E+02  0.00000000000E+00 0. -1.
</event>
<event>
 4    1  0.1964735E-002  0.9118800E+02  0.7818608E-02  0.1130116E+00
         25   -1    0    0    0    0  0.00000000000E+00  0.00000000000E+00  0.99999998245E-14  0.12500000000E+03  0.12500000000E+03 0.  0.
        -11    1    1    0    0    0  0.94729508748E+01  0.27791537751E+02  0.41052468570E+01  0.29647249802E+02  0.51100000000E-03 0.  1.
         11    1    1    0    0    0  0.12505149280E+02  0.29593457962E+02  0.70680613619E+01  0.32895425280E+02  0.51100000000E-03 0. -1.
         22    1    1    0    0    0 -0.21978100155E+02 -0.57384995712E+02 -0.11173308219E+02  0.62457324918E+02  0.00000000000E+00 0.  1.
</event>
<event>
 4    1  0.1964735E-002  0.9118800E+02  0.7818608E-02  0.1130116E+00
         25   -1    0    0    0    0  0.00000000000E+00  0.00000000000E+00  0.99999998245E-14  0.12500000000E+03  0.12500000000E+03 0.  0.
        -11    1    1    0    0    0 -0.17525072150E+02  0.59413401355E+02  0.38251642496E+01  0.62062164772E+02  0.51100000000E-03 0.  1.
         11    1    1    0    0    0 -0.12338552782E+00  0.41919464216E+00  0.27414305556E-01  0.43783551908E+00  0.51100000000E-03 0.  1.
         22    1    1    0    0    0  0.17648457677E+02 -0.59832595997E+02 -0.38525785551E+01  0.62499999709E+02  0.00000000000E+00 0.  1.
</event>
<event>
 4    1  0.1964735E-002  0.9118800E+02  0.7818608E-02  0.1130116E+00
         25   -1    0    0    0    0  0.00000000000E+00  0.00000000000E+00  0.99999998245E-14  0.12500000000E+03  0.12500000000E+03 0.  0.
        -11    1    1    0    0    0 -0.73646502273E+01  0.10479738573E+02  0.50090951410E+02  0.51702673112E+02  0.51100000000E-03 0.  1.
         11    1    1    0    0    0 -0.15437816222E+01  0.22030062308E+01  0.10456857863E+02  0.10797331836E+02  0.51100000000E-03 0. -1.
         22    1    1    0    0    0  0.89084318495E+01 -0.12682744804E+02 -0.60547809273E+02  0.62499995052E+02  0.00000000000E+00 0.  1.
</event>
<event>
 4    1  0.1964735E-002  0.9118800E+02  0.7818608E-02  0.1130116E+00
         25   -1    0    0    0    0  0.00000000000E+00  0.00000000000E+00  0.99999998245E-14  0.12500000000E+03  0.12500000000E+03 0.  0.
        -11    1    1    0    0    0  0.47027447770E+00  0.39952606018E+01  0.20824504436E+01  0.45298858122E+01  0.51100000000E-03 0. -1.
         11    1    1    0    0    0  0.13231038398E+02  0.46317576711E+02  0.32311650088E+02  0.58003629379E+02  0.51100000000E-03 0.  1.
         22    1    1    0    0    0 -0.13701312876E+02 -0.50312837313E+02 -0.34394100531E+02  0.62466484809E+02  0.00000000000E+00 0.  1.
</event>
<event>
 4    1  0.1964735E-002  0.9118800E+02  0.7818608E-02  0.1130116E+00
         25   -1    0    0    0    0  0.00000000000E+00  0.00000000000E+00  0.99999998245E-14  0.12500000000E+03  0.12500000000E+03 0.  0.
        -11    1    1    0    0    0  0.85966676051E+00  0.25056304387E+00  0.97270515215E+00  0.13221060291E+01  0.51100000000E-03 0.  1.
         11    1    1    0    0    0  0.39959660976E+02  0.11431761494E+02  0.44891823436E+02  0.61177900322E+02  0.51100000000E-03 0. -1.
         22    1    1    0    0    0 -0.40819327737E+02 -0.11682324537E+02 -0.45864528588E+02  0.62499993649E+02  0.00000000000E+00 0. -1.
</event>
<event>
 4    1  0.1964735E-002  0.9118800E+02  0.7818608E-02  0.1130116E+00
         25   -1    0    0    0    0  0.00000000000E+00  0.00000000000E+00  0.99999998245E-14  0.12500000000E+03  0.12500000000E+03 0.  0.
        -11    1    1    0    0    0  0.54492091526E+01 -0.12519277463E+02  0.15523070802E+02  0.20673459217E+02  0.51100000000E-03 0.  1.
         11    1    1    0    0    0  0.11030796895E+02 -0.25299974898E+02  0.31427575858E+02  0.41826543421E+02  0.51100000000E-03 0. -1.
         22    1    1    0    0    0 -0.16480006048E+02  0.37819252361E+02 -0.46950646660E+02  0.62499997362E+02  0.00000000000E+00 0. -1.
</event>
<event>
 4    1  0.1964735E-002  0.9118800E+02  0.7818608E-02  0.1130116E+00
         25   -1    0    0    0    0  0.00000000000E+00  0.00000000000E+00  0.99999998245E-14  0.12500000000E+03  0.12500000000E+03 0.  0.
        -11    1    1    0    0    0  0.16416512334E+02  0.26858872552E+01 -0.15684333281E+01  0.16708556219E+02  0.51100000000E-03 0.  1.
         11    1    1    0    0    0  0.44993223685E+02  0.73521309311E+01 -0.42909597305E+01  0.45791443988E+02  0.51100000000E-03 0. -1.
         22    1    1    0    0    0 -0.61409736020E+02 -0.10038018186E+02  0.58593930586E+01  0.62499999793E+02  0.00000000000E+00 0. -1.
</event>
<event>
 4    1  0.1964735E-002  0.9118800E+02  0.7818608E-02  0.1130116E+00
         25   -1    0    0    0    0  0.00000000000E+00  0.00000000000E+00  0.99999998245E-14  0.12500000000E+03  0.12500000000E+03 0.  0.
        -11    1    1    0    0    0 -0.99965556626E+01  0.67987936152E+00 -0.44031453584E+01  0.10944452950E+02  0.51100000000E-03 0. -1.
         11    1    1    0    0    0 -0.47087876993E+02  0.32204662545E+01 -0.20744514900E+02  0.51555547338E+02  0.51100000000E-03 0.  1.
         22    1    1    0    0    0  0.57084432656E+02 -0.39003456161E+01  0.25147660259E+02  0.62499999712E+02  0.00000000000E+00 0.  1.
</event>
<event>
 4    1  0.1964735E-002  0.9118800E+02  0.7818608E-02  0.1130116E+00
         25   -1    0    0    0    0  0.00000000000E+00  0.00000000000E+00  0.99999998245E-14  0.12500000000E+03  0.12500000000E+03 0.  0.
        -11    1    1    0    0    0  0.11919800646E+00  0.29137369225E+00 -0.15633397420E+00  0.35149305240E+00  0.51100000000E-03 0.  1.
         11    1    1    0    0    0  0.21042735187E+02  0.51498249902E+02 -0.27705062842E+02  0.62148507259E+02  0.51100000000E-03 0. -1.
         22    1    1    0    0    0 -0.21161933193E+02 -0.51789623595E+02  0.27861396816E+02  0.62499999689E+02  0.00000000000E+00 0. -1.
</event>
<event>
 4    1  0.1964735E-002  0.9118800E+02  0.7818608E-02  0.1130116E+00
         25   -1    0    0    0    0  0.00000000000E+00  0.00000000000E+00  0.99999998245E-14  0.12500000000E+03  0.12500000000E+03 0.  0.
        -11    1    1    0    0    0  0.51406298265E+02  0.16523449312E+02 -0.88066966734E+01  0.54710051956E+02  0.51100000000E-03 0. -1.
         11    1    1    0    0    0  0.73192722481E+01  0.23530549645E+01 -0.12548613316E+01  0.77899480826E+01  0.51100000000E-03 0.  1.
         22    1    1    0    0    0 -0.58725570513E+02 -0.18876504276E+02  0.10061558005E+02  0.62499999962E+02  0.00000000000E+00 0. -1.
</event>
<event>
 4    1  0.1964735E-002  0.9118800E+02  0.7818608E-02  0.1130116E+00
         25   -1    0    0    0    0  0.00000000000E+00  0.00000000000E+00  0.99999998245E-14  0.12500000000E+03  0.12500000000E+03 0.  0.
        -11    1    1    0    0    0  0.24783444214E+02  0.49242869404E+02  0.24224782877E+02  0.60215607611E+02  0.51100000000E-03 0. -1.
         11    1    1    0    0    0  0.94114449581E+00  0.18671850741E+01  0.91995471101E+00  0.22843926971E+01  0.51100000000E-03 0.  1.
         22    1    1    0    0    0 -0.25724588709E+02 -0.51110054479E+02 -0.25144737588E+02  0.62499999692E+02  0.00000000000E+00 0. -1.
</event>
<event>
 4    1  0.1964735E-002  0.9118800E+02  0.7818608E-02  0.1130116E+00
         25   -1    0    0    0    0  0.00000000000E+00  0.00000000000E+00  0.99999998245E-14  0.12500000000E+03  0.12500000000E+03 0.  0.
        -11    1    1    0    0    0 -0.25169857321E+01  0.93006462785E-01  0.20805606669E+01  0.32668946000E+01  0.51100000000E-03 0. -1.
         11    1    1    0    0    0 -0.45635380329E+02  0.17563957230E+01  0.37721188241E+02  0.59233106505E+02  0.51100000000E-03 0.  1.
         22    1    1    0    0    0  0.48152366061E+02 -0.18494021858E+01 -0.39801748908E+02  0.62499998895E+02  0.00000000000E+00 0.  1.
</event>
<event>
 4    1  0.1964735E-002  0.9118800E+02  0.7818608E-02  0.1130116E+00
         25   -1    0    0    0    0  0.00000000000E+00  0.00000000000E+00  0.99999998245E-14  0.12500000000E+03  0.12500000000E+03 0.  0.
        -11    1    1    0    0    0  0.16951289791E+00  0.89092047293E+00  0.81110538509E+01  0.81615971932E+01  0.51100000000E-03 0. -1.
         11    1    1    0    0    0  0.11286021871E+01  0.59446048803E+01  0.54000462604E+02  0.54338402919E+02  0.51100000000E-03 0.  1.
         22    1    1    0    0    0 -0.12981150850E+01 -0.68355253532E+01 -0.62111516455E+02  0.62499999888E+02  0.00000000000E+00 0.  1.
</event>
<event>
 4    1  0.1964735E-002  0.9118800E+02  0.7818608E-02  0.1130116E+00
         25   -1    0    0    0    0  0.00000000000E+00  0.00000000000E+00  0.99999998245E-14  0.12500000000E+03  0.12500000000E+03 0.  0.
        -11    1    1    0    0    0  0.46897757566E+02  0.91510829195E+01  0.67120990769E+01  0.48251365345E+02  0.51100000000E-03 0. -1.
         11    1    1    0    0    0  0.13850277496E+02  0.26989720101E+01  0.19771108763E+01  0.14248635173E+02  0.51100000000E-03 0.  1.
         22    1    1    0    0    0 -0.60748035062E+02 -0.11850054930E+02 -0.86892099533E+01  0.62499999482E+02  0.00000000000E+00 0. -1.
</event>
<event>
 4    1  0.1964735E-002  0.9118800E+02  0.7818608E-02  0.1130116E+00
         25   -1    0    0    0    0  0.00000000000E+00  0.00000000000E+00  0.99999998245E-14  0.12500000000E+03  0.12500000000E+03 0.  0.
        -11    1    1    0    0    0  0.47451998623E+02 -0.21935838062E+01 -0.19830635020E+02  0.51475800808E+02  0.51100000000E-03 0.  1.
         11    1    1    0    0    0  0.93117598181E+01  0.34000192685E+01 -0.55186679015E+01  0.11345690706E+02  0.51100000000E-03 0. -1.
         22    1    1    0    0    0 -0.56763758441E+02 -0.12064354623E+01  0.25349302921E+02  0.62178508486E+02  0.00000000000E+00 0.  1.
</event>
<event>
 4    1  0.1964735E-002  0.9118800E+02  0.7818608E-02  0.1130116E+00
         25   -1    0    0    0    0  0.00000000000E+00  0.00000000000E+00  0.99999998245E-14  0.12500000000E+03  0.12500000000E+03 0.  0.
        -11    1    1    0    0    0  0.47196907184E+02  0.14273683204E+02  0.15183866974E+01  0.49331446141E+02  0.51100000000E-03 0.  1.
         11    1    1    0    0    0  0.12595267061E+02  0.38245574512E+01  0.37840505487E+00  0.13168567981E+02  0.51100000000E-03 0. -1.
         22    1    1    0    0    0 -0.59792174245E+02 -0.18098240655E+02 -0.18967917523E+01  0.62499985878E+02  0.00000000000E+00 0.  1.
</event>
<event>
 4    1  0.1964735E-002  0.9118800E+02  0.7818608E-02  0.1130116E+00
         25   -1    0    0    0    0  0.00000000000E+00  0.00000000000E+00  0.99999998245E-14  0.12500000000E+03  0.12500000000E+03 0.  0.
        -11    1    1    0    0    0  0.17794366865E+02  0.31044029376E+02 -0.43380123763E+02  0.56233498824E+02  0.51100000000E-03 0. -1.
         11    1    1    0    0    0  0.20845231265E+01  0.35006370652E+01 -0.47620461712E+01  0.62671189972E+01  0.51100000000E-03 0.  1.
         22    1    1    0    0    0 -0.19878889991E+02 -0.34544666441E+02  0.48142169934E+02  0.62499382179E+02  0.00000000000E+00 0. -1.
</event>
<event>
 4    1  0.1964735E-002  0.9118800E+02  0.7818608E-02  0.1130116E+00
         25   -1    0    0    0    0  0.00000000000E+00  0.00000000000E+00  0.99999998245E-14  0.12500000000E+03  0.12500000000E+03 0.  0.
        -11    1    1    0    0    0 -0.22341448648E+02 -0.11279115658E+01  0.44945444939E+02  0.50204636571E+02  0.51100000000E-03 0. -1.
         11    1    1    0    0    0 -0.54696110333E+01 -0.26999163528E+00  0.11008471239E+02  0.12295364151E+02  0.51100000000E-03 0.  1.
         22    1    1    0    0    0  0.27811059682E+02  0.13979032011E+01 -0.55953916178E+02  0.62499999277E+02  0.00000000000E+00 0. -1.
</event>
<event>
 4    1  0.1964735E-002  0.9118800E+02  0.7818608E-02  0.1130116E+00
         25   -1    0    0    0    0  0.00000000000E+00  0.00000000000E+00  0.99999998245E-14  0.12500000000E+03  0.12500000000E+03 0.  0.
        -11    1    1    0    0    0  0.16543317658E+01 -0.21179284577E+01 -0.12593310909E+01  0.29678863861E+01  0.51100000000E-03 0. -1.
         11    1    1    0    0    0  0.16158433196E+02 -0.34119530713E+02  0.47478867339E+02  0.60658718940E+02  0.51100000000E-03 0.  1.
         22    1    1    0    0    0 -0.17812764962E+02  0.36237459171E+02 -0.46219536248E+02  0.61373394673E+02  0.00000000000E+00 0.  1.
</event>
<event>
 4    1  0.1964735E-002  0.9118800E+02  0.7818608E-02  0.1130116E+00
         25   -1    0    0    0    0  0.00000000000E+00  0.00000000000E+00  0.99999998245E-14  0.12500000000E+03  0.12500000000E+03 0.  0.
        -11    1    1    0    0    0  0.17010881910E+02  0.23008340744E+02 -0.34078702365E+02  0.44498447190E+02  0.51100000000E-03 0. -1.
         11    1    1    0    0    0  0.68813159827E+01  0.91317769768E+01 -0.13904317290E+02  0.18001997111E+02  0.51100000000E-03 0.  1.
         22    1    1    0    0    0 -0.23892197893E+02 -0.32140117721E+02  0.47983019656E+02  0.62499555699E+02  0.00000000000E+00 0. -1.
</event>
<event>
 4    1  0.1964735E-002  0.9118800E+02  0.7818608E-02  0.1130116E+00
         25   -1    0    0    0    0  0.00000000000E+00  0.00000000000E+00  0.99999998245E-14  0.12500000000E+03  0.12500000000E+03 0.  0.
        -11    1    1    0    0    0 -0.37694096701E+00  0.55347151992E+00 -0.51420286835E+00  0.84428672080E+00  0.51100000000E-03 0. -1.
         11    1    1    0    0    0 -0.27322312076E+02  0.40329523759E+02 -0.37794821127E+02  0.61655719346E+02  0.51100000000E-03 0.  1.
         22    1    1    0    0    0  0.27699253043E+02 -0.40882995279E+02  0.38309023996E+02  0.62499993933E+02  0.00000000000E+00 0.  1.
</event>
<event>
 4    1  0.1964735E-002  0.9118800E+02  0.7818608E-02  0.1130116E+00
         25   -1    0    0    0    0  0.00000000000E+00  0.00000000000E+00  0.99999998245E-14  0.12500000000E+03  0.12500000000E+03 0.  0.
        -11    1    1    0    0    0 -0.12314398604E+01 -0.80858686880E+00  0.37154394809E+01  0.39968422100E+01  0.51100000000E-03 0.  1.
         11    1    1    0    0    0 -0.21050637354E+02 -0.42494115964E+02  0.34876683065E+02  0.58866478122E+02  0.51100000000E-03 0. -1.
         22    1    1    0    0    0  0.22282077214E+02  0.43302702833E+02 -0.38592122546E+02  0.62136679668E+02  0.00000000000E+00 0. -1.
</event>
<event>
 4    1  0.1964735E-002  0.9118800E+02  0.7818608E-02  0.1130116E+00
         25   -1    0    0    0    0  0.00000000000E+00  0.00000000000E+00  0.99999998245E-14  0.12500000000E+03  0.12500000000E+03 0.  0.
        -11    1    1    0    0    0  0.14206244070E+01  0.52633506629E+02  0.38853609431E+01  0.52795835287E+02  0.51100000000E-03 0. -1.
         11    1    1    0    0    0  0.33988078721E+00  0.96681129209E+01  0.76593429405E+00  0.97043589178E+01  0.51100000000E-03 0.  1.
         22    1    1    0    0    0 -0.17605051942E+01 -0.62301619550E+02 -0.46512952372E+01  0.62499805795E+02  0.00000000000E+00 0. -1.
</event>
<event>
 4    1  0.1964735E-002  0.9118800E+02  0.7818608E-02  0.1130116E+00
         25   -1    0    0    0    0  0.00000000000E+00  0.00000000000E+00  0.99999998245E-14  0.12500000000E+03  0.12500000000E+03 0.  0.
        -11    1    1    0    0    0 -0.74593955664E+01 -0.17729276804E+02  0.14340733573E+02  0.23992217027E+02  0.51100000000E-03 0.  1.
         11    1    1    0    0    0 -0.11982904166E+02 -0.28456915798E+02  0.23010070215E+02  0.38507783377E+02  0.51100000000E-03 0. -1.
         22    1    1    0    0    0  0.19442299732E+02  0.46186192602E+02 -0.37350803788E+02  0.62499999597E+02  0.00000000000E+00 0. -1.
</event>
<event>
 4    1  0.1964735E-002  0.9118800E+02  0.7818608E-02  0.1130116E+00
         25   -1    0    0    0    0  0.00000000000E+00  0.00000000000E+00  0.99999998245E-14  0.12500000000E+03  0.12500000000E+03 0.  0.
        -11    1    1    0    0    0  0.58096143396E+02  0.13080403720E+02  0.11684192078E+02  0.60685905973E+02  0.51100000000E-03 0. -1.
         11    1    1    0    0    0  0.17372750655E+01  0.39377495654E+00  0.34318441005E+00  0.18141000993E+01  0.51100000000E-03 0.  1.
         22    1    1    0    0    0 -0.59833418461E+02 -0.13474178677E+02 -0.12027376488E+02  0.62499993928E+02  0.00000000000E+00 0. -1.
</event>
<event>
 4    1  0.1964735E-002  0.9118800E+02  0.7818608E-02  0.1130116E+00
         25   -1    0    0    0    0  0.00000000000E+00  0.00000000000E+00  0.99999998245E-14  0.12500000000E+03  0.12500000000E+03 0.  0.
        -11    1    1    0    0    0  0.27122750356E+01 -0.38638386905E+01  0.11529007965E+01  0.48595129182E+01  0.51100000000E-03 0.  1.
         11    1    1    0    0    0  0.32175736944E+02 -0.45826466294E+02  0.13677817561E+02  0.57640487111E+02  0.51100000000E-03 0.  1.
         22    1    1    0    0    0 -0.34888011980E+02  0.49690304985E+02 -0.14830718357E+02  0.62499999971E+02  0.00000000000E+00 0.  1.
</event>
<event>
 4    1  0.1964735E-002  0.9118800E+02  0.7818608E-02  0.1130116E+00
         25   -1    0    0    0    0  0.00000000000E+00  0.00000000000E+00  0.99999998245E-14  0.12500000000E+03  0.12500000000E+03 0.  0.
        -11    1    1    0    0    0 -0.28160551232E+02 -0.20301757636E+02 -0.34418730273E+00  0.34717379999E+02  0.51100000000E-03 0.  1.
         11    1    1    0    0    0 -0.21827127152E+02 -0.17175533499E+02  0.11971296902E+01  0.27800279682E+02  0.51100000000E-03 0. -1.
         22    1    1    0    0    0  0.49987678384E+02  0.37477291135E+02 -0.85294238750E+00  0.62482340319E+02  0.00000000000E+00 0.  1.
</event>
<event>
 4    1  0.1964735E-002  0.9118800E+02  0.7818608E-02  0.1130116E+00
         25   -1    0    0    0    0  0.00000000000E+00  0.00000000000E+00  0.99999998245E-14  0.12500000000E+03  0.12500000000E+03 0.  0.
        -11    1    1    0    0    0  0.27636142394E+02 -0.43946087899E+01 -0.53346243322E+01  0.28487315947E+02  0.51100000000E-03 0. -1.
         11    1    1    0    0    0  0.32998654219E+02 -0.52478049609E+01 -0.63570492345E+01  0.34012684581E+02  0.51100000000E-03 0.  1.
         22    1    1    0    0    0 -0.60634796613E+02  0.96424137508E+01  0.11691673567E+02  0.62499999472E+02  0.00000000000E+00 0. -1.
</event>
<event>
 4    1  0.1964735E-002  0.9118800E+02  0.7818608E-02  0.1130116E+00
         25   -1    0    0    0    0  0.00000000000E+00  0.00000000000E+00  0.99999998245E-14  0.12500000000E+03  0.12500000000E+03 0.  0.
        -11    1    1    0    0    0 -0.35042173413E+00 -0.19768231460E+01  0.38879032309E+01  0.43756618855E+01  0.51100000000E-03 0. -1.
         11    1    1    0    0    0 -0.67812087827E+01 -0.29631436593E+02  0.49549389401E+02  0.58130446562E+02  0.51100000000E-03 0.  1.
         22    1    1    0    0    0  0.71316305169E+01  0.31608259739E+02 -0.53437292632E+02  0.62493891553E+02  0.00000000000E+00 0.  1.
</event>
<event>
 4    1  0.1964735E-002  0.9118800E+02  0.7818608E-02  0.1130116E+00
         25   -1    0    0    0    0  0.00000000000E+00  0.00000000000E+00  0.99999998245E-14  0.12500000000E+03  0.12500000000E+03 0.  0.
        -11    1    1    0    0    0  0.28816687586E+02 -0.28940781635E+02  0.27349199287E+02  0.49152304392E+02  0.51100000000E-03 0.  1.
         11    1    1    0    0    0  0.78290850156E+01 -0.78604036670E+01  0.74216222553E+01  0.13347696249E+02  0.51100000000E-03 0. -1.
         22    1    1    0    0    0 -0.36645772602E+02  0.36801185302E+02 -0.34770821542E+02  0.62499999360E+02  0.00000000000E+00 0.  1.
</event>
<event>
 4    1  0.1964735E-002  0.9118800E+02  0.7818608E-02  0.1130116E+00
         25   -1    0    0    0    0  0.00000000000E+00  0.00000000000E+00  0.99999998245E-14  0.12500000000E+03  0.12500000000E+03 0.  0.
        -11    1    1    0    0    0  0.28501926106E+01 -0.10974330461E+02  0.72766861351E+01  0.13472553149E+02  0.51100000000E-03 0. -1.
         11    1    1    0    0    0  0.12367028041E+02 -0.38683721196E+02  0.27477667244E+02  0.49034639445E+02  0.51100000000E-03 0.  1.
         22    1    1    0    0    0 -0.15217220652E+02  0.49658051657E+02 -0.34754353379E+02  0.62492807406E+02  0.00000000000E+00 0.  1.
</event>
<event>
 4    1  0.1964735E-002  0.9118800E+02  0.7818608E-02  0.1130116E+00
         25   -1    0    0    0    0  0.00000000000E+00  0.00000000000E+00  0.99999998245E-14  0.12500000000E+03  0.12500000000E+03 0.  0.
        -11    1    1    0    0    0 -0.10056168665E+02 -0.17259075292E+02  0.26502908041E+02  0.33187442551E+02  0.51100000000E-03 0.  1.
         11    1    1    0    0    0 -0.21156723014E+02  0.37991478178E+01  0.23181258587E+02  0.31613465529E+02  0.51100000000E-03 0. -1.
         22    1    1    0    0    0  0.31212891678E+02  0.13459927474E+02 -0.49684166628E+02  0.60199091921E+02  0.00000000000E+00 0. -1.
</event>
<event>
 4    1  0.1964735E-002  0.9118800E+02  0.7818608E-02  0.1130116E+00
         25   -1    0    0    0    0  0.00000000000E+00  0.00000000000E+00  0.99999998245E-14  0.12500000000E+03  0.12500000000E+03 0.  0.
        -11    1    1    0    0    0 -0.38877277911E+02 -0.27394586325E+02 -0.16300576495E+02  0.50275390520E+02  0.51100000000E-03 0.  1.
         11    1    1    0    0    0 -0.94534671495E+01 -0.66606100638E+01 -0.39634971166E+01  0.12224609492E+02  0.51100000000E-03 0.  1.
         22    1    1    0    0    0  0.48330745060E+02  0.34055196389E+02  0.20264073611E+02  0.62499999988E+02  0.00000000000E+00 0.  1.
</event>
<event>
 4    1  0.1964735E-002  0.9118800E+02  0.7818608E-02  0.1130116E+00
         25   -1    0    0    0    0  0.00000000000E+00  0.00000000000E+00  0.99999998245E-14  0.12500000000E+03  0.12500000000E+03 0.  0.
        -11    1    1    0    0    0 -0.59008241785E+00  0.41107880408E+01 -0.21245189311E+01  0.46647997305E+01  0.51100000000E-03 0. -1.
         11    1    1    0    0    0 -0.73256491833E+01  0.50960458805E+02 -0.26349134747E+02  0.57835200352E+02  0.51100000000E-03 0. -1.
         22    1    1    0    0    0  0.79157316012E+01 -0.55071246846E+02  0.28473653678E+02  0.62499999918E+02  0.00000000000E+00 0. -1.
</event>
<event>
 4    1  0.1964735E-002  0.9118800E+02  0.7818608E-02  0.1130116E+00
         25   -1    0    0    0    0  0.00000000000E+00  0.00000000000E+00  0.99999998245E-14  0.12500000000E+03  0.12500000000E+03 0.  0.
        -11    1    1    0    0    0  0.11815816534E+02  0.42692237236E+02  0.43913302302E+02  0.62374824728E+02  0.51100000000E-03 0.  1.
         11    1    1    0    0    0  0.14359390710E+00 -0.15949695660E+00  0.12122543120E+00  0.24648398652E+00  0.51100000000E-03 0. -1.
         22    1    1    0    0    0 -0.11959410441E+02 -0.42532740280E+02 -0.44034527733E+02  0.62378691285E+02  0.00000000000E+00 0.  1.
</event>
<event>
 4    1  0.1964735E-002  0.9118800E+02  0.7818608E-02  0.1130116E+00
         25   -1    0    0    0    0  0.00000000000E+00  0.00000000000E+00  0.99999998245E-14  0.12500000000E+03  0.12500000000E+03 0.  0.
        -11    1    1    0    0    0  0.74156040255E+01 -0.12024831143E+02 -0.16814575902E+02  0.21961732857E+02  0.51100000000E-03 0. -1.
         11    1    1    0    0    0  0.10220029789E+02 -0.18138266086E+02 -0.34893137157E+02  0.40632212915E+02  0.51100000000E-03 0.  1.
         22    1    1    0    0    0 -0.17635633814E+02  0.30163097229E+02  0.51707713059E+02  0.62406054227E+02  0.00000000000E+00 0.  1.
</event>
<event>
 4    1  0.1964735E-002  0.9118800E+02  0.7818608E-02  0.1130116E+00
         25   -1    0    0    0    0  0.00000000000E+00  0.00000000000E+00  0.99999998245E-14  0.12500000000E+03  0.12500000000E+03 0.  0.
        -11    1    1    0    0    0  0.18470326070E+02 -0.18002787130E+02  0.31498273132E+01  0.25984124036E+02  0.51100000000E-03 0.  1.
         11    1    1    0    0    0  0.26007669660E+02 -0.25254146253E+02  0.43863105152E+01  0.36515893859E+02  0.51100000000E-03 0. -1.
         22    1    1    0    0    0 -0.44477995730E+02  0.43256933382E+02 -0.75361378284E+01  0.62499982105E+02  0.00000000000E+00 0.  1.
</event>
<event>
 4    1  0.1964735E-002  0.9118800E+02  0.7818608E-02  0.1130116E+00
         25   -1    0    0    0    0  0.00000000000E+00  0.00000000000E+00  0.99999998245E-14  0.12500000000E+03  0.12500000000E+03 0.  0.
        -11    1    1    0    0    0 -0.28890913519E+02 -0.24051350787E+02 -0.47032940741E+02  0.60210047946E+02  0.51100000000E-03 0. -1.
         11    1    1    0    0    0 -0.10826656241E+01 -0.89661435620E+00 -0.18078319576E+01  0.22900521404E+01  0.51100000000E-03 0.  1.
         22    1    1    0    0    0  0.29973579143E+02  0.24947965144E+02  0.48840772698E+02  0.62499899914E+02  0.00000000000E+00 0. -1.
</event>
<event>
 4    1  0.1964735E-002  0.9118800E+02  0.7818608E-02  0.1130116E+00
         25   -1    0    0    0    0  0.00000000000E+00  0.00000000000E+00  0.99999998245E-14  0.12500000000E+03  0.12500000000E+03 0.  0.
        -11    1    1    0    0    0  0.10000268112E+02 -0.73567706450E+01 -0.57553756500E+01  0.13683997434E+02  0.51100000000E-03 0. -1.
         11    1    1    0    0    0  0.35677519456E+02 -0.26231313864E+02 -0.20543488515E+02  0.48816002931E+02  0.51100000000E-03 0.  1.
         22    1    1    0    0    0 -0.45677787567E+02  0.33588084509E+02  0.26298864165E+02  0.62499999635E+02  0.00000000000E+00 0.  1.
</event>
<event>
 4    1  0.1964735E-002  0.9118800E+02  0.7818608E-02  0.1130116E+00
         25   -1    0    0    0    0  0.00000000000E+00  0.00000000000E+00  0.99999998245E-14  0.12500000000E+03  0.12500000000E+03 0.  0.
        -11    1    1    0    0    0  0.13535120656E+02  0.21136235795E+02  0.38621279596E+02  0.46060212686E+02  0.51100000000E-03 0.  1.
         11    1    1    0    0    0  0.59063642106E+01  0.68029320341E+01  0.13774263644E+02  0.16458899163E+02  0.51100000000E-03 0. -1.
         22    1    1    0    0    0 -0.19441484866E+02 -0.27939167829E+02 -0.52395543240E+02  0.62480888152E+02  0.00000000000E+00 0. -1.
</event>
<event>
 4    1  0.1964735E-002  0.9118800E+02  0.7818608E-02  0.1130116E+00
         25   -1    0    0    0    0  0.00000000000E+00  0.00000000000E+00  0.99999998245E-14  0.12500000000E+03  0.12500000000E+03 0.  0.
        -11    1    1    0    0    0 -0.24361182594E+02  0.12034759120E+01 -0.20444604468E+00  0.24391747992E+02  0.51100000000E-03 0. -1.
         11    1    1    0    0    0 -0.38058051142E+02  0.19148998636E+01 -0.39775119629E+00  0.38108270814E+02  0.51100000000E-03 0.  1.
         22    1    1    0    0    0  0.62419233736E+02 -0.31183757756E+01  0.60219724097E+00  0.62499981193E+02  0.00000000000E+00 0.  1.
</event>
<event>
 4    1  0.1964735E-002  0.9118800E+02  0.7818608E-02  0.1130116E+00
         25   -1    0    0    0    0  0.00000000000E+00  0.00000000000E+00  0.99999998245E-14  0.12500000000E+03  0.12500000000E+03 0.  0.
        -11    1    1    0    0    0 -0.33099916889E+02  0.30647084240E+02 -0.34026407145E+02  0.56503492404E+02  0.51100000000E-03 0.  1.
         11    1    1    0    0    0 -0.53847385164E+01  0.14484601208E+01 -0.28656207427E+01  0.62693881770E+01  0.51100000000E-03 0. -1.
         22    1    1    0    0    0  0.38484655405E+02 -0.32095544360E+02  0.36892027888E+02  0.62227119419E+02  0.00000000000E+00 0.  1.
</event>
<event>
 4    1  0.1964735E-002  0.9118800E+02  0.7818608E-02  0.1130116E+00
         25   -1    0    0    0    0  0.00000000000E+00  0.00000000000E+00  0.99999998245E-14  0.12500000000E+03  0.12500000000E+03 0.  0.
        -11    1    1    0    0    0  0.22912482537E+01 -0.16727307555E+02  0.12437669398E+02  0.20970175415E+02  0.51100000000E-03 0. -1.
         11    1    1    0    0    0  0.37222103553E+01 -0.33050172383E+02  0.24873277007E+02  0.41531297281E+02  0.51100000000E-03 0.  1.
         22    1    1    0    0    0 -0.60134586090E+01  0.49777479939E+02 -0.37310946405E+02  0.62498527304E+02  0.00000000000E+00 0.  1.
</event>
<event>
 4    1  0.1964735E-002  0.9118800E+02  0.7818608E-02  0.1130116E+00
         25   -1    0    0    0    0  0.00000000000E+00  0.00000000000E+00  0.99999998245E-14  0.12500000000E+03  0.12500000000E+03 0.  0.
        -11    1    1    0    0    0 -0.22595504735E+00  0.10602320488E-01 -0.69132375943E+00  0.72739046880E+00  0.51100000000E-03 0. -1.
         11    1    1    0    0    0 -0.10710061895E+02  0.11089020692E+02 -0.59826526192E+02  0.61780944005E+02  0.51100000000E-03 0.  1.
         22    1    1    0    0    0  0.10936016942E+02 -0.11099623013E+02  0.60517849951E+02  0.62491665526E+02  0.00000000000E+00 0.  1.
</event>
<event>
 4    1  0.1964735E-002  0.9118800E+02  0.7818608E-02  0.1130116E+00
         25   -1    0    0    0    0  0.00000000000E+00  0.00000000000E+00  0.99999998245E-14  0.12500000000E+03  0.12500000000E+03 0.  0.
        -11    1    1    0    0    0 -0.12666674548E+02  0.50422560971E+02  0.17248620351E+02  0.54775854199E+02  0.51100000000E-03 0.  1.
         11    1    1    0    0    0 -0.60592645289E+01  0.53240772265E+01 -0.66829046635E+01  0.10474812645E+02  0.51100000000E-03 0. -1.
         22    1    1    0    0    0  0.18725939077E+02 -0.55746638197E+02 -0.10565715687E+02  0.59749333156E+02  0.00000000000E+00 0.  1.
</event>
<event>
 4    1  0.1964735E-002  0.9118800E+02  0.7818608E-02  0.1130116E+00
         25   -1    0    0    0    0  0.00000000000E+00  0.00000000000E+00  0.99999998245E-14  0.12500000000E+03  0.12500000000E+03 0.  0.
        -11    1    1    0    0    0 -0.18973320970E+02 -0.13753370141E+02 -0.87526660788E+01  0.25015020740E+02  0.51100000000E-03 0. -1.
         11    1    1    0    0    0 -0.31711589292E+02 -0.13026519587E+02 -0.15645475356E+02  0.37684161227E+02  0.51100000000E-03 0.  1.
         22    1    1    0    0    0  0.50684910262E+02  0.26779889728E+02  0.24398141435E+02  0.62300818033E+02  0.00000000000E+00 0.  1.
</event>
<event>
 4    1  0.1964735E-002  0.9118800E+02  0.7818608E-02  0.1130116E+00
         25   -1    0    0    0    0  0.00000000000E+00  0.00000000000E+00  0.99999998245E-14  0.12500000000E+03  0.12500000000E+03 0.  0.
        -11    1    1    0    0    0 -0.11020479721E+02 -0.95136533364E+00 -0.32784025312E+02  0.34599832156E+02  0.51100000000E-03 0. -1.
         11    1    1    0    0    0 -0.81824717710E+01  0.19658547951E+01 -0.26642439666E+02  0.27939882265E+02  0.51100000000E-03 0.  1.
         22    1    1    0    0    0  0.19202951492E+02 -0.10144894615E+01  0.59426464978E+02  0.62460285579E+02  0.00000000000E+00 0.  1.
</event>
<event>
 4    1  0.1964735E-002  0.9118800E+02  0.7818608E-02  0.1130116E+00
         25   -1    0    0    0    0  0.00000000000E+00  0.00000000000E+00  0.99999998245E-14  0.12500000000E+03  0.12500000000E+03 0.  0.
        -11    1    1    0    0    0  0.18335537510E+01  0.17237522322E+02 -0.33067083632E+02  0.37335319944E+02  0.51100000000E-03 0.  1.
         11    1    1    0    0    0  0.27807065425E+01  0.10440803316E+02 -0.22753253485E+02  0.25188355388E+02  0.51100000000E-03 0. -1.
         22    1    1    0    0    0 -0.46142602935E+01 -0.27678325638E+02  0.55820337116E+02  0.62476324668E+02  0.00000000000E+00 0.  1.
</event>
<event>
 4    1  0.1964735E-002  0.9118800E+02  0.7818608E-02  0.1130116E+00
         25   -1    0    0    0    0  0.00000000000E+00  0.00000000000E+00  0.99999998245E-14  0.12500000000E+03  0.12500000000E+03 0.  0.
        -11    1    1    0    0    0  0.19808434482E+02  0.10042532457E+02 -0.35122131569E+01  0.22484709834E+02  0.51100000000E-03 0. -1.
         11    1    1    0    0    0  0.35252274952E+02  0.17881912293E+02 -0.62239789734E+01  0.40015291965E+02  0.51100000000E-03 0.  1.
         22    1    1    0    0    0 -0.55060709434E+02 -0.27924444750E+02  0.97361921303E+01  0.62499998201E+02  0.00000000000E+00 0.  1.
</event>
<event>
 4    1  0.1964735E-002  0.9118800E+02  0.7818608E-02  0.1130116E+00
         25   -1    0    0    0    0  0.00000000000E+00  0.00000000000E+00  0.99999998245E-14  0.12500000000E+03  0.12500000000E+03 0.  0.
        -11    1    1    0    0    0  0.27307532035E+02 -0.97066493116E+01 -0.17156730687E+02  0.33678980906E+02  0.51100000000E-03 0.  1.
         11    1    1    0    0    0  0.22952470375E+02 -0.19624783461E+02  0.13308961307E+02  0.33001158670E+02  0.51100000000E-03 0. -1.
         22    1    1    0    0    0 -0.50260002410E+02  0.29331432772E+02  0.38477693802E+01  0.58319860425E+02  0.00000000000E+00 0. -1.
</event>
<event>
 4    1  0.1964735E-002  0.9118800E+02  0.7818608E-02  0.1130116E+00
         25   -1    0    0    0    0  0.00000000000E+00  0.00000000000E+00  0.99999998245E-14  0.12500000000E+03  0.12500000000E+03 0.  0.
        -11    1    1    0    0    0 -0.36730384451E+02 -0.45169312404E+02 -0.13776291418E+02  0.59826199365E+02  0.51100000000E-03 0. -1.
         11    1    1    0    0    0 -0.15981082462E+01 -0.20616744319E+01 -0.58897120295E+00  0.26741987152E+01  0.51100000000E-03 0.  1.
         22    1    1    0    0    0  0.38328492697E+02  0.47230986836E+02  0.14365262621E+02  0.62499601920E+02  0.00000000000E+00 0. -1.
</event>
<event>
 4    1  0.1964735E-002  0.9118800E+02  0.7818608E-02  0.1130116E+00
         25   -1    0    0    0    0  0.00000000000E+00  0.00000000000E+00  0.99999998245E-14  0.12500000000E+03  0.12500000000E+03 0.  0.
        -11    1    1    0    0    0  0.17744261247E+02 -0.11830149882E+02  0.19580755259E+01  0.21416006011E+02  0.51100000000E-03 0. -1.
         11    1    1    0    0    0  0.33400436015E+02 -0.23669332883E+02  0.35087739427E+01  0.41086955837E+02  0.51100000000E-03 0.  1.
         22    1    1    0    0    0 -0.51144697263E+02  0.35499482764E+02 -0.54668494686E+01  0.62497038152E+02  0.00000000000E+00 0.  1.
</event>
<event>
 4    1  0.1964735E-002  0.9118800E+02  0.7818608E-02  0.1130116E+00
         25   -1    0    0    0    0  0.00000000000E+00  0.00000000000E+00  0.99999998245E-14  0.12500000000E+03  0.12500000000E+03 0.  0.
        -11    1    1    0    0    0  0.56054325313E+01 -0.58745438822E+01  0.27286076359E+02  0.28468598543E+02  0.51100000000E-03 0. -1.
         11    1    1    0    0    0  0.63783247995E+01 -0.72994271845E+01  0.32622274203E+02  0.34032006096E+02  0.51100000000E-03 0.  1.
         22    1    1    0    0    0 -0.11983757331E+02  0.13173971067E+02 -0.59908350562E+02  0.62499395361E+02  0.00000000000E+00 0.  1.
</event>
<event>
 4    1  0.1964735E-002  0.9118800E+02  0.7818608E-02  0.1130116E+00
         25   -1    0    0    0    0  0.00000000000E+00  0.00000000000E+00  0.99999998245E-14  0.12500000000E+03  0.12500000000E+03 0.  0.
        -11    1    1    0    0    0 -0.26817669596E+02 -0.10968497281E+02  0.31563478375E+02  0.42845635746E+02  0.51100000000E-03 0. -1.
         11    1    1    0    0    0 -0.12294823180E+02 -0.51353697363E+01  0.14448645729E+02  0.19654466745E+02  0.51100000000E-03 0.  1.
         22    1    1    0    0    0  0.39112492776E+02  0.16103867017E+02 -0.46012124104E+02  0.62499897509E+02  0.00000000000E+00 0. -1.
</event>
<event>
 4    1  0.1964735E-002  0.9118800E+02  0.7818608E-02  0.1130116E+00
         25   -1    0    0    0    0  0.00000000000E+00  0.00000000000E+00  0.99999998245E-14  0.12500000000E+03  0.12500000000E+03 0.  0.
        -11    1    1    0    0    0  0.10125629961E+01 -0.36545353394E+01 -0.28613369606E+01  0.47505959448E+01  0.51100000000E-03 0. -1.
         11    1    1    0    0    0  0.21000569747E+02 -0.31617703692E+02 -0.43662371741E+02  0.57854177228E+02  0.51100000000E-03 0.  1.
         22    1    1    0    0    0 -0.22013132744E+02  0.35272239032E+02  0.46523708701E+02  0.62395226827E+02  0.00000000000E+00 0.  1.
</event>
<event>
 4    1  0.1964735E-002  0.9118800E+02  0.7818608E-02  0.1130116E+00
         25   -1    0    0    0    0  0.00000000000E+00  0.00000000000E+00  0.99999998245E-14  0.12500000000E+03  0.12500000000E+03 0.  0.
        -11    1    1    0    0    0 -0.49391576138E+02 -0.38892038228E+01 -0.32648912092E+02  0.59334687669E+02  0.51100000000E-03 0. -1.
         11    1    1    0    0    0 -0.25558191951E+01  0.28839659254E+01 -0.71366001795E+00  0.39190282086E+01  0.51100000000E-03 0.  1.
         22    1    1    0    0    0  0.51947395333E+02  0.10052378973E+01  0.33362572110E+02  0.61746284122E+02  0.00000000000E+00 0. -1.
</event>
<event>
 4    1  0.1964735E-002  0.9118800E+02  0.7818608E-02  0.1130116E+00
         25   -1    0    0    0    0  0.00000000000E+00  0.00000000000E+00  0.99999998245E-14  0.12500000000E+03  0.12500000000E+03 0.  0.
        -11    1    1    0    0    0  0.14521175735E+02  0.10828845268E+01 -0.18150811536E+01  0.14674184934E+02  0.51100000000E-03 0. -1.
         11    1    1    0    0    0  0.47326352364E+02  0.35245802906E+01 -0.59247198221E+01  0.47825815200E+02  0.51100000000E-03 0.  1.
         22    1    1    0    0    0 -0.61847528099E+02 -0.46074648174E+01  0.77398009758E+01  0.62499999866E+02  0.00000000000E+00 0.  1.
</event>
<event>
 4    1  0.1964735E-002  0.9118800E+02  0.7818608E-02  0.1130116E+00
         25   -1    0    0    0    0  0.00000000000E+00  0.00000000000E+00  0.99999998245E-14  0.12500000000E+03  0.12500000000E+03 0.  0.
        -11    1    1    0    0    0 -0.39897313289E+02 -0.19447691187E+02 -0.35218892179E+02  0.56660203554E+02  0.51100000000E-03 0.  1.
         11    1    1    0    0    0 -0.41124281906E+01 -0.20052057355E+01 -0.36290918122E+01  0.58397965125E+01  0.51100000000E-03 0. -1.
         22    1    1    0    0    0  0.44009741480E+02  0.21452896923E+02  0.38847983991E+02  0.62499999933E+02  0.00000000000E+00 0.  1.
</event>
<event>
 4    1  0.1964735E-002  0.9118800E+02  0.7818608E-02  0.1130116E+00
         25   -1    0    0    0    0  0.00000000000E+00  0.00000000000E+00  0.99999998245E-14  0.12500000000E+03  0.12500000000E+03 0.  0.
        -11    1    1    0    0    0 -0.16834227631E+00 -0.23301739075E+01  0.13387658205E+01  0.26926462346E+01  0.51100000000E-03 0. -1.
         11    1    1    0    0    0 -0.23252392799E+02 -0.35207419284E+02  0.42595405955E+02  0.59955022745E+02  0.51100000000E-03 0.  1.
         22    1    1    0    0    0  0.23420735076E+02  0.37537593192E+02 -0.43934171776E+02  0.62352331021E+02  0.00000000000E+00 0.  1.
</event>
<event>
 4    1  0.1964735E-002  0.9118800E+02  0.7818608E-02  0.1130116E+00
         25   -1    0    0    0    0  0.00000000000E+00  0.00000000000E+00  0.99999998245E-14  0.12500000000E+03  0.12500000000E+03 0.  0.
        -11    1    1    0    0    0 -0.10138155092E+02  0.13139543539E+02 -0.78252263585E+01  0.18348404860E+02  0.51100000000E-03 0. -1.
         11    1    1    0    0    0 -0.24416379774E+02  0.31645123068E+02 -0.18756089989E+02  0.44151606167E+02  0.51100000000E-03 0.  1.
         22    1    1    0    0    0  0.34554534866E+02 -0.44784666606E+02  0.26581316347E+02  0.62499988973E+02  0.00000000000E+00 0.  1.
</event>
<event>
 4    1  0.1964735E-002  0.9118800E+02  0.7818608E-02  0.1130116E+00
         25   -1    0    0    0    0  0.00000000000E+00  0.00000000000E+00  0.99999998245E-14  0.12500000000E+03  0.12500000000E+03 0.  0.
        -11    1    1    0    0    0 -0.23025381697E+02  0.13441908826E+02  0.12269110559E+02  0.29349347341E+02  0.51100000000E-03 0.  1.
         11    1    1    0    0    0 -0.26006188403E+02  0.15184023759E+02  0.13859630595E+02  0.33150652682E+02  0.51100000000E-03 0.  1.
         22    1    1    0    0    0  0.49031570100E+02 -0.28625932584E+02 -0.26128741154E+02  0.62499999977E+02  0.00000000000E+00 0.  1.
</event>
<event>
 4    1  0.1964735E-002  0.9118800E+02  0.7818608E-02  0.1130116E+00
         25   -1    0    0    0    0  0.00000000000E+00  0.00000000000E+00  0.99999998245E-14  0.12500000000E+03  0.12500000000E+03 0.  0.
        -11    1    1    0    0    0  0.14151467016E+02 -0.45622721793E+02  0.34546381958E+01  0.47891870790E+02  0.51100000000E-03 0.  1.
         11    1    1    0    0    0  0.41755001708E+01 -0.14023652189E+02 -0.59300988223E+00  0.14644086977E+02  0.51100000000E-03 0. -1.
         22    1    1    0    0    0 -0.18326967187E+02  0.59646373982E+02 -0.28616283135E+01  0.62464042233E+02  0.00000000000E+00 0. -1.
</event>
<event>
 4    1  0.1964735E-002  0.9118800E+02  0.7818608E-02  0.1130116E+00
         25   -1    0    0    0    0  0.00000000000E+00  0.00000000000E+00  0.99999998245E-14  0.12500000000E+03  0.12500000000E+03 0.  0.
        -11    1    1    0    0    0 -0.58388119458E+02 -0.31720528397E+01 -0.80009930122E+01  0.59019067279E+02  0.51100000000E-03 0.  1.
         11    1    1    0    0    0 -0.34435928472E+01 -0.18767904651E+00 -0.47258624905E+00  0.34809327983E+01  0.51100000000E-03 0.  1.
         22    1    1    0    0    0  0.61831712305E+02  0.33597318862E+01  0.84735792613E+01  0.62499999923E+02  0.00000000000E+00 0.  1.
</event>
<event>
 4    1  0.1964735E-002  0.9118800E+02  0.7818608E-02  0.1130116E+00
         25   -1    0    0    0    0  0.00000000000E+00  0.00000000000E+00  0.99999998245E-14  0.12500000000E+03  0.12500000000E+03 0.  0.
        -11    1    1    0    0    0 -0.10961501469E+02 -0.18581221679E+02 -0.13869141999E+02  0.25647015686E+02  0.51100000000E-03 0. -1.
         11    1    1    0    0    0 -0.15866723925E+02 -0.26325100126E+02 -0.20333316206E+02  0.36853867816E+02  0.51100000000E-03 0.  1.
         22    1    1    0    0    0  0.26828225394E+02  0.44906321805E+02  0.34202458205E+02  0.62499116499E+02  0.00000000000E+00 0.  1.
</event>
<event>
 4    1  0.1964735E-002  0.9118800E+02  0.7818608E-02  0.1130116E+00
         25   -1    0    0    0    0  0.00000000000E+00  0.00000000000E+00  0.99999998245E-14  0.12500000000E+03  0.12500000000E+03 0.  0.
        -11    1    1    0    0    0  0.24774465951E+02 -0.31378191214E+02  0.76153202799E+01  0.40698380192E+02  0.51100000000E-03 0. -1.
         11    1    1    0    0    0  0.13265757398E+02 -0.16814130760E+02  0.40761913884E+01  0.21801620331E+02  0.51100000000E-03 0.  1.
         22    1    1    0    0    0 -0.38040223349E+02  0.48192321973E+02 -0.11691511668E+02  0.62499999478E+02  0.00000000000E+00 0. -1.
</event>
<event>
 4    1  0.1964735E-002  0.9118800E+02  0.7818608E-02  0.1130116E+00
         25   -1    0    0    0    0  0.00000000000E+00  0.00000000000E+00  0.99999998245E-14  0.12500000000E+03  0.12500000000E+03 0.  0.
        -11    1    1    0    0    0  0.20308355375E+02 -0.10230670462E+02 -0.32472575877E+01  0.22970428778E+02  0.51100000000E-03 0. -1.
         11    1    1    0    0    0  0.34951413630E+02 -0.17606091215E+02 -0.55687798699E+01  0.39529572121E+02  0.51100000000E-03 0.  1.
         22    1    1    0    0    0 -0.55259769005E+02  0.27836761677E+02  0.88160374576E+01  0.62499999101E+02  0.00000000000E+00 0.  1.
</event>
<event>
 4    1  0.1964735E-002  0.9118800E+02  0.7818608E-02  0.1130116E+00
         25   -1    0    0    0    0  0.00000000000E+00  0.00000000000E+00  0.99999998245E-14  0.12500000000E+03  0.12500000000E+03 0.  0.
        -11    1    1    0    0    0 -0.80867212501E+01 -0.25390223521E+02 -0.76657128107E+01  0.27727633584E+02  0.51100000000E-03 0.  1.
         11    1    1    0    0    0 -0.10109198955E+02 -0.31857747928E+02 -0.95919680509E+01  0.34772372049E+02  0.51100000000E-03 0. -1.
         22    1    1    0    0    0  0.18195920206E+02  0.57247971449E+02  0.17257680862E+02  0.62499994367E+02  0.00000000000E+00 0. -1.
</event>
<event>
 4    1  0.1964735E-002  0.9118800E+02  0.7818608E-02  0.1130116E+00
         25   -1    0    0    0    0  0.00000000000E+00  0.00000000000E+00  0.99999998245E-14  0.12500000000E+03  0.12500000000E+03 0.  0.
        -11    1    1    0    0    0  0.45988998445E+02 -0.25343285003E+02  0.30853035588E+02  0.60903036689E+02  0.51100000000E-03 0. -1.
         11    1    1    0    0    0 -0.22136285714E+01 -0.22009431580E+01  0.10915896856E+01  0.33069427784E+01  0.51100000000E-03 0.  1.
         22    1    1    0    0    0 -0.43775369873E+02  0.27544228161E+02 -0.31944625273E+02  0.60790020533E+02  0.00000000000E+00 0. -1.
</event>
<event>
 4    1  0.1964735E-002  0.9118800E+02  0.7818608E-02  0.1130116E+00
         25   -1    0    0    0    0  0.00000000000E+00  0.00000000000E+00  0.99999998245E-14  0.12500000000E+03  0.12500000000E+03 0.  0.
        -11    1    1    0    0    0 -0.30719460024E+01  0.44801589064E+02  0.76589473800E+01  0.45555227034E+02  0.51100000000E-03 0. -1.
         11    1    1    0    0    0 -0.11418217794E+01  0.16664753293E+02  0.28473799395E+01  0.16944773002E+02  0.51100000000E-03 0.  1.
         22    1    1    0    0    0  0.42137677819E+01 -0.61466342358E+02 -0.10506327319E+02  0.62499999964E+02  0.00000000000E+00 0. -1.
</event>
<event>
 4    1  0.1964735E-002  0.9118800E+02  0.7818608E-02  0.1130116E+00
         25   -1    0    0    0    0  0.00000000000E+00  0.00000000000E+00  0.99999998245E-14  0.12500000000E+03  0.12500000000E+03 0.  0.
        -11    1    1    0    0    0 -0.81539216148E-01  0.11187712122E+00 -0.43895882834E-01  0.14523168963E+00  0.51100000000E-03 0.  1.
         11    1    1    0    0    0 -0.38401277696E+02  0.47530628341E+02 -0.12424170746E+02  0.62355262635E+02  0.51100000000E-03 0. -1.
         22    1    1    0    0    0  0.38482816912E+02 -0.47642505463E+02  0.12468066629E+02  0.62499505676E+02  0.00000000000E+00 0. -1.
</event>
<event>
 4    1  0.1964735E-002  0.9118800E+02  0.7818608E-02  0.1130116E+00
         25   -1    0    0    0    0  0.00000000000E+00  0.00000000000E+00  0.99999998245E-14  0.12500000000E+03  0.12500000000E+03 0.  0.
        -11    1    1    0    0    0  0.26353307797E+01  0.16006999166E+01 -0.24752640312E+01  0.39540031395E+01  0.51100000000E-03 0. -1.
         11    1    1    0    0    0  0.39040019812E+02  0.23661045608E+02 -0.36656044355E+02  0.58545997422E+02  0.51100000000E-03 0.  1.
         22    1    1    0    0    0 -0.41675350591E+02 -0.25261745525E+02  0.39131308386E+02  0.62499999439E+02  0.00000000000E+00 0.  1.
</event>
<event>
 4    1  0.1964735E-002  0.9118800E+02  0.7818608E-02  0.1130116E+00
         25   -1    0    0    0    0  0.00000000000E+00  0.00000000000E+00  0.99999998245E-14  0.12500000000E+03  0.12500000000E+03 0.  0.
        -11    1    1    0    0    0 -0.11043029971E+01  0.43440845823E+02  0.25498500878E+01  0.43529625621E+02  0.51100000000E-03 0.  1.
         11    1    1    0    0    0 -0.21172621298E+02 -0.18702784078E+02  0.25409843942E+02  0.37996502396E+02  0.51100000000E-03 0. -1.
         22    1    1    0    0    0  0.22276924295E+02 -0.24738061746E+02 -0.27959694030E+02  0.43473871983E+02  0.00000000000E+00 0. -1.
</event>
<event>
 4    1  0.1964735E-002  0.9118800E+02  0.7818608E-02  0.1130116E+00
         25   -1    0    0    0    0  0.00000000000E+00  0.00000000000E+00  0.99999998245E-14  0.12500000000E+03  0.12500000000E+03 0.  0.
        -11    1    1    0    0    0  0.45751598166E+00  0.28784095407E+01 -0.86170542793E+00  0.30392595913E+01  0.51100000000E-03 0.  1.
         11    1    1    0    0    0  0.89313830356E+01  0.56326802149E+02 -0.16825618828E+02  0.59460740766E+02  0.51100000000E-03 0. -1.
         22    1    1    0    0    0 -0.93888990173E+01 -0.59205211690E+02  0.17687324256E+02  0.62499999643E+02  0.00000000000E+00 0. -1.
</event>
<event>
 4    1  0.1964735E-002  0.9118800E+02  0.7818608E-02  0.1130116E+00
         25   -1    0    0    0    0  0.00000000000E+00  0.00000000000E+00  0.99999998245E-14  0.12500000000E+03  0.12500000000E+03 0.  0.
        -11    1    1    0    0    0 -0.31648142526E+01 -0.55430876355E+01 -0.64507996506E+01  0.90749482743E+01  0.51100000000E-03 0. -1.
         11    1    1    0    0    0 -0.20794970785E+02 -0.32236288302E+02 -0.37189021054E+02  0.53428759864E+02  0.51100000000E-03 0.  1.
         22    1    1    0    0    0  0.23959785037E+02  0.37779375937E+02  0.43639820705E+02  0.62496291861E+02  0.00000000000E+00 0. -1.
</event>
<event>
 4    1  0.1964735E-002  0.9118800E+02  0.7818608E-02  0.1130116E+00
         25   -1    0    0    0    0  0.00000000000E+00  0.00000000000E+00  0.99999998245E-14  0.12500000000E+03  0.12500000000E+03 0.  0.
        -11    1    1    0    0    0 -0.19081486897E+02  0.54513133400E+02  0.13027074547E+01  0.57770943408E+02  0.51100000000E-03 0. -1.
         11    1    1    0    0    0 -0.14236144250E+01  0.45098625666E+01 -0.27527051636E+00  0.47372262474E+01  0.51100000000E-03 0.  1.
         22    1    1    0    0    0  0.20505101322E+02 -0.59022995967E+02 -0.10274369383E+01  0.62491830344E+02  0.00000000000E+00 0. -1.
</event>
<event>
 4    1  0.1964735E-002  0.9118800E+02  0.7818608E-02  0.1130116E+00
         25   -1    0    0    0    0  0.00000000000E+00  0.00000000000E+00  0.99999998245E-14  0.12500000000E+03  0.12500000000E+03 0.  0.
        -11    1    1    0    0    0  0.45375528690E+01  0.40847993727E+01  0.57721686590E+02  0.58043673858E+02  0.51100000000E-03 0.  1.
         11    1    1    0    0    0  0.34957381411E+00  0.31908285142E+00  0.44311219255E+01  0.44563278040E+01  0.51100000000E-03 0. -1.
         22    1    1    0    0    0 -0.48871266831E+01 -0.44038822241E+01 -0.62152808515E+02  0.62499998338E+02  0.00000000000E+00 0.  1.
</event>
<event>
 4    1  0.1964735E-002  0.9118800E+02  0.7818608E-02  0.1130116E+00
         25   -1    0    0    0    0  0.00000000000E+00  0.00000000000E+00  0.99999998245E-14  0.12500000000E+03  0.12500000000E+03 0.  0.
        -11    1    1    0    0    0  0.14959996684E+02  0.25036435439E+02 -0.31527190833E+02  0.42948671253E+02  0.51100000000E-03 0.  1.
         11    1    1    0    0    0  0.63157450836E+01  0.11425269841E+02 -0.14557741689E+02  0.19553855636E+02  0.51100000000E-03 0. -1.
         22    1    1    0    0    0 -0.21275741768E+02 -0.36461705279E+02  0.46084932523E+02  0.62497473111E+02  0.00000000000E+00 0.  1.
</event>
<event>
 4    1  0.1964735E-002  0.9118800E+02  0.7818608E-02  0.1130116E+00
         25   -1    0    0    0    0  0.00000000000E+00  0.00000000000E+00  0.99999998245E-14  0.12500000000E+03  0.12500000000E+03 0.  0.
        -11    1    1    0    0    0  0.59499471478E+01 -0.36309062865E+02 -0.21937590200E+02  0.42836990805E+02  0.51100000000E-03 0. -1.
         11    1    1    0    0    0  0.26461088255E+02  0.82099076170E+01 -0.91605872428E+01  0.29180612290E+02  0.51100000000E-03 0.  1.
         22    1    1    0    0    0 -0.32411035403E+02  0.28099155248E+02  0.31098177443E+02  0.52982396905E+02  0.00000000000E+00 0. -1.
</event>
<event>
 4    1  0.1964735E-002  0.9118800E+02  0.7818608E-02  0.1130116E+00
         25   -1    0    0    0    0  0.00000000000E+00  0.00000000000E+00  0.99999998245E-14  0.12500000000E+03  0.12500000000E+03 0.  0.
        -11    1    1    0    0    0  0.25493971262E+01 -0.10107102547E+02 -0.13320161230E+02  0.16913889058E+02  0.51100000000E-03 0. -1.
         11    1    1    0    0    0  0.86266778499E+01 -0.20812316972E+02 -0.39730612452E+02  0.45673774472E+02  0.51100000000E-03 0.  1.
         22    1    1    0    0    0 -0.11176074976E+02  0.30919419519E+02  0.53050773683E+02  0.62412336470E+02  0.00000000000E+00 0.  1.
</event>
<event>
 4    1  0.1964735E-002  0.9118800E+02  0.7818608E-02  0.1130116E+00
         25   -1    0    0    0    0  0.00000000000E+00  0.00000000000E+00  0.99999998245E-14  0.12500000000E+03  0.12500000000E+03 0.  0.
        -11    1    1    0    0    0 -0.30939758727E+02 -0.48607837221E+02 -0.68667558848E+01  0.58027087176E+02  0.51100000000E-03 0.  1.
         11    1    1    0    0    0 -0.23855667870E+01 -0.37463517614E+01 -0.52997084708E+00  0.44729128960E+01  0.51100000000E-03 0.  1.
         22    1    1    0    0    0  0.33325325514E+02  0.52354188983E+02  0.73967267318E+01  0.62499999928E+02  0.00000000000E+00 0.  1.
</event>
<event>
 4    1  0.1964735E-002  0.9118800E+02  0.7818608E-02  0.1130116E+00
         25   -1    0    0    0    0  0.00000000000E+00  0.00000000000E+00  0.99999998245E-14  0.12500000000E+03  0.12500000000E+03 0.  0.
        -11    1    1    0    0    0  0.20036164447E+02 -0.17178747711E+02  0.24233203474E+02  0.35830230386E+02  0.51100000000E-03 0.  1.
         11    1    1    0    0    0  0.14835392879E+02 -0.12858272308E+02  0.18051477453E+02  0.26669831029E+02  0.51100000000E-03 0. -1.
         22    1    1    0    0    0 -0.34871557326E+02  0.30037020019E+02 -0.42284680927E+02  0.62499938585E+02  0.00000000000E+00 0. -1.
</event>
<event>
 4    1  0.1964735E-002  0.9118800E+02  0.7818608E-02  0.1130116E+00
         25   -1    0    0    0    0  0.00000000000E+00  0.00000000000E+00  0.99999998245E-14  0.12500000000E+03  0.12500000000E+03 0.  0.
        -11    1    1    0    0    0 -0.27020877426E+01  0.19543567750E+02  0.21324767626E+02  0.29051644241E+02  0.51100000000E-03 0. -1.
         11    1    1    0    0    0 -0.31115838758E+01  0.22501020680E+02  0.24552283341E+02  0.33448355764E+02  0.51100000000E-03 0. -1.
         22    1    1    0    0    0  0.58136716184E+01 -0.42044588430E+02 -0.45877050967E+02  0.62499999994E+02  0.00000000000E+00 0. -1.
</event>
<event>
 4    1  0.1964735E-002  0.9118800E+02  0.7818608E-02  0.1130116E+00
         25   -1    0    0    0    0  0.00000000000E+00  0.00000000000E+00  0.99999998245E-14  0.12500000000E+03  0.12500000000E+03 0.  0.
        -11    1    1    0    0    0 -0.87727566403E+01  0.14187465777E+01 -0.40068749538E+01  0.97482894950E+01  0.51100000000E-03 0. -1.
         11    1    1    0    0    0 -0.47524042797E+02  0.77896349561E+01 -0.21529814603E+02  0.52751739058E+02  0.51100000000E-03 0.  1.
         22    1    1    0    0    0  0.56296799437E+02 -0.92083815338E+01  0.25536689557E+02  0.62499971447E+02  0.00000000000E+00 0. -1.
</event>
<event>
 4    1  0.1964735E-002  0.9118800E+02  0.7818608E-02  0.1130116E+00
         25   -1    0    0    0    0  0.00000000000E+00  0.00000000000E+00  0.99999998245E-14  0.12500000000E+03  0.12500000000E+03 0.  0.
        -11    1    1    0    0    0 -0.42655754445E+00 -0.33276948962E+00  0.55014037451E+00  0.77158380279E+00  0.51100000000E-03 0. -1.
         11    1    1    0    0    0 -0.34178906249E+02 -0.26600387489E+02  0.43984305780E+02  0.61728416489E+02  0.51100000000E-03 0.  1.
         22    1    1    0    0    0  0.34605463794E+02  0.26933156979E+02 -0.44534446155E+02  0.62499999708E+02  0.00000000000E+00 0.  1.
</event>
<event>
 4    1  0.1964735E-002  0.9118800E+02  0.7818608E-02  0.1130116E+00
         25   -1    0    0    0    0  0.00000000000E+00  0.00000000000E+00  0.99999998245E-14  0.12500000000E+03  0.12500000000E+03 0.  0.
        -11    1    1    0    0    0  0.12567692248E+02  0.31338447009E+02 -0.38982576341E+02  0.51572147597E+02  0.51100000000E-03 0.  1.
         11    1    1    0    0    0  0.26627144136E+01  0.66398215586E+01 -0.82607917299E+01  0.10927852426E+02  0.51100000000E-03 0. -1.
         22    1    1    0    0    0 -0.15230406662E+02 -0.37978268567E+02  0.47243368071E+02  0.62499999977E+02  0.00000000000E+00 0.  1.
</event>
<event>
 4    1  0.1964735E-002  0.9118800E+02  0.7818608E-02  0.1130116E+00
         25   -1    0    0    0    0  0.00000000000E+00  0.00000000000E+00  0.99999998245E-14  0.12500000000E+03  0.12500000000E+03 0.  0.
        -11    1    1    0    0    0 -0.27069475632E+02  0.96817548080E+01  0.21552500601E+02  0.35930532553E+02  0.51100000000E-03 0. -1.
         11    1    1    0    0    0 -0.19923041483E+02  0.72956128837E+01  0.15993493413E+02  0.26569632687E+02  0.51100000000E-03 0.  1.
         22    1    1    0    0    0  0.46992517115E+02 -0.16977367692E+02 -0.37545994014E+02  0.62499834760E+02  0.00000000000E+00 0.  1.
</event>
<event>
 4    1  0.1964735E-002  0.9118800E+02  0.7818608E-02  0.1130116E+00
         25   -1    0    0    0    0  0.00000000000E+00  0.00000000000E+00  0.99999998245E-14  0.12500000000E+03  0.12500000000E+03 0.  0.
        -11    1    1    0    0    0  0.26572012422E+02 -0.39276941567E+02  0.31065800405E+02  0.56690686519E+02  0.51100000000E-03 0.  1.
         11    1    1    0    0    0  0.28431455643E+01 -0.37096825720E+01  0.34626425482E+01  0.58167959533E+01  0.51100000000E-03 0. -1.
         22    1    1    0    0    0 -0.29415157986E+02  0.42986624139E+02 -0.34528442953E+02  0.62492517528E+02  0.00000000000E+00 0.  1.
</event>
<event>
 4    1  0.1964735E-002  0.9118800E+02  0.7818608E-02  0.1130116E+00
         25   -1    0    0    0    0  0.00000000000E+00  0.00000000000E+00  0.99999998245E-14  0.12500000000E+03  0.12500000000E+03 0.  0.
        -11    1    1    0    0    0 -0.83708365070E-01  0.19715182519E+01  0.12550027901E+01  0.23385729778E+01  0.51100000000E-03 0.  1.
         11    1    1    0    0    0 -0.21480067156E+01  0.50707089905E+02  0.32304402404E+02  0.60161427130E+02  0.51100000000E-03 0. -1.
         22    1    1    0    0    0  0.22317150806E+01 -0.52678608156E+02 -0.33559405194E+02  0.62499999892E+02  0.00000000000E+00 0. -1.
</event>
<event>
 4    1  0.1964735E-002  0.9118800E+02  0.7818608E-02  0.1130116E+00
         25   -1    0    0    0    0  0.00000000000E+00  0.00000000000E+00  0.99999998245E-14  0.12500000000E+03  0.12500000000E+03 0.  0.
        -11    1    1    0    0    0 -0.70196016059E+01  0.21452591773E+02 -0.55250498210E+02  0.59683381717E+02  0.51100000000E-03 0.  1.
         11    1    1    0    0    0 -0.31849146287E+00  0.10110315154E+01 -0.26095589643E+01  0.28166327035E+01  0.51100000000E-03 0. -1.
         22    1    1    0    0    0  0.73380930687E+01 -0.22463623288E+02  0.57860057175E+02  0.62499985579E+02  0.00000000000E+00 0.  1.
</event>
<event>
 4    1  0.1964735E-002  0.9118800E+02  0.7818608E-02  0.1130116E+00
         25   -1    0    0    0    0  0.00000000000E+00  0.00000000000E+00  0.99999998245E-14  0.12500000000E+03  0.12500000000E+03 0.  0.
        -11    1    1    0    0    0 -0.11773468452E+02  0.71872861266E+01  0.19753079798E+02  0.24092650394E+02  0.51100000000E-03 0. -1.
         11    1    1    0    0    0 -0.21260079250E+02  0.14164549094E+02 -0.46698568526E+02  0.53229519286E+02  0.51100000000E-03 0.  1.
         22    1    1    0    0    0  0.33033547703E+02 -0.21351835221E+02  0.26945488729E+02  0.47677830319E+02  0.00000000000E+00 0.  1.
</event>
<event>
 4    1  0.1964735E-002  0.9118800E+02  0.7818608E-02  0.1130116E+00
         25   -1    0    0    0    0  0.00000000000E+00  0.00000000000E+00  0.99999998245E-14  0.12500000000E+03  0.12500000000E+03 0.  0.
        -11    1    1    0    0    0 -0.75113645697E+01  0.88919383216E+01  0.31324968780E+02  0.33417672482E+02  0.51100000000E-03 0. -1.
         11    1    1    0    0    0 -0.65362639876E+01  0.77337644503E+01  0.27262573625E+02  0.29082327631E+02  0.51100000000E-03 0.  1.
         22    1    1    0    0    0  0.14047628557E+02 -0.16625702772E+02 -0.58587542405E+02  0.62499999887E+02  0.00000000000E+00 0.  1.
</event>
<event>
 4    1  0.1964735E-002  0.9118800E+02  0.7818608E-02  0.1130116E+00
         25   -1    0    0    0    0  0.00000000000E+00  0.00000000000E+00  0.99999998245E-14  0.12500000000E+03  0.12500000000E+03 0.  0.
        -11    1    1    0    0    0 -0.30000434460E+02  0.63726298949E+01  0.34999011301E+02  0.46535655920E+02  0.51100000000E-03 0.  1.
         11    1    1    0    0    0 -0.10291293780E+02  0.21870413686E+01  0.12006931525E+02  0.15964344099E+02  0.51100000000E-03 0.  1.
         22    1    1    0    0    0  0.40291728240E+02 -0.85596712636E+01 -0.47005942826E+02  0.62499999981E+02  0.00000000000E+00 0.  1.
</event>
<event>
 4    1  0.1964735E-002  0.9118800E+02  0.7818608E-02  0.1130116E+00
         25   -1    0    0    0    0  0.00000000000E+00  0.00000000000E+00  0.99999998245E-14  0.12500000000E+03  0.12500000000E+03 0.  0.
        -11    1    1    0    0    0 -0.12303706278E+02  0.50367687821E+01  0.51368288842E+01  0.14252622187E+02  0.51100000000E-03 0.  1.
         11    1    1    0    0    0 -0.41998307883E+02  0.16786516848E+02  0.16799578220E+02  0.48248013862E+02  0.51100000000E-03 0. -1.
         22    1    1    0    0    0  0.54302014162E+02 -0.21823285630E+02 -0.21936407104E+02  0.62499363952E+02  0.00000000000E+00 0. -1.
</event>
<event>
 4    1  0.1964735E-002  0.9118800E+02  0.7818608E-02  0.1130116E+00
         25   -1    0    0    0    0  0.00000000000E+00  0.00000000000E+00  0.99999998245E-14  0.12500000000E+03  0.12500000000E+03 0.  0.
        -11    1    1    0    0    0  0.45997190182E+01  0.14990056767E+01  0.28895544167E+02  0.29297728684E+02  0.51100000000E-03 0. -1.
         11    1    1    0    0    0  0.48894584826E+01  0.20967344512E+01  0.32774220268E+02  0.33203201865E+02  0.51100000000E-03 0.  1.
         22    1    1    0    0    0 -0.94891775008E+01 -0.35957401279E+01 -0.61669764436E+02  0.62499069451E+02  0.00000000000E+00 0.  1.
</event>
<event>
 4    1  0.1964735E-002  0.9118800E+02  0.7818608E-02  0.1130116E+00
         25   -1    0    0    0    0  0.00000000000E+00  0.00000000000E+00  0.99999998245E-14  0.12500000000E+03  0.12500000000E+03 0.  0.
        -11    1    1    0    0    0 -0.13417597634E+02 -0.20005687911E+02 -0.11830600363E+02  0.26836962948E+02  0.51100000000E-03 0.  1.
         11    1    1    0    0    0 -0.17846647505E+02 -0.26574369514E+02 -0.15721079845E+02  0.35663038204E+02  0.51100000000E-03 0. -1.
         22    1    1    0    0    0  0.31264245139E+02  0.46580057424E+02  0.27551680208E+02  0.62499998848E+02  0.00000000000E+00 0. -1.
</event>
<event>
 4    1  0.1964735E-002  0.9118800E+02  0.7818608E-02  0.1130116E+00
         25   -1    0    0    0    0  0.00000000000E+00  0.00000000000E+00  0.99999998245E-14  0.12500000000E+03  0.12500000000E+03 0.  0.
        -11    1    1    0    0    0  0.25406966775E+02  0.32907736163E+02 -0.34724511337E+02  0.54168484822E+02  0.51100000000E-03 0.  1.
         11    1    1    0    0    0  0.39300764073E+01  0.50453477890E+01 -0.53397976120E+01  0.83315348932E+01  0.51100000000E-03 0. -1.
         22    1    1    0    0    0 -0.29337043182E+02 -0.37953083952E+02  0.40064308949E+02  0.62499980285E+02  0.00000000000E+00 0.  1.
</event>
<event>
 4    1  0.1964735E-002  0.9118800E+02  0.7818608E-02  0.1130116E+00
         25   -1    0    0    0    0  0.00000000000E+00  0.00000000000E+00  0.99999998245E-14  0.12500000000E+03  0.12500000000E+03 0.  0.
        -11    1    1    0    0    0 -0.27662193641E+02  0.51849558878E+02 -0.14696705262E+01  0.58785488385E+02  0.51100000000E-03 0. -1.
         11    1    1    0    0    0 -0.17426096252E+01  0.32792117849E+01 -0.87792990349E-01  0.37145155951E+01  0.51100000000E-03 0.  1.
         22    1    1    0    0    0  0.29404803266E+02 -0.55128770663E+02  0.15574635166E+01  0.62499996020E+02  0.00000000000E+00 0. -1.
</event>
<event>
 4    1  0.1964735E-002  0.9118800E+02  0.7818608E-02  0.1130116E+00
         25   -1    0    0    0    0  0.00000000000E+00  0.00000000000E+00  0.99999998245E-14  0.12500000000E+03  0.12500000000E+03 0.  0.
        -11    1    1    0    0    0 -0.70444738695E+00 -0.27479625078E-01 -0.14567965637E+01  0.16184121045E+01  0.51100000000E-03 0. -1.
         11    1    1    0    0    0 -0.26526102649E+02 -0.10114746289E+01 -0.54789693958E+02  0.60881588078E+02  0.51100000000E-03 0.  1.
         22    1    1    0    0    0  0.27230550036E+02  0.10389542540E+01  0.56246490521E+02  0.62499999817E+02  0.00000000000E+00 0.  1.
</event>
<event>
 4    1  0.1964735E-002  0.9118800E+02  0.7818608E-02  0.1130116E+00
         25   -1    0    0    0    0  0.00000000000E+00  0.00000000000E+00  0.99999998245E-14  0.12500000000E+03  0.12500000000E+03 0.  0.
        -11    1    1    0    0    0  0.15387443943E+02  0.35126853870E+02 -0.30521074204E+02  0.49012297076E+02  0.51100000000E-03 0.  1.
         11    1    1    0    0    0  0.35671238129E+01  0.92370224491E+01 -0.91847911431E+01  0.13505826321E+02  0.51100000000E-03 0. -1.
         22    1    1    0    0    0 -0.18954567756E+02 -0.44363876319E+02  0.39705865347E+02  0.62481876602E+02  0.00000000000E+00 0.  1.
</event>
<event>
 4    1  0.1964735E-002  0.9118800E+02  0.7818608E-02  0.1130116E+00
         25   -1    0    0    0    0  0.00000000000E+00  0.00000000000E+00  0.99999998245E-14  0.12500000000E+03  0.12500000000E+03 0.  0.
        -11    1    1    0    0    0 -0.29725711326E+01  0.87549578081E+00  0.34596703893E+00  0.31180707903E+01  0.51100000000E-03 0. -1.
         11    1    1    0    0    0  0.58614504156E+02  0.18570449684E+02 -0.95576917726E+01  0.62224361557E+02  0.51100000000E-03 0.  1.
         22    1    1    0    0    0 -0.55641933024E+02 -0.19445945465E+02  0.92117247337E+01  0.59657567652E+02  0.00000000000E+00 0.  1.
</event>
<event>
 4    1  0.1964735E-002  0.9118800E+02  0.7818608E-02  0.1130116E+00
         25   -1    0    0    0    0  0.00000000000E+00  0.00000000000E+00  0.99999998245E-14  0.12500000000E+03  0.12500000000E+03 0.  0.
        -11    1    1    0    0    0  0.46618462914E+01  0.74456282474E+01 -0.13217341425E+01  0.88835337703E+01  0.51100000000E-03 0.  1.
         11    1    1    0    0    0  0.28222993448E+02  0.44865389130E+02 -0.80800127758E+01  0.53616481679E+02  0.51100000000E-03 0. -1.
         22    1    1    0    0    0 -0.32884839740E+02 -0.52311017377E+02  0.94017469183E+01  0.62499984551E+02  0.00000000000E+00 0. -1.
</event>
<event>
 4    1  0.1964735E-002  0.9118800E+02  0.7818608E-02  0.1130116E+00
         25   -1    0    0    0    0  0.00000000000E+00  0.00000000000E+00  0.99999998245E-14  0.12500000000E+03  0.12500000000E+03 0.  0.
        -11    1    1    0    0    0  0.18537285378E+02  0.15218354862E+02  0.18756842164E+02  0.30447469552E+02  0.51100000000E-03 0. -1.
         11    1    1    0    0    0  0.19514236893E+02  0.16025633507E+02  0.19741791892E+02  0.32052530605E+02  0.51100000000E-03 0.  1.
         22    1    1    0    0    0 -0.38051522270E+02 -0.31243988368E+02 -0.38498634057E+02  0.62499999844E+02  0.00000000000E+00 0.  1.
</event>
<event>
 4    1  0.1964735E-002  0.9118800E+02  0.7818608E-02  0.1130116E+00
         25   -1    0    0    0    0  0.00000000000E+00  0.00000000000E+00  0.99999998245E-14  0.12500000000E+03  0.12500000000E+03 0.  0.
        -11    1    1    0    0    0  0.36497837897E+01  0.25099587914E+01  0.70930042332E+01  0.83625070499E+01  0.51100000000E-03 0. -1.
         11    1    1    0    0    0  0.24145081920E+02  0.16464416899E+02  0.45572306948E+02  0.54137760995E+02  0.51100000000E-03 0.  1.
         22    1    1    0    0    0 -0.27794865710E+02 -0.18974375690E+02 -0.52665311181E+02  0.62499731955E+02  0.00000000000E+00 0.  1.
</event>
<event>
 4    1  0.1964735E-002  0.9118800E+02  0.7818608E-02  0.1130116E+00
         25   -1    0    0    0    0  0.00000000000E+00  0.00000000000E+00  0.99999998245E-14  0.12500000000E+03  0.12500000000E+03 0.  0.
        -11    1    1    0    0    0 -0.13931122556E+01 -0.99353672601E+01  0.17729193621E+01  0.10188009014E+02  0.51100000000E-03 0.  1.
         11    1    1    0    0    0  0.17242345935E+02 -0.35253279405E+02  0.36434847721E+02  0.53549886376E+02  0.51100000000E-03 0. -1.
         22    1    1    0    0    0 -0.15849233680E+02  0.45188646665E+02 -0.38207767084E+02  0.61262104609E+02  0.00000000000E+00 0. -1.
</event>
<event>
 4    1  0.1964735E-002  0.9118800E+02  0.7818608E-02  0.1130116E+00
         25   -1    0    0    0    0  0.00000000000E+00  0.00000000000E+00  0.99999998245E-14  0.12500000000E+03  0.12500000000E+03 0.  0.
        -11    1    1    0    0    0  0.94334572542E+01 -0.61884615969E+01  0.17312434818E+02  0.20664161543E+02  0.51100000000E-03 0. -1.
         11    1    1    0    0    0  0.17200032467E+02 -0.16407244923E+02  0.34472269662E+02  0.41873334937E+02  0.51100000000E-03 0.  1.
         22    1    1    0    0    0 -0.26633489721E+02  0.22595706520E+02 -0.51784704480E+02  0.62462503520E+02  0.00000000000E+00 0. -1.
</event>
<event>
 4    1  0.1964735E-002  0.9118800E+02  0.7818608E-02  0.1130116E+00
         25   -1    0    0    0    0  0.00000000000E+00  0.00000000000E+00  0.99999998245E-14  0.12500000000E+03  0.12500000000E+03 0.  0.
        -11    1    1    0    0    0  0.80929193920E+01  0.51349654741E+01  0.64326578609E+01  0.11543062944E+02  0.51100000000E-03 0. -1.
         11    1    1    0    0    0  0.32531286426E+02  0.31570195884E+02  0.23497535420E+02  0.51059730079E+02  0.51100000000E-03 0.  1.
         22    1    1    0    0    0 -0.40624205818E+02 -0.36705161358E+02 -0.29930193281E+02  0.62397206977E+02  0.00000000000E+00 0.  1.
</event>
<event>
 4    1  0.1964735E-002  0.9118800E+02  0.7818608E-02  0.1130116E+00
         25   -1    0    0    0    0  0.00000000000E+00  0.00000000000E+00  0.99999998245E-14  0.12500000000E+03  0.12500000000E+03 0.  0.
        -11    1    1    0    0    0  0.55591818053E+01  0.31065320698E+00  0.13125604126E+02  0.14257716917E+02  0.51100000000E-03 0. -1.
         11    1    1    0    0    0 -0.26715613914E+02 -0.46336824216E+02  0.11045438192E+02  0.54615263529E+02  0.51100000000E-03 0.  1.
         22    1    1    0    0    0  0.21156432108E+02  0.46026171009E+02 -0.24171042318E+02  0.56127019554E+02  0.00000000000E+00 0.  1.
</event>
<event>
 4    1  0.1964735E-002  0.9118800E+02  0.7818608E-02  0.1130116E+00
         25   -1    0    0    0    0  0.00000000000E+00  0.00000000000E+00  0.99999998245E-14  0.12500000000E+03  0.12500000000E+03 0.  0.
        -11    1    1    0    0    0 -0.47822721906E+01 -0.68218071175E+01  0.16765571227E+02  0.18721419777E+02  0.51100000000E-03 0.  1.
         11    1    1    0    0    0 -0.11198850435E+02 -0.16161966552E+02  0.39114556386E+02  0.43778669868E+02  0.51100000000E-03 0. -1.
         22    1    1    0    0    0  0.15981122625E+02  0.22983773670E+02 -0.55880127612E+02  0.62499910355E+02  0.00000000000E+00 0. -1.
</event>
<event>
 4    1  0.1964735E-002  0.9118800E+02  0.7818608E-02  0.1130116E+00
         25   -1    0    0    0    0  0.00000000000E+00  0.00000000000E+00  0.99999998245E-14  0.12500000000E+03  0.12500000000E+03 0.  0.
        -11    1    1    0    0    0 -0.49507230665E+00  0.20977176078E+01 -0.20117329757E+00  0.21647140013E+01  0.51100000000E-03 0. -1.
         11    1    1    0    0    0 -0.13877218081E+02  0.58552543921E+02 -0.44039142817E+01  0.60335495710E+02  0.51100000000E-03 0.  1.
         22    1    1    0    0    0  0.14372290387E+02 -0.60650261529E+02  0.46050875793E+01  0.62499790289E+02  0.00000000000E+00 0.  1.
</event>
<event>
 4    1  0.1964735E-002  0.9118800E+02  0.7818608E-02  0.1130116E+00
         25   -1    0    0    0    0  0.00000000000E+00  0.00000000000E+00  0.99999998245E-14  0.12500000000E+03  0.12500000000E+03 0.  0.
        -11    1    1    0    0    0  0.29348642331E+02 -0.19045038997E+01 -0.13434496117E+02  0.32333506273E+02  0.51100000000E-03 0.  1.
         11    1    1    0    0    0  0.27382746077E+02 -0.17778676857E+01 -0.12531629969E+02  0.30166493766E+02  0.51100000000E-03 0. -1.
         22    1    1    0    0    0 -0.56731388407E+02  0.36823715854E+01  0.25966126087E+02  0.62499999960E+02  0.00000000000E+00 0. -1.
</event>
<event>
 4    1  0.1964735E-002  0.9118800E+02  0.7818608E-02  0.1130116E+00
         25   -1    0    0    0    0  0.00000000000E+00  0.00000000000E+00  0.99999998245E-14  0.12500000000E+03  0.12500000000E+03 0.  0.
        -11    1    1    0    0    0  0.16990243535E+02 -0.37831145470E+01  0.63043806060E+01  0.18512848137E+02  0.51100000000E-03 0. -1.
         11    1    1    0    0    0  0.40369632245E+02 -0.89877888575E+01  0.14979384940E+02  0.43987151870E+02  0.51100000000E-03 0.  1.
         22    1    1    0    0    0 -0.57359875781E+02  0.12770903405E+02 -0.21283765546E+02  0.62499999993E+02  0.00000000000E+00 0.  1.
</event>
<event>
 4    1  0.1964735E-002  0.9118800E+02  0.7818608E-02  0.1130116E+00
         25   -1    0    0    0    0  0.00000000000E+00  0.00000000000E+00  0.99999998245E-14  0.12500000000E+03  0.12500000000E+03 0.  0.
        -11    1    1    0    0    0 -0.10773750559E+01 -0.43358404580E+02  0.37240291231E+01  0.43531372341E+02  0.51100000000E-03 0. -1.
         11    1    1    0    0    0 -0.51580153726E+00 -0.18919508964E+02  0.12794498059E+01  0.18969735442E+02  0.51100000000E-03 0.  1.
         22    1    1    0    0    0  0.15931765932E+01  0.62277913544E+02 -0.50034789290E+01  0.62498892217E+02  0.00000000000E+00 0. -1.
</event>
<event>
 4    1  0.1964735E-002  0.9118800E+02  0.7818608E-02  0.1130116E+00
         25   -1    0    0    0    0  0.00000000000E+00  0.00000000000E+00  0.99999998245E-14  0.12500000000E+03  0.12500000000E+03 0.  0.
        -11    1    1    0    0    0 -0.12859020224E+01 -0.19763792624E+02 -0.11554648183E+02  0.22929695545E+02  0.51100000000E-03 0.  1.
         11    1    1    0    0    0 -0.22202621446E+01 -0.34107183340E+02 -0.19939395070E+02  0.39570304464E+02  0.51100000000E-03 0.  1.
         22    1    1    0    0    0  0.35061641670E+01  0.53870975963E+02  0.31494043254E+02  0.62499999991E+02  0.00000000000E+00 0.  1.
</event>
<event>
 4    1  0.1964735E-002  0.9118800E+02  0.7818608E-02  0.1130116E+00
         25   -1    0    0    0    0  0.00000000000E+00  0.00000000000E+00  0.99999998245E-14  0.12500000000E+03  0.12500000000E+03 0.  0.
        -11    1    1    0    0    0  0.34474981519E+02  0.98521326891E+01 -0.13910928830E+02  0.38459105690E+02  0.51100000000E-03 0. -1.
         11    1    1    0    0    0  0.21627289173E+02  0.53581549766E+01 -0.90416206461E+01  0.24045797261E+02  0.51100000000E-03 0.  1.
         22    1    1    0    0    0 -0.56102270693E+02 -0.15210287666E+02  0.22952549476E+02  0.62495097049E+02  0.00000000000E+00 0. -1.
</event>
<event>
 4    1  0.1964735E-002  0.9118800E+02  0.7818608E-02  0.1130116E+00
         25   -1    0    0    0    0  0.00000000000E+00  0.00000000000E+00  0.99999998245E-14  0.12500000000E+03  0.12500000000E+03 0.  0.
        -11    1    1    0    0    0 -0.20679622583E+02 -0.24726698412E+02 -0.18544174734E+02  0.37187939192E+02  0.51100000000E-03 0. -1.
         11    1    1    0    0    0 -0.13789599592E+02 -0.16906685601E+02 -0.12835535551E+02  0.25312843539E+02  0.51100000000E-03 0.  1.
         22    1    1    0    0    0  0.34469222174E+02  0.41633384013E+02  0.31379710285E+02  0.62499217269E+02  0.00000000000E+00 0. -1.
</event>
<event>
 4    1  0.1964735E-002  0.9118800E+02  0.7818608E-02  0.1130116E+00
         25   -1    0    0    0    0  0.00000000000E+00  0.00000000000E+00  0.99999998245E-14  0.12500000000E+03  0.12500000000E+03 0.  0.
        -11    1    1    0    0    0  0.13717182232E+02  0.10261337777E+02  0.92407814647E+01  0.19464022804E+02  0.51100000000E-03 0. -1.
         11    1    1    0    0    0  0.29607779533E+02  0.23574535316E+02  0.20491948327E+02  0.43038346515E+02  0.51100000000E-03 0.  1.
         22    1    1    0    0    0 -0.43324961765E+02 -0.33835873093E+02 -0.29732729792E+02  0.62497630681E+02  0.00000000000E+00 0.  1.
</event>
<event>
 4    1  0.1964735E-002  0.9118800E+02  0.7818608E-02  0.1130116E+00
         25   -1    0    0    0    0  0.00000000000E+00  0.00000000000E+00  0.99999998245E-14  0.12500000000E+03  0.12500000000E+03 0.  0.
        -11    1    1    0    0    0  0.24543909502E+02 -0.46973996400E+02 -0.16966137146E+01  0.53026769936E+02  0.51100000000E-03 0. -1.
         11    1    1    0    0    0  0.46193025584E+01 -0.76435905451E+01  0.44864844233E+01  0.99945472778E+01  0.51100000000E-03 0.  1.
         22    1    1    0    0    0 -0.29163212060E+02  0.54617586945E+02 -0.27898707087E+01  0.61978682787E+02  0.00000000000E+00 0. -1.
</event>
<event>
 4    1  0.1964735E-002  0.9118800E+02  0.7818608E-02  0.1130116E+00
         25   -1    0    0    0    0  0.00000000000E+00  0.00000000000E+00  0.99999998245E-14  0.12500000000E+03  0.12500000000E+03 0.  0.
        -11    1    1    0    0    0  0.54452715221E+02 -0.22618850789E+01  0.23174534562E+02  0.59222237137E+02  0.51100000000E-03 0. -1.
         11    1    1    0    0    0  0.30137116952E+01 -0.12354438887E+00  0.12829689003E+01  0.32777630876E+01  0.51100000000E-03 0. -1.
         22    1    1    0    0    0 -0.57466426917E+02  0.23854294678E+01 -0.24457503462E+02  0.62499999775E+02  0.00000000000E+00 0. -1.
</event>
<event>
 4    1  0.1964735E-002  0.9118800E+02  0.7818608E-02  0.1130116E+00
         25   -1    0    0    0    0  0.00000000000E+00  0.00000000000E+00  0.99999998245E-14  0.12500000000E+03  0.12500000000E+03 0.  0.
        -11    1    1    0    0    0  0.34425118212E+02 -0.70452897644E+01 -0.21268309504E+02  0.41073907304E+02  0.51100000000E-03 0. -1.
         11    1    1    0    0    0  0.13901850010E+02  0.86234797807E+01 -0.15996005724E+02  0.22880079472E+02  0.51100000000E-03 0.  1.
         22    1    1    0    0    0 -0.48326968221E+02 -0.15781900164E+01  0.37264315229E+02  0.61046013225E+02  0.00000000000E+00 0. -1.
</event>
<event>
 4    1  0.1964735E-002  0.9118800E+02  0.7818608E-02  0.1130116E+00
         25   -1    0    0    0    0  0.00000000000E+00  0.00000000000E+00  0.99999998245E-14  0.12500000000E+03  0.12500000000E+03 0.  0.
        -11    1    1    0    0    0 -0.60853584979E+01  0.28121416397E+00 -0.48530546697E+02  0.48911395732E+02  0.51100000000E-03 0.  1.
         11    1    1    0    0    0 -0.32300652454E+01  0.83191873549E+00 -0.13217528398E+02  0.13631891559E+02  0.51100000000E-03 0. -1.
         22    1    1    0    0    0  0.93154237433E+01 -0.11131328995E+01  0.61748075095E+02  0.62456712709E+02  0.00000000000E+00 0.  1.
</event>
<event>
 4    1  0.1964735E-002  0.9118800E+02  0.7818608E-02  0.1130116E+00
         25   -1    0    0    0    0  0.00000000000E+00  0.00000000000E+00  0.99999998245E-14  0.12500000000E+03  0.12500000000E+03 0.  0.
        -11    1    1    0    0    0 -0.30180129868E+02  0.60716955397E+01  0.77199927300E+01  0.31738053085E+02  0.51100000000E-03 0.  1.
         11    1    1    0    0    0 -0.29199819211E+02  0.59010902087E+01  0.76716952828E+01  0.30762106826E+02  0.51100000000E-03 0. -1.
         22    1    1    0    0    0  0.59379949080E+02 -0.11972785748E+02 -0.15391688013E+02  0.62499840089E+02  0.00000000000E+00 0.  1.
</event>
<event>
 4    1  0.1964735E-002  0.9118800E+02  0.7818608E-02  0.1130116E+00
         25   -1    0    0    0    0  0.00000000000E+00  0.00000000000E+00  0.99999998245E-14  0.12500000000E+03  0.12500000000E+03 0.  0.
        -11    1    1    0    0    0 -0.16925895867E+01 -0.47656369297E+00 -0.92815682279E+00  0.19883278933E+01  0.51100000000E-03 0.  1.
         11    1    1    0    0    0 -0.53687401105E+02 -0.88572062454E+01 -0.26485979556E+02  0.60516892296E+02  0.51100000000E-03 0. -1.
         22    1    1    0    0    0  0.55379990691E+02  0.93337699384E+01  0.27414136379E+02  0.62494779811E+02  0.00000000000E+00 0. -1.
</event>
<event>
 4    1  0.1964735E-002  0.9118800E+02  0.7818608E-02  0.1130116E+00
         25   -1    0    0    0    0  0.00000000000E+00  0.00000000000E+00  0.99999998245E-14  0.12500000000E+03  0.12500000000E+03 0.  0.
        -11    1    1    0    0    0 -0.39291614126E+01  0.10404396805E+02  0.31387454443E+02  0.33299580762E+02  0.51100000000E-03 0. -1.
         11    1    1    0    0    0 -0.35594891753E+01  0.94966158356E+01  0.27383472570E+02  0.29201202814E+02  0.51100000000E-03 0.  1.
         22    1    1    0    0    0  0.74886505879E+01 -0.19901012641E+02 -0.58770927012E+02  0.62499216424E+02  0.00000000000E+00 0.  1.
</event>
<event>
 4    1  0.1964735E-002  0.9118800E+02  0.7818608E-02  0.1130116E+00
         25   -1    0    0    0    0  0.00000000000E+00  0.00000000000E+00  0.99999998245E-14  0.12500000000E+03  0.12500000000E+03 0.  0.
        -11    1    1    0    0    0  0.26433443217E+02 -0.89482549935E+01  0.33372618205E+02  0.43503216362E+02  0.51100000000E-03 0.  1.
         11    1    1    0    0    0  0.10061642068E+02 -0.39840618140E+01  0.15650516707E+02  0.19027560619E+02  0.51100000000E-03 0. -1.
         22    1    1    0    0    0 -0.36495085286E+02  0.12932316808E+02 -0.49023134912E+02  0.62469223019E+02  0.00000000000E+00 0. -1.
</event>
<event>
 4    1  0.1964735E-002  0.9118800E+02  0.7818608E-02  0.1130116E+00
         25   -1    0    0    0    0  0.00000000000E+00  0.00000000000E+00  0.99999998245E-14  0.12500000000E+03  0.12500000000E+03 0.  0.
        -11    1    1    0    0    0  0.17033350070E+02  0.51016615001E+02  0.54675563702E+01  0.54062225201E+02  0.51100000000E-03 0.  1.
         11    1    1    0    0    0  0.26802511128E+01  0.79547569143E+01  0.85695732980E+00  0.84377887933E+01  0.51100000000E-03 0. -1.
         22    1    1    0    0    0 -0.19713601183E+02 -0.58971371915E+02 -0.63245137000E+01  0.62499986006E+02  0.00000000000E+00 0.  1.
</event>
<event>
 4    1  0.1964735E-002  0.9118800E+02  0.7818608E-02  0.1130116E+00
         25   -1    0    0    0    0  0.00000000000E+00  0.00000000000E+00  0.99999998245E-14  0.12500000000E+03  0.12500000000E+03 0.  0.
        -11    1    1    0    0    0 -0.45912352012E+01  0.17938511079E+02  0.26932717799E+02  0.32683954912E+02  0.51100000000E-03 0. -1.
         11    1    1    0    0    0 -0.41856869037E+01  0.16365053572E+02  0.24569525706E+02  0.29816045125E+02  0.51100000000E-03 0. -1.
         22    1    1    0    0    0  0.87769221049E+01 -0.34303564650E+02 -0.51502243504E+02  0.62499999963E+02  0.00000000000E+00 0. -1.
</event>
<event>
 4    1  0.1964735E-002  0.9118800E+02  0.7818608E-02  0.1130116E+00
         25   -1    0    0    0    0  0.00000000000E+00  0.00000000000E+00  0.99999998245E-14  0.12500000000E+03  0.12500000000E+03 0.  0.
        -11    1    1    0    0    0  0.17413871683E+02  0.12480816000E+01 -0.32246472096E+02  0.36669273207E+02  0.51100000000E-03 0.  1.
         11    1    1    0    0    0  0.12265837353E+02  0.88020399509E+00 -0.22715653681E+02  0.25830726809E+02  0.51100000000E-03 0.  1.
         22    1    1    0    0    0 -0.29679709036E+02 -0.21282855951E+01  0.54962125777E+02  0.62499999984E+02  0.00000000000E+00 0.  1.
</event>
<event>
 4    1  0.1964735E-002  0.9118800E+02  0.7818608E-02  0.1130116E+00
         25   -1    0    0    0    0  0.00000000000E+00  0.00000000000E+00  0.99999998245E-14  0.12500000000E+03  0.12500000000E+03 0.  0.
        -11    1    1    0    0    0 -0.86261366818E+01 -0.36961273408E+02  0.27719864049E+02  0.46999327965E+02  0.51100000000E-03 0.  1.
         11    1    1    0    0    0 -0.28440566237E+01 -0.12190003777E+02  0.91425370466E+01  0.15500672052E+02  0.51100000000E-03 0. -1.
         22    1    1    0    0    0  0.11470193305E+02  0.49151277185E+02 -0.36862401096E+02  0.62499999983E+02  0.00000000000E+00 0.  1.
</event>
<event>
 4    1  0.1964735E-002  0.9118800E+02  0.7818608E-02  0.1130116E+00
         25   -1    0    0    0    0  0.00000000000E+00  0.00000000000E+00  0.99999998245E-14  0.12500000000E+03  0.12500000000E+03 0.  0.
        -11    1    1    0    0    0 -0.25361687552E+01 -0.24513491993E+01  0.52013981678E+00  0.35653626101E+01  0.51100000000E-03 0.  1.
         11    1    1    0    0    0 -0.42291080193E+02 -0.40091176805E+02  0.88013565432E+01  0.58934724898E+02  0.51100000000E-03 0. -1.
         22    1    1    0    0    0  0.44827248948E+02  0.42542526005E+02 -0.93214963600E+01  0.62499912492E+02  0.00000000000E+00 0. -1.
</event>
<event>
 4    1  0.1964735E-002  0.9118800E+02  0.7818608E-02  0.1130116E+00
         25   -1    0    0    0    0  0.00000000000E+00  0.00000000000E+00  0.99999998245E-14  0.12500000000E+03  0.12500000000E+03 0.  0.
        -11    1    1    0    0    0 -0.35058898534E+02  0.25621430187E+02  0.13992311211E+01  0.43445850196E+02  0.51100000000E-03 0.  1.
         11    1    1    0    0    0 -0.16548306370E+02  0.90813500584E+01 -0.40571465969E+01  0.19307454554E+02  0.51100000000E-03 0. -1.
         22    1    1    0    0    0  0.51607204904E+02 -0.34702780246E+02  0.26579154758E+01  0.62246695250E+02  0.00000000000E+00 0. -1.
</event>
<event>
 4    1  0.1964735E-002  0.9118800E+02  0.7818608E-02  0.1130116E+00
         25   -1    0    0    0    0  0.00000000000E+00  0.00000000000E+00  0.99999998245E-14  0.12500000000E+03  0.12500000000E+03 0.  0.
        -11    1    1    0    0    0 -0.18852562489E+02 -0.39265534178E+02 -0.12804600429E+02  0.45399989858E+02  0.51100000000E-03 0.  1.
         11    1    1    0    0    0 -0.10425989056E+02 -0.13564846300E+02 -0.24995868460E+01  0.17290293161E+02  0.51100000000E-03 0. -1.
         22    1    1    0    0    0  0.29278551545E+02  0.52830380478E+02  0.15304187275E+02  0.62309716981E+02  0.00000000000E+00 0.  1.
</event>
<event>
 4    1  0.1964735E-002  0.9118800E+02  0.7818608E-02  0.1130116E+00
         25   -1    0    0    0    0  0.00000000000E+00  0.00000000000E+00  0.99999998245E-14  0.12500000000E+03  0.12500000000E+03 0.  0.
        -11    1    1    0    0    0 -0.55484011976E+02  0.17292163657E+02 -0.11626814911E+02  0.59267844014E+02  0.51100000000E-03 0. -1.
         11    1    1    0    0    0 -0.14527547467E+01 -0.21641726279E+01  0.60122739837E+01  0.65529823923E+01  0.51100000000E-03 0.  1.
         22    1    1    0    0    0  0.56936766723E+02 -0.15127991029E+02  0.56145409272E+01  0.59179173593E+02  0.00000000000E+00 0. -1.
</event>
<event>
 4    1  0.1964735E-002  0.9118800E+02  0.7818608E-02  0.1130116E+00
         25   -1    0    0    0    0  0.00000000000E+00  0.00000000000E+00  0.99999998245E-14  0.12500000000E+03  0.12500000000E+03 0.  0.
        -11    1    1    0    0    0  0.23953858386E+02 -0.39607419712E+02 -0.20448704680E+01  0.46332672310E+02  0.51100000000E-03 0.  1.
         11    1    1    0    0    0  0.83590157884E+01 -0.13820353883E+02 -0.71215097619E+00  0.16167327722E+02  0.51100000000E-03 0. -1.
         22    1    1    0    0    0 -0.32312874175E+02  0.53427773595E+02  0.27570214442E+01  0.62499999968E+02  0.00000000000E+00 0.  1.
</event>
<event>
 4    1  0.1964735E-002  0.9118800E+02  0.7818608E-02  0.1130116E+00
         25   -1    0    0    0    0  0.00000000000E+00  0.00000000000E+00  0.99999998245E-14  0.12500000000E+03  0.12500000000E+03 0.  0.
        -11    1    1    0    0    0 -0.32262576712E+02  0.35428135436E+01  0.13988064364E+02  0.35342486172E+02  0.51100000000E-03 0.  1.
         11    1    1    0    0    0 -0.24486093843E+02  0.33163838194E+01  0.11276894013E+02  0.27161287381E+02  0.51100000000E-03 0. -1.
         22    1    1    0    0    0  0.56748670556E+02 -0.68591973630E+01 -0.25264958377E+02  0.62496226447E+02  0.00000000000E+00 0.  1.
</event>
<event>
 4    1  0.1964735E-002  0.9118800E+02  0.7818608E-02  0.1130116E+00
         25   -1    0    0    0    0  0.00000000000E+00  0.00000000000E+00  0.99999998245E-14  0.12500000000E+03  0.12500000000E+03 0.  0.
        -11    1    1    0    0    0 -0.40998487867E+01 -0.77773491727E+01 -0.18599475524E+02  0.20572710328E+02  0.51100000000E-03 0. -1.
         11    1    1    0    0    0 -0.83388327242E+01 -0.15882033425E+02 -0.37896209961E+02  0.41927292384E+02  0.51100000000E-03 0.  1.
         22    1    1    0    0    0  0.12438681511E+02  0.23659382598E+02  0.56495685485E+02  0.62499997288E+02  0.00000000000E+00 0.  1.
</event>
<event>
 4    1  0.1964735E-002  0.9118800E+02  0.7818608E-02  0.1130116E+00
         25   -1    0    0    0    0  0.00000000000E+00  0.00000000000E+00  0.99999998245E-14  0.12500000000E+03  0.12500000000E+03 0.  0.
        -11    1    1    0    0    0  0.98293495055E+01  0.18862295246E+02 -0.44964760583E+02  0.49741652447E+02  0.51100000000E-03 0.  1.
         11    1    1    0    0    0  0.24687345308E+01  0.50954721338E+01 -0.11434521462E+02  0.12759575533E+02  0.51100000000E-03 0. -1.
         22    1    1    0    0    0 -0.12298084036E+02 -0.23957767380E+02  0.56399282045E+02  0.62498772020E+02  0.00000000000E+00 0.  1.
</event>
<event>
 4    1  0.1964735E-002  0.9118800E+02  0.7818608E-02  0.1130116E+00
         25   -1    0    0    0    0  0.00000000000E+00  0.00000000000E+00  0.99999998245E-14  0.12500000000E+03  0.12500000000E+03 0.  0.
        -11    1    1    0    0    0  0.30168976151E+02  0.38848125180E+02  0.38377402289E+02  0.62387249969E+02  0.51100000000E-03 0.  1.
         11    1    1    0    0    0  0.19430336104E-01  0.18213656627E-02  0.13216152523E+00  0.13359560325E+00  0.51100000000E-03 0. -1.
         22    1    1    0    0    0 -0.30188406487E+02 -0.38849946546E+02 -0.38509563814E+02  0.62479154428E+02  0.00000000000E+00 0.  1.
</event>
<event>
 4    1  0.1964735E-002  0.9118800E+02  0.7818608E-02  0.1130116E+00
         25   -1    0    0    0    0  0.00000000000E+00  0.00000000000E+00  0.99999998245E-14  0.12500000000E+03  0.12500000000E+03 0.  0.
        -11    1    1    0    0    0 -0.21793039275E+02 -0.24159556257E+02  0.38961727471E+02  0.50760584385E+02  0.51100000000E-03 0. -1.
         11    1    1    0    0    0 -0.50337589469E+01 -0.55741258756E+01  0.90224394805E+01  0.11739421743E+02  0.51100000000E-03 0.  1.
         22    1    1    0    0    0  0.26826798222E+02  0.29733682133E+02 -0.47984166951E+02  0.62499993872E+02  0.00000000000E+00 0. -1.
</event>
<event>
 4    1  0.1964735E-002  0.9118800E+02  0.7818608E-02  0.1130116E+00
         25   -1    0    0    0    0  0.00000000000E+00  0.00000000000E+00  0.99999998245E-14  0.12500000000E+03  0.12500000000E+03 0.  0.
        -11    1    1    0    0    0  0.39534924383E+02  0.43665784337E+02  0.11214617506E+02  0.59962309944E+02  0.51100000000E-03 0.  1.
         11    1    1    0    0    0  0.23112455714E+01  0.10510854473E+01  0.72764524865E+00  0.26412316403E+01  0.51100000000E-03 0. -1.
         22    1    1    0    0    0 -0.41846169955E+02 -0.44716869784E+02 -0.11942262754E+02  0.62396458416E+02  0.00000000000E+00 0.  1.
</event>
<event>
 4    1  0.1964735E-002  0.9118800E+02  0.7818608E-02  0.1130116E+00
         25   -1    0    0    0    0  0.00000000000E+00  0.00000000000E+00  0.99999998245E-14  0.12500000000E+03  0.12500000000E+03 0.  0.
        -11    1    1    0    0    0 -0.11861988230E+02  0.13600714985E+02  0.21532230708E+02  0.28094895842E+02  0.51100000000E-03 0. -1.
         11    1    1    0    0    0 -0.14482595108E+02  0.16605512950E+02  0.26423933318E+02  0.34405128595E+02  0.51100000000E-03 0.  1.
         22    1    1    0    0    0  0.26344583339E+02 -0.30206227935E+02 -0.47956164025E+02  0.62499975563E+02  0.00000000000E+00 0. -1.
</event>
<event>
 4    1  0.1964735E-002  0.9118800E+02  0.7818608E-02  0.1130116E+00
         25   -1    0    0    0    0  0.00000000000E+00  0.00000000000E+00  0.99999998245E-14  0.12500000000E+03  0.12500000000E+03 0.  0.
        -11    1    1    0    0    0  0.21121735263E+02  0.51687855276E+02 -0.20095260158E+02  0.59342915033E+02  0.51100000000E-03 0. -1.
         11    1    1    0    0    0  0.10962774382E+01  0.27547398509E+01 -0.10850153181E+01  0.31571623920E+01  0.51100000000E-03 0.  1.
         22    1    1    0    0    0 -0.22218012701E+02 -0.54442595127E+02  0.21180275476E+02  0.62499922575E+02  0.00000000000E+00 0. -1.
</event>
<event>
 4    1  0.1964735E-002  0.9118800E+02  0.7818608E-02  0.1130116E+00
         25   -1    0    0    0    0  0.00000000000E+00  0.00000000000E+00  0.99999998245E-14  0.12500000000E+03  0.12500000000E+03 0.  0.
        -11    1    1    0    0    0 -0.38254920815E+01 -0.16281806892E+02 -0.10176777632E+02  0.19578008800E+02  0.51100000000E-03 0.  1.
         11    1    1    0    0    0 -0.83492437491E+01 -0.35700171345E+02 -0.22317828195E+02  0.42921993905E+02  0.51100000000E-03 0. -1.
         22    1    1    0    0    0  0.12174735831E+02  0.51981978237E+02  0.32494605826E+02  0.62499997295E+02  0.00000000000E+00 0. -1.
</event>
<event>
 4    1  0.1964735E-002  0.9118800E+02  0.7818608E-02  0.1130116E+00
         25   -1    0    0    0    0  0.00000000000E+00  0.00000000000E+00  0.99999998245E-14  0.12500000000E+03  0.12500000000E+03 0.  0.
        -11    1    1    0    0    0  0.85049105929E+01  0.41062825915E+01  0.11746130033E+01  0.95170781694E+01  0.51100000000E-03 0. -1.
         11    1    1    0    0    0  0.47102251768E+02  0.23626625580E+02  0.55207556452E+01  0.52984132540E+02  0.51100000000E-03 0.  1.
         22    1    1    0    0    0 -0.55607162361E+02 -0.27732908171E+02 -0.66953686485E+01  0.62498789290E+02  0.00000000000E+00 0.  1.
</event>
<event>
 4    1  0.1964735E-002  0.9118800E+02  0.7818608E-02  0.1130116E+00
         25   -1    0    0    0    0  0.00000000000E+00  0.00000000000E+00  0.99999998245E-14  0.12500000000E+03  0.12500000000E+03 0.  0.
        -11    1    1    0    0    0  0.16599458169E+02 -0.12396555775E+01 -0.18825844440E+01  0.16751802348E+02  0.51100000000E-03 0.  1.
         11    1    1    0    0    0  0.16095074561E+02  0.49840626648E+01  0.48410433987E+02  0.51258779003E+02  0.51100000000E-03 0. -1.
         22    1    1    0    0    0 -0.32694532730E+02 -0.37444070873E+01 -0.46527849543E+02  0.56989418649E+02  0.00000000000E+00 0. -1.
</event>
<event>
 4    1  0.1964735E-002  0.9118800E+02  0.7818608E-02  0.1130116E+00
         25   -1    0    0    0    0  0.00000000000E+00  0.00000000000E+00  0.99999998245E-14  0.12500000000E+03  0.12500000000E+03 0.  0.
        -11    1    1    0    0    0 -0.49352387231E+00 -0.21077601271E+02  0.87086130904E+01  0.22811154801E+02  0.51100000000E-03 0. -1.
         11    1    1    0    0    0 -0.85613926488E+00 -0.36662117636E+02  0.15177639167E+02  0.39688846984E+02  0.51100000000E-03 0.  1.
         22    1    1    0    0    0  0.13496631372E+01  0.57739718907E+02 -0.23886252257E+02  0.62499998215E+02  0.00000000000E+00 0.  1.
</event>
<event>
 4    1  0.1964735E-002  0.9118800E+02  0.7818608E-02  0.1130116E+00
         25   -1    0    0    0    0  0.00000000000E+00  0.00000000000E+00  0.99999998245E-14  0.12500000000E+03  0.12500000000E+03 0.  0.
        -11    1    1    0    0    0 -0.25184916234E+02  0.14509511476E+02 -0.57361680001E+01  0.29626163311E+02  0.51100000000E-03 0. -1.
         11    1    1    0    0    0 -0.27947177096E+02  0.16098341401E+02 -0.63630053649E+01  0.32873836725E+02  0.51100000000E-03 0.  1.
         22    1    1    0    0    0  0.53132093330E+02 -0.30607852876E+02  0.12099173365E+02  0.62499999963E+02  0.00000000000E+00 0. -1.
</event>
<event>
 4    1  0.1964735E-002  0.9118800E+02  0.7818608E-02  0.1130116E+00
         25   -1    0    0    0    0  0.00000000000E+00  0.00000000000E+00  0.99999998245E-14  0.12500000000E+03  0.12500000000E+03 0.  0.
        -11    1    1    0    0    0  0.70345185566E+01  0.10577774416E+02  0.11765269714E+02  0.17314598887E+02  0.51100000000E-03 0.  1.
         11    1    1    0    0    0  0.18637741844E+02  0.27797727165E+02  0.30359082252E+02  0.45185760279E+02  0.51100000000E-03 0. -1.
         22    1    1    0    0    0 -0.25672260400E+02 -0.38375501582E+02 -0.42124351966E+02  0.62499640833E+02  0.00000000000E+00 0. -1.
</event>
<event>
 4    1  0.1964735E-002  0.9118800E+02  0.7818608E-02  0.1130116E+00
         25   -1    0    0    0    0  0.00000000000E+00  0.00000000000E+00  0.99999998245E-14  0.12500000000E+03  0.12500000000E+03 0.  0.
        -11    1    1    0    0    0 -0.34359167733E+02  0.18818056775E+02  0.22726083006E+02  0.45289585084E+02  0.51100000000E-03 0.  1.
         11    1    1    0    0    0 -0.12958202009E+02  0.52892205492E+01  0.10117527428E+02  0.17270067019E+02  0.51100000000E-03 0. -1.
         22    1    1    0    0    0  0.47317369741E+02 -0.24107277324E+02 -0.32843610433E+02  0.62440347897E+02  0.00000000000E+00 0.  1.
</event>
<event>
 4    1  0.1964735E-002  0.9118800E+02  0.7818608E-02  0.1130116E+00
         25   -1    0    0    0    0  0.00000000000E+00  0.00000000000E+00  0.99999998245E-14  0.12500000000E+03  0.12500000000E+03 0.  0.
        -11    1    1    0    0    0  0.18057311714E+01 -0.36265630808E+01  0.30911781337E+01  0.50958814113E+01  0.51100000000E-03 0.  1.
         11    1    1    0    0    0  0.19797234809E+02 -0.41067372916E+02  0.34882478476E+02  0.57404241386E+02  0.51100000000E-03 0. -1.
         22    1    1    0    0    0 -0.21602965980E+02  0.44693935997E+02 -0.37973656610E+02  0.62499877202E+02  0.00000000000E+00 0. -1.
</event>
<event>
 4    1  0.1964735E-002  0.9118800E+02  0.7818608E-02  0.1130116E+00
         25   -1    0    0    0    0  0.00000000000E+00  0.00000000000E+00  0.99999998245E-14  0.12500000000E+03  0.12500000000E+03 0.  0.
        -11    1    1    0    0    0 -0.11743010536E+02 -0.46441657276E+00 -0.80263932232E+01  0.14231548322E+02  0.51100000000E-03 0. -1.
         11    1    1    0    0    0 -0.39846808975E+02 -0.17967769595E+01 -0.27181844259E+02  0.48268511998E+02  0.51100000000E-03 0.  1.
         22    1    1    0    0    0  0.51589819511E+02  0.22611935323E+01  0.35208237482E+02  0.62499939680E+02  0.00000000000E+00 0.  1.
</event>
<event>
 4    1  0.1964735E-002  0.9118800E+02  0.7818608E-02  0.1130116E+00
         25   -1    0    0    0    0  0.00000000000E+00  0.00000000000E+00  0.99999998245E-14  0.12500000000E+03  0.12500000000E+03 0.  0.
        -11    1    1    0    0    0  0.13356963396E+02 -0.15220283872E+02  0.10850875903E+02  0.22974051023E+02  0.51100000000E-03 0. -1.
         11    1    1    0    0    0 -0.23862290969E+02 -0.11282636857E+02  0.37522609844E+02  0.45876498063E+02  0.51100000000E-03 0.  1.
         22    1    1    0    0    0  0.10505327574E+02  0.26502920729E+02 -0.48373485747E+02  0.56149450914E+02  0.00000000000E+00 0.  1.
</event>
<event>
 4    1  0.1964735E-002  0.9118800E+02  0.7818608E-02  0.1130116E+00
         25   -1    0    0    0    0  0.00000000000E+00  0.00000000000E+00  0.99999998245E-14  0.12500000000E+03  0.12500000000E+03 0.  0.
        -11    1    1    0    0    0 -0.26109612326E+02 -0.48114717332E+02 -0.38923779317E+01  0.54880674977E+02  0.51100000000E-03 0. -1.
         11    1    1    0    0    0 -0.76438750238E+01 -0.34170929802E+01 -0.26457990392E+00  0.83770730331E+01  0.51100000000E-03 0.  1.
         22    1    1    0    0    0  0.33753487350E+02  0.51531810312E+02  0.41569578356E+01  0.61742251990E+02  0.00000000000E+00 0. -1.
</event>
<event>
 4    1  0.1964735E-002  0.9118800E+02  0.7818608E-02  0.1130116E+00
         25   -1    0    0    0    0  0.00000000000E+00  0.00000000000E+00  0.99999998245E-14  0.12500000000E+03  0.12500000000E+03 0.  0.
        -11    1    1    0    0    0  0.16367716439E+02  0.22782775654E+00 -0.10302008008E+01  0.16401687744E+02  0.51100000000E-03 0.  1.
         11    1    1    0    0    0  0.46020702490E+02  0.75524826473E+00 -0.25680300104E+01  0.46098484097E+02  0.51100000000E-03 0. -1.
         22    1    1    0    0    0 -0.62388418929E+02 -0.98307602127E+00  0.35982308112E+01  0.62499828159E+02  0.00000000000E+00 0. -1.
</event>
<event>
 4    1  0.1964735E-002  0.9118800E+02  0.7818608E-02  0.1130116E+00
         25   -1    0    0    0    0  0.00000000000E+00  0.00000000000E+00  0.99999998245E-14  0.12500000000E+03  0.12500000000E+03 0.  0.
        -11    1    1    0    0    0 -0.55311403655E+02 -0.29908012339E+01 -0.18808610992E+02  0.58498377021E+02  0.51100000000E-03 0.  1.
         11    1    1    0    0    0 -0.37429657083E+01 -0.35406269886E+00 -0.13757855815E+01  0.40034908412E+01  0.51100000000E-03 0. -1.
         22    1    1    0    0    0  0.59054369364E+02  0.33448639327E+01  0.20184396574E+02  0.62498132138E+02  0.00000000000E+00 0.  1.
</event>
<event>
 4    1  0.1964735E-002  0.9118800E+02  0.7818608E-02  0.1130116E+00
         25   -1    0    0    0    0  0.00000000000E+00  0.00000000000E+00  0.99999998245E-14  0.12500000000E+03  0.12500000000E+03 0.  0.
        -11    1    1    0    0    0 -0.20196633020E+01 -0.33469553877E+00  0.79850962918E+00  0.21974255041E+01  0.51100000000E-03 0. -1.
         11    1    1    0    0    0 -0.55427173694E+02 -0.91460509068E+01  0.21922105087E+02  0.60302574759E+02  0.51100000000E-03 0.  1.
         22    1    1    0    0    0  0.57446836996E+02  0.94807464455E+01 -0.22720614716E+02  0.62499999737E+02  0.00000000000E+00 0.  1.
</event>
<event>
 4    1  0.1964735E-002  0.9118800E+02  0.7818608E-02  0.1130116E+00
         25   -1    0    0    0    0  0.00000000000E+00  0.00000000000E+00  0.99999998245E-14  0.12500000000E+03  0.12500000000E+03 0.  0.
        -11    1    1    0    0    0 -0.85312553801E+01  0.54583398195E+02  0.12192845525E+02  0.56575570339E+02  0.51100000000E-03 0.  1.
         11    1    1    0    0    0 -0.10800002048E+01  0.58030066848E+01  0.66717846807E+00  0.59402368973E+01  0.51100000000E-03 0. -1.
         22    1    1    0    0    0  0.96112555849E+01 -0.60386404880E+02 -0.12860023993E+02  0.62484192764E+02  0.00000000000E+00 0.  1.
</event>
<event>
 4    1  0.1964735E-002  0.9118800E+02  0.7818608E-02  0.1130116E+00
         25   -1    0    0    0    0  0.00000000000E+00  0.00000000000E+00  0.99999998245E-14  0.12500000000E+03  0.12500000000E+03 0.  0.
        -11    1    1    0    0    0 -0.88388513688E+00 -0.54801683131E+02  0.17757169216E+02  0.57613564251E+02  0.51100000000E-03 0.  1.
         11    1    1    0    0    0 -0.42656914260E+01 -0.16289406869E+01  0.45896063985E+01  0.64741067536E+01  0.51100000000E-03 0. -1.
         22    1    1    0    0    0  0.51495765629E+01  0.56430623818E+02 -0.22346775615E+02  0.60912328995E+02  0.00000000000E+00 0.  1.
</event>
<event>
 4    1  0.1964735E-002  0.9118800E+02  0.7818608E-02  0.1130116E+00
         25   -1    0    0    0    0  0.00000000000E+00  0.00000000000E+00  0.99999998245E-14  0.12500000000E+03  0.12500000000E+03 0.  0.
        -11    1    1    0    0    0 -0.33289913808E+01 -0.17623651059E+01  0.26473370739E+01  0.46039665750E+01  0.51100000000E-03 0.  1.
         11    1    1    0    0    0 -0.24682886385E+02 -0.42366610014E+02  0.31207231255E+02  0.58121130471E+02  0.51100000000E-03 0. -1.
         22    1    1    0    0    0  0.28011877766E+02  0.44128975120E+02 -0.33854568329E+02  0.62274902954E+02  0.00000000000E+00 0. -1.
</event>
<event>
 4    1  0.1964735E-002  0.9118800E+02  0.7818608E-02  0.1130116E+00
         25   -1    0    0    0    0  0.00000000000E+00  0.00000000000E+00  0.99999998245E-14  0.12500000000E+03  0.12500000000E+03 0.  0.
        -11    1    1    0    0    0  0.43041959759E+01 -0.56800444370E+01 -0.67011606813E+01  0.97823597635E+01  0.51100000000E-03 0. -1.
         11    1    1    0    0    0  0.25753989883E+02 -0.27638499866E+02 -0.36786326743E+02  0.52729389388E+02  0.51100000000E-03 0.  1.
         22    1    1    0    0    0 -0.30058185859E+02  0.33318544303E+02  0.43487487424E+02  0.62488250848E+02  0.00000000000E+00 0.  1.
</event>
<event>
 4    1  0.1964735E-002  0.9118800E+02  0.7818608E-02  0.1130116E+00
         25   -1    0    0    0    0  0.00000000000E+00  0.00000000000E+00  0.99999998245E-14  0.12500000000E+03  0.12500000000E+03 0.  0.
        -11    1    1    0    0    0  0.61241572831E+00 -0.34577081073E+01  0.76355420185E+00  0.35935795052E+01  0.51100000000E-03 0. -1.
         11    1    1    0    0    0 -0.12335891989E+02 -0.56518407989E+02 -0.12485959535E+02  0.59181110657E+02  0.51100000000E-03 0.  1.
         22    1    1    0    0    0  0.11723476260E+02  0.59976116097E+02  0.11722405333E+02  0.62225309838E+02  0.00000000000E+00 0.  1.
</event>
<event>
 4    1  0.1964735E-002  0.9118800E+02  0.7818608E-02  0.1130116E+00
         25   -1    0    0    0    0  0.00000000000E+00  0.00000000000E+00  0.99999998245E-14  0.12500000000E+03  0.12500000000E+03 0.  0.
        -11    1    1    0    0    0  0.49988556198E+01 -0.35328015797E+01 -0.13567367563E+01  0.62697670926E+01  0.51100000000E-03 0.  1.
         11    1    1    0    0    0  0.44825898642E+02 -0.31691076681E+02 -0.12171835069E+02  0.56230232967E+02  0.51100000000E-03 0. -1.
         22    1    1    0    0    0 -0.49824754262E+02  0.35223878261E+02  0.13528571825E+02  0.62499999941E+02  0.00000000000E+00 0. -1.
</event>
<event>
 4    1  0.1964735E-002  0.9118800E+02  0.7818608E-02  0.1130116E+00
         25   -1    0    0    0    0  0.00000000000E+00  0.00000000000E+00  0.99999998245E-14  0.12500000000E+03  0.12500000000E+03 0.  0.
        -11    1    1    0    0    0  0.19125384983E+02 -0.87718654034E+01  0.11144286251E+02  0.23810104782E+02  0.51100000000E-03 0. -1.
         11    1    1    0    0    0  0.29893099664E+02 -0.18597213116E+02  0.16187072015E+02  0.38748871518E+02  0.51100000000E-03 0.  1.
         22    1    1    0    0    0 -0.49018484648E+02  0.27369078519E+02 -0.27331358266E+02  0.62441023701E+02  0.00000000000E+00 0. -1.
</event>
<event>
 4    1  0.1964735E-002  0.9118800E+02  0.7818608E-02  0.1130116E+00
         25   -1    0    0    0    0  0.00000000000E+00  0.00000000000E+00  0.99999998245E-14  0.12500000000E+03  0.12500000000E+03 0.  0.
        -11    1    1    0    0    0  0.64933883871E+01  0.42929324304E+02  0.13432098505E+02  0.45447906975E+02  0.51100000000E-03 0. -1.
         11    1    1    0    0    0  0.10568236926E+01  0.15911400096E+02  0.61340260258E+01  0.17085543740E+02  0.51100000000E-03 0.  1.
         22    1    1    0    0    0 -0.75502120798E+01 -0.58840724400E+02 -0.19566124530E+02  0.62466549285E+02  0.00000000000E+00 0. -1.
</event>
<event>
 4    1  0.1964735E-002  0.9118800E+02  0.7818608E-02  0.1130116E+00
         25   -1    0    0    0    0  0.00000000000E+00  0.00000000000E+00  0.99999998245E-14  0.12500000000E+03  0.12500000000E+03 0.  0.
        -11    1    1    0    0    0 -0.32200054815E+02 -0.22593522208E+02  0.17682737612E+02  0.43127601203E+02  0.51100000000E-03 0. -1.
         11    1    1    0    0    0 -0.14486149967E+02 -0.99982596596E+01  0.80927020909E+01  0.19372804765E+02  0.51100000000E-03 0.  1.
         22    1    1    0    0    0  0.46686204782E+02  0.32591781867E+02 -0.25775439703E+02  0.62499594031E+02  0.00000000000E+00 0. -1.
</event>
<event>
 4    1  0.1964735E-002  0.9118800E+02  0.7818608E-02  0.1130116E+00
         25   -1    0    0    0    0  0.00000000000E+00  0.00000000000E+00  0.99999998245E-14  0.12500000000E+03  0.12500000000E+03 0.  0.
        -11    1    1    0    0    0 -0.91383095452E+01 -0.86488325817E+01  0.14905544656E+02  0.19506057216E+02  0.51100000000E-03 0.  1.
         11    1    1    0    0    0 -0.30245048032E+02 -0.16300821083E+02  0.26303576113E+02  0.43270750109E+02  0.51100000000E-03 0. -1.
         22    1    1    0    0    0  0.39383357577E+02  0.24949653665E+02 -0.41209120769E+02  0.62223192674E+02  0.00000000000E+00 0. -1.
</event>
<event>
 4    1  0.1964735E-002  0.9118800E+02  0.7818608E-02  0.1130116E+00
         25   -1    0    0    0    0  0.00000000000E+00  0.00000000000E+00  0.99999998245E-14  0.12500000000E+03  0.12500000000E+03 0.  0.
        -11    1    1    0    0    0  0.57020981383E+01 -0.23546364216E+01  0.77527545472E+01  0.99077464232E+01  0.51100000000E-03 0. -1.
         11    1    1    0    0    0  0.30249232422E+02 -0.12507584428E+02  0.41164176776E+02  0.52592253995E+02  0.51100000000E-03 0.  1.
         22    1    1    0    0    0 -0.35951330560E+02  0.14862220850E+02 -0.48916931323E+02  0.62499999582E+02  0.00000000000E+00 0.  1.
</event>
<event>
 4    1  0.1964735E-002  0.9118800E+02  0.7818608E-02  0.1130116E+00
         25   -1    0    0    0    0  0.00000000000E+00  0.00000000000E+00  0.99999998245E-14  0.12500000000E+03  0.12500000000E+03 0.  0.
        -11    1    1    0    0    0 -0.31582863735E+02  0.33040304164E+02 -0.13842386484E+02  0.47757205161E+02  0.51100000000E-03 0.  1.
         11    1    1    0    0    0 -0.97521124696E+01  0.10196596414E+02 -0.42750123408E+01  0.14742795082E+02  0.51100000000E-03 0. -1.
         22    1    1    0    0    0  0.41334976205E+02 -0.43236900578E+02  0.18117398825E+02  0.62499999757E+02  0.00000000000E+00 0. -1.
</event>
<event>
 4    1  0.1964735E-002  0.9118800E+02  0.7818608E-02  0.1130116E+00
         25   -1    0    0    0    0  0.00000000000E+00  0.00000000000E+00  0.99999998245E-14  0.12500000000E+03  0.12500000000E+03 0.  0.
        -11    1    1    0    0    0  0.97973244984E+01 -0.13586652180E+02 -0.13507657674E+02  0.21518399125E+02  0.51100000000E-03 0. -1.
         11    1    1    0    0    0  0.18659872109E+02 -0.25874407206E+02 -0.25725781533E+02  0.40981600886E+02  0.51100000000E-03 0. -1.
         22    1    1    0    0    0 -0.28457196607E+02  0.39461059386E+02  0.39233439207E+02  0.62499999989E+02  0.00000000000E+00 0. -1.
</event>
<event>
 4    1  0.1964735E-002  0.9118800E+02  0.7818608E-02  0.1130116E+00
         25   -1    0    0    0    0  0.00000000000E+00  0.00000000000E+00  0.99999998245E-14  0.12500000000E+03  0.12500000000E+03 0.  0.
        -11    1    1    0    0    0  0.11805359362E+02  0.13694239401E+02 -0.50195596392E+02  0.53352568822E+02  0.51100000000E-03 0.  1.
         11    1    1    0    0    0  0.23289166465E+01  0.24856973262E+01 -0.84927158349E+01  0.91503424229E+01  0.51100000000E-03 0. -1.
         22    1    1    0    0    0 -0.14134276009E+02 -0.16179936727E+02  0.58688312227E+02  0.62497088755E+02  0.00000000000E+00 0.  1.
</event>
<event>
 4    1  0.1964735E-002  0.9118800E+02  0.7818608E-02  0.1130116E+00
         25   -1    0    0    0    0  0.00000000000E+00  0.00000000000E+00  0.99999998245E-14  0.12500000000E+03  0.12500000000E+03 0.  0.
        -11    1    1    0    0    0 -0.15842024606E+01 -0.12181920794E+02  0.15698978011E+02  0.19934061365E+02  0.51100000000E-03 0. -1.
         11    1    1    0    0    0 -0.32334305048E+01 -0.26104673952E+02  0.33465735998E+02  0.42566002409E+02  0.51100000000E-03 0.  1.
         22    1    1    0    0    0  0.48176329654E+01  0.38286594746E+02 -0.49164714009E+02  0.62499936225E+02  0.00000000000E+00 0. -1.
</event>
<event>
 4    1  0.1964735E-002  0.9118800E+02  0.7818608E-02  0.1130116E+00
         25   -1    0    0    0    0  0.00000000000E+00  0.00000000000E+00  0.99999998245E-14  0.12500000000E+03  0.12500000000E+03 0.  0.
        -11    1    1    0    0    0  0.15158016022E+01  0.83234707844E+00 -0.18348784094E+01  0.25213558247E+01  0.51100000000E-03 0. -1.
         11    1    1    0    0    0  0.36048869798E+02  0.19807561699E+02 -0.43652917992E+02  0.59978644230E+02  0.51100000000E-03 0. -1.
         22    1    1    0    0    0 -0.37564671400E+02 -0.20639908777E+02  0.45487796402E+02  0.62499999946E+02  0.00000000000E+00 0. -1.
</event>
<event>
 4    1  0.1964735E-002  0.9118800E+02  0.7818608E-02  0.1130116E+00
         25   -1    0    0    0    0  0.00000000000E+00  0.00000000000E+00  0.99999998245E-14  0.12500000000E+03  0.12500000000E+03 0.  0.
        -11    1    1    0    0    0 -0.17819800332E+02 -0.72331015372E+00  0.13883450507E+02  0.22601297744E+02  0.51100000000E-03 0.  1.
         11    1    1    0    0    0 -0.30962801305E+02 -0.34869120728E+01  0.24940208658E+02  0.39910745779E+02  0.51100000000E-03 0. -1.
         22    1    1    0    0    0  0.48782601637E+02  0.42102222265E+01 -0.38823659165E+02  0.62487956477E+02  0.00000000000E+00 0. -1.
</event>
<event>
 4    1  0.1964735E-002  0.9118800E+02  0.7818608E-02  0.1130116E+00
         25   -1    0    0    0    0  0.00000000000E+00  0.00000000000E+00  0.99999998245E-14  0.12500000000E+03  0.12500000000E+03 0.  0.
        -11    1    1    0    0    0  0.41970306348E+02  0.99070988180E+01  0.60471626763E+01  0.43545670263E+02  0.51100000000E-03 0. -1.
         11    1    1    0    0    0  0.18042690682E+02  0.54024872074E+01  0.22418835882E+01  0.18967118847E+02  0.51100000000E-03 0.  1.
         22    1    1    0    0    0 -0.60012997030E+02 -0.15309586025E+02 -0.82890462645E+01  0.62487210890E+02  0.00000000000E+00 0.  1.
</event>
<event>
 4    1  0.1964735E-002  0.9118800E+02  0.7818608E-02  0.1130116E+00
         25   -1    0    0    0    0  0.00000000000E+00  0.00000000000E+00  0.99999998245E-14  0.12500000000E+03  0.12500000000E+03 0.  0.
        -11    1    1    0    0    0  0.72951144005E+01 -0.12472255004E+02 -0.32275529837E+02  0.35362206740E+02  0.51100000000E-03 0.  1.
         11    1    1    0    0    0  0.55998041957E+01 -0.95714465701E+01 -0.24768718721E+02  0.27137793274E+02  0.51100000000E-03 0. -1.
         22    1    1    0    0    0 -0.12894918596E+02  0.22043701574E+02  0.57044248558E+02  0.62499999986E+02  0.00000000000E+00 0. -1.
</event>
<event>
 4    1  0.1964735E-002  0.9118800E+02  0.7818608E-02  0.1130116E+00
         25   -1    0    0    0    0  0.00000000000E+00  0.00000000000E+00  0.99999998245E-14  0.12500000000E+03  0.12500000000E+03 0.  0.
        -11    1    1    0    0    0 -0.14368156299E+01 -0.13254481810E+01  0.21312501424E+01  0.28919680955E+01  0.51100000000E-03 0.  1.
         11    1    1    0    0    0 -0.24551603509E+02 -0.44597440614E+02  0.31187634709E+02  0.59702441351E+02  0.51100000000E-03 0. -1.
         22    1    1    0    0    0  0.25988419139E+02  0.45922888795E+02 -0.33318884851E+02  0.62405590554E+02  0.00000000000E+00 0. -1.
</event>
<event>
 4    1  0.1964735E-002  0.9118800E+02  0.7818608E-02  0.1130116E+00
         25   -1    0    0    0    0  0.00000000000E+00  0.00000000000E+00  0.99999998245E-14  0.12500000000E+03  0.12500000000E+03 0.  0.
        -11    1    1    0    0    0  0.13711424487E+01 -0.21666039729E+01  0.52388761518E+01  0.58326690276E+01  0.51100000000E-03 0. -1.
         11    1    1    0    0    0  0.13322028858E+02 -0.21050587460E+02  0.50897767293E+02  0.56667330985E+02  0.51100000000E-03 0. -1.
         22    1    1    0    0    0 -0.14693171307E+02  0.23217191433E+02 -0.56136643445E+02  0.62499999987E+02  0.00000000000E+00 0. -1.
</event>
<event>
 4    1  0.1964735E-002  0.9118800E+02  0.7818608E-02  0.1130116E+00
         25   -1    0    0    0    0  0.00000000000E+00  0.00000000000E+00  0.99999998245E-14  0.12500000000E+03  0.12500000000E+03 0.  0.
        -11    1    1    0    0    0  0.31274574885E+02 -0.38303470651E+02  0.17541188773E+02  0.52468544881E+02  0.51100000000E-03 0.  1.
         11    1    1    0    0    0  0.59834401698E+01 -0.73180877167E+01  0.33577004572E+01  0.10031456361E+02  0.51100000000E-03 0. -1.
         22    1    1    0    0    0 -0.37258015055E+02  0.45621558367E+02 -0.20898889230E+02  0.62499998758E+02  0.00000000000E+00 0.  1.
</event>
<event>
 4    1  0.1964735E-002  0.9118800E+02  0.7818608E-02  0.1130116E+00
         25   -1    0    0    0    0  0.00000000000E+00  0.00000000000E+00  0.99999998245E-14  0.12500000000E+03  0.12500000000E+03 0.  0.
        -11    1    1    0    0    0 -0.16236689251E+02  0.16955622430E+01  0.16108178172E+02  0.22934219268E+02  0.51100000000E-03 0.  1.
         11    1    1    0    0    0 -0.27789767148E+02 -0.20554095998E+01  0.28169925224E+02  0.39623737256E+02  0.51100000000E-03 0. -1.
         22    1    1    0    0    0  0.44026456399E+02  0.35984735677E+00 -0.44278103396E+02  0.62442043476E+02  0.00000000000E+00 0. -1.
</event>
<event>
 4    1  0.1964735E-002  0.9118800E+02  0.7818608E-02  0.1130116E+00
         25   -1    0    0    0    0  0.00000000000E+00  0.00000000000E+00  0.99999998245E-14  0.12500000000E+03  0.12500000000E+03 0.  0.
        -11    1    1    0    0    0  0.49461854845E+02 -0.46368669302E+01 -0.15198177714E+02  0.51951518031E+02  0.51100000000E-03 0.  1.
         11    1    1    0    0    0  0.10056414470E+02 -0.97104629873E+00 -0.30327678323E+01  0.10548558380E+02  0.51100000000E-03 0. -1.
         22    1    1    0    0    0 -0.59518269315E+02  0.56079132290E+01  0.18230945547E+02  0.62499923589E+02  0.00000000000E+00 0.  1.
</event>
<event>
 4    1  0.1964735E-002  0.9118800E+02  0.7818608E-02  0.1130116E+00
         25   -1    0    0    0    0  0.00000000000E+00  0.00000000000E+00  0.99999998245E-14  0.12500000000E+03  0.12500000000E+03 0.  0.
        -11    1    1    0    0    0 -0.35179372199E+02 -0.13078395848E+02  0.20679078882E+02  0.42851569049E+02  0.51100000000E-03 0. -1.
         11    1    1    0    0    0 -0.14053933688E+02 -0.91721508829E+01  0.10473950498E+02  0.19782442802E+02  0.51100000000E-03 0.  1.
         22    1    1    0    0    0  0.49233305887E+02  0.22250546731E+02 -0.31153029379E+02  0.62365988150E+02  0.00000000000E+00 0.  1.
</event>
<event>
 4    1  0.1964735E-002  0.9118800E+02  0.7818608E-02  0.1130116E+00
         25   -1    0    0    0    0  0.00000000000E+00  0.00000000000E+00  0.99999998245E-14  0.12500000000E+03  0.12500000000E+03 0.  0.
        -11    1    1    0    0    0 -0.23419815882E+02  0.12165610623E+02  0.98750399673E+00  0.26409563082E+02  0.51100000000E-03 0.  1.
         11    1    1    0    0    0 -0.32001336964E+02  0.16630414099E+02  0.13650846750E+01  0.36090437750E+02  0.51100000000E-03 0. -1.
         22    1    1    0    0    0  0.55421152846E+02 -0.28796024722E+02 -0.23525886717E+01  0.62499999168E+02  0.00000000000E+00 0. -1.
</event>
<event>
 4    1  0.1964735E-002  0.9118800E+02  0.7818608E-02  0.1130116E+00
         25   -1    0    0    0    0  0.00000000000E+00  0.00000000000E+00  0.99999998245E-14  0.12500000000E+03  0.12500000000E+03 0.  0.
        -11    1    1    0    0    0 -0.11892184963E+02 -0.51517399712E+02  0.30684062681E+02  0.61130828876E+02  0.51100000000E-03 0. -1.
         11    1    1    0    0    0 -0.11510220514E+01 -0.12179145378E+01 -0.66916441243E+00  0.18044247993E+01  0.51100000000E-03 0.  1.
         22    1    1    0    0    0  0.13043207015E+02  0.52735314249E+02 -0.30014898269E+02  0.62064746324E+02  0.00000000000E+00 0. -1.
</event>
<event>
 4    1  0.1964735E-002  0.9118800E+02  0.7818608E-02  0.1130116E+00
         25   -1    0    0    0    0  0.00000000000E+00  0.00000000000E+00  0.99999998245E-14  0.12500000000E+03  0.12500000000E+03 0.  0.
        -11    1    1    0    0    0  0.39691301359E+02  0.32818098705E+01 -0.35840602372E+02  0.53579086016E+02  0.51100000000E-03 0.  1.
         11    1    1    0    0    0  0.66091030165E+01  0.53609833130E+00 -0.59678394710E+01  0.89209165625E+01  0.51100000000E-03 0. -1.
         22    1    1    0    0    0 -0.46300404375E+02 -0.38179082018E+01  0.41808441843E+02  0.62499997422E+02  0.00000000000E+00 0.  1.
</event>
<event>
 4    1  0.1964735E-002  0.9118800E+02  0.7818608E-02  0.1130116E+00
         25   -1    0    0    0    0  0.00000000000E+00  0.00000000000E+00  0.99999998245E-14  0.12500000000E+03  0.12500000000E+03 0.  0.
        -11    1    1    0    0    0  0.46690059869E+00  0.23506482036E+01 -0.65129746979E+01  0.69399123066E+01  0.51100000000E-03 0. -1.
         11    1    1    0    0    0  0.37500860456E+01  0.19001929715E+02 -0.52074840222E+02  0.55560106755E+02  0.51100000000E-03 0.  1.
         22    1    1    0    0    0 -0.42169866442E+01 -0.21352577919E+02  0.58587814920E+02  0.62499980938E+02  0.00000000000E+00 0.  1.
</event>
<event>
 4    1  0.1964735E-002  0.9118800E+02  0.7818608E-02  0.1130116E+00
         25   -1    0    0    0    0  0.00000000000E+00  0.00000000000E+00  0.99999998245E-14  0.12500000000E+03  0.12500000000E+03 0.  0.
        -11    1    1    0    0    0  0.95670335820E+01 -0.17152538946E+02 -0.17934675121E+02  0.26596809881E+02  0.51100000000E-03 0.  1.
         11    1    1    0    0    0  0.10652169883E+02 -0.24087071267E+02 -0.24426784426E+02  0.35921073523E+02  0.51100000000E-03 0. -1.
         22    1    1    0    0    0 -0.20219203465E+02  0.41239610213E+02  0.42361459547E+02  0.62482116596E+02  0.00000000000E+00 0. -1.
</event>
<event>
 4    1  0.1964735E-002  0.9118800E+02  0.7818608E-02  0.1130116E+00
         25   -1    0    0    0    0  0.00000000000E+00  0.00000000000E+00  0.99999998245E-14  0.12500000000E+03  0.12500000000E+03 0.  0.
        -11    1    1    0    0    0  0.19954050153E+02  0.46743424770E+02 -0.10444520925E+02  0.51886413389E+02  0.51100000000E-03 0. -1.
         11    1    1    0    0    0  0.40868618938E+01  0.95535856408E+01 -0.21621966084E+01  0.10613601329E+02  0.51100000000E-03 0.  1.
         22    1    1    0    0    0 -0.24040912047E+02 -0.56297010411E+02  0.12606717533E+02  0.62499985282E+02  0.00000000000E+00 0. -1.
</event>
<event>
 4    1  0.1964735E-002  0.9118800E+02  0.7818608E-02  0.1130116E+00
         25   -1    0    0    0    0  0.00000000000E+00  0.00000000000E+00  0.99999998245E-14  0.12500000000E+03  0.12500000000E+03 0.  0.
        -11    1    1    0    0    0 -0.24418706282E+02  0.71915016719E+01 -0.47979442015E+02  0.54314066034E+02  0.51100000000E-03 0. -1.
         11    1    1    0    0    0  0.55217343001E+01 -0.10209056461E+02 -0.62476533599E+01  0.13181333630E+02  0.51100000000E-03 0.  1.
         22    1    1    0    0    0  0.18896971982E+02  0.30175547891E+01  0.54227095375E+02  0.57504600336E+02  0.00000000000E+00 0. -1.
</event>
<event>
 4    1  0.1964735E-002  0.9118800E+02  0.7818608E-02  0.1130116E+00
         25   -1    0    0    0    0  0.00000000000E+00  0.00000000000E+00  0.99999998245E-14  0.12500000000E+03  0.12500000000E+03 0.  0.
        -11    1    1    0    0    0 -0.53671467725E+01  0.42202429871E+01 -0.16512109204E+02  0.17868029158E+02  0.51100000000E-03 0. -1.
         11    1    1    0    0    0 -0.13407612999E+02  0.10457922872E+02 -0.41265986577E+02  0.44631982766E+02  0.51100000000E-03 0.  1.
         22    1    1    0    0    0  0.18774759771E+02 -0.14678165860E+02  0.57778095781E+02  0.62499988077E+02  0.00000000000E+00 0.  1.
</event>
<event>
 4    1  0.1964735E-002  0.9118800E+02  0.7818608E-02  0.1130116E+00
         25   -1    0    0    0    0  0.00000000000E+00  0.00000000000E+00  0.99999998245E-14  0.12500000000E+03  0.12500000000E+03 0.  0.
        -11    1    1    0    0    0 -0.39073964276E+02  0.12905249219E+02 -0.11864847307E+02  0.42826332361E+02  0.51100000000E-03 0.  1.
         11    1    1    0    0    0 -0.18224154125E+02  0.61735751950E+01 -0.41743123736E+01  0.19689025073E+02  0.51100000000E-03 0. -1.
         22    1    1    0    0    0  0.57298118401E+02 -0.19078824414E+02  0.16039159681E+02  0.62484642566E+02  0.00000000000E+00 0.  1.
</event>
<event>
 4    1  0.1964735E-002  0.9118800E+02  0.7818608E-02  0.1130116E+00
         25   -1    0    0    0    0  0.00000000000E+00  0.00000000000E+00  0.99999998245E-14  0.12500000000E+03  0.12500000000E+03 0.  0.
        -11    1    1    0    0    0 -0.15714905701E+02 -0.20608403832E+02  0.20446609364E+02  0.33011034586E+02  0.51100000000E-03 0.  1.
         11    1    1    0    0    0 -0.15297857534E+02 -0.16832262396E+02  0.18798968571E+02  0.29508485594E+02  0.51100000000E-03 0. -1.
         22    1    1    0    0    0  0.31012763235E+02  0.37440666228E+02 -0.39245577934E+02  0.62480479820E+02  0.00000000000E+00 0.  1.
</event>
<event>
 4    1  0.1964735E-002  0.9118800E+02  0.7818608E-02  0.1130116E+00
         25   -1    0    0    0    0  0.00000000000E+00  0.00000000000E+00  0.99999998245E-14  0.12500000000E+03  0.12500000000E+03 0.  0.
        -11    1    1    0    0    0 -0.11774812231E+02  0.36906835828E+02 -0.21406928231E+02  0.44260787504E+02  0.51100000000E-03 0. -1.
         11    1    1    0    0    0 -0.48728498366E+01  0.15191444522E+02 -0.88399433095E+01  0.18239222850E+02  0.51100000000E-03 0.  1.
         22    1    1    0    0    0  0.16647662068E+02 -0.52098280350E+02  0.30246871540E+02  0.62499989646E+02  0.00000000000E+00 0. -1.
</event>
<event>
 4    1  0.1964735E-002  0.9118800E+02  0.7818608E-02  0.1130116E+00
         25   -1    0    0    0    0  0.00000000000E+00  0.00000000000E+00  0.99999998245E-14  0.12500000000E+03  0.12500000000E+03 0.  0.
        -11    1    1    0    0    0 -0.63419736540E+01 -0.14206031829E+01 -0.22130291768E+01  0.68655838520E+01  0.51100000000E-03 0. -1.
         11    1    1    0    0    0 -0.50746645648E+02 -0.10836417747E+02 -0.20070803825E+02  0.55637102373E+02  0.51100000000E-03 0.  1.
         22    1    1    0    0    0  0.57088619302E+02  0.12257020930E+02  0.22283833001E+02  0.62497313775E+02  0.00000000000E+00 0.  1.
</event>
<event>
 4    1  0.1964735E-002  0.9118800E+02  0.7818608E-02  0.1130116E+00
         25   -1    0    0    0    0  0.00000000000E+00  0.00000000000E+00  0.99999998245E-14  0.12500000000E+03  0.12500000000E+03 0.  0.
        -11    1    1    0    0    0  0.29763882262E+01 -0.64353834031E+01  0.16806841244E+02  0.18241243359E+02  0.51100000000E-03 0. -1.
         11    1    1    0    0    0  0.72270485030E+01 -0.15618249087E+02  0.40775944043E+02  0.44258756733E+02  0.51100000000E-03 0.  1.
         22    1    1    0    0    0 -0.10203436729E+02  0.22053632491E+02 -0.57582785287E+02  0.62499999909E+02  0.00000000000E+00 0.  1.
</event>
<event>
 4    1  0.1964735E-002  0.9118800E+02  0.7818608E-02  0.1130116E+00
         25   -1    0    0    0    0  0.00000000000E+00  0.00000000000E+00  0.99999998245E-14  0.12500000000E+03  0.12500000000E+03 0.  0.
        -11    1    1    0    0    0 -0.17997359470E+01 -0.91202005865E+00 -0.11328187052E+02  0.11506461324E+02  0.51100000000E-03 0.  1.
         11    1    1    0    0    0 -0.97209310515E+01 -0.33849086400E+01 -0.49947101608E+02  0.50996735840E+02  0.51100000000E-03 0. -1.
         22    1    1    0    0    0  0.11520666998E+02  0.42969286987E+01  0.61275288660E+02  0.62496802836E+02  0.00000000000E+00 0. -1.
</event>
<event>
 4    1  0.1964735E-002  0.9118800E+02  0.7818608E-02  0.1130116E+00
         25   -1    0    0    0    0  0.00000000000E+00  0.00000000000E+00  0.99999998245E-14  0.12500000000E+03  0.12500000000E+03 0.  0.
        -11    1    1    0    0    0 -0.26680081564E+02 -0.33477245714E+02  0.51735075766E+01  0.43119808833E+02  0.51100000000E-03 0.  1.
         11    1    1    0    0    0 -0.12687743804E+02 -0.14748898227E+02 -0.16909236229E+01  0.19528647283E+02  0.51100000000E-03 0. -1.
         22    1    1    0    0    0  0.39367825368E+02  0.48226143941E+02 -0.34825839537E+01  0.62351543884E+02  0.00000000000E+00 0.  1.
</event>
<event>
 4    1  0.1964735E-002  0.9118800E+02  0.7818608E-02  0.1130116E+00
         25   -1    0    0    0    0  0.00000000000E+00  0.00000000000E+00  0.99999998245E-14  0.12500000000E+03  0.12500000000E+03 0.  0.
        -11    1    1    0    0    0 -0.42533597571E+02  0.35910534454E+02  0.11608167417E+00  0.55665850234E+02  0.51100000000E-03 0.  1.
         11    1    1    0    0    0 -0.52221657771E+01  0.44084471184E+01  0.13485305234E-01  0.68341498018E+01  0.51100000000E-03 0.  1.
         22    1    1    0    0    0  0.47755763348E+02 -0.40318981572E+02 -0.12956697941E+00  0.62499999964E+02  0.00000000000E+00 0.  1.
</event>
<event>
 4    1  0.1964735E-002  0.9118800E+02  0.7818608E-02  0.1130116E+00
         25   -1    0    0    0    0  0.00000000000E+00  0.00000000000E+00  0.99999998245E-14  0.12500000000E+03  0.12500000000E+03 0.  0.
        -11    1    1    0    0    0  0.17621480375E+01 -0.27458632156E+01 -0.63451672662E+01  0.71348495710E+01  0.51100000000E-03 0. -1.
         11    1    1    0    0    0  0.15201663944E+02 -0.19802902788E+02 -0.49419820506E+02  0.55367537462E+02  0.51100000000E-03 0.  1.
         22    1    1    0    0    0 -0.16963811982E+02  0.22548766004E+02  0.55764987773E+02  0.62497612967E+02  0.00000000000E+00 0.  1.
</event>
<event>
 4    1  0.1964735E-002  0.9118800E+02  0.7818608E-02  0.1130116E+00
         25   -1    0    0    0    0  0.00000000000E+00  0.00000000000E+00  0.99999998245E-14  0.12500000000E+03  0.12500000000E+03 0.  0.
        -11    1    1    0    0    0  0.31350065429E+02  0.39890500987E+01 -0.31072516420E+01  0.31755222187E+02  0.51100000000E-03 0. -1.
         11    1    1    0    0    0  0.30360918935E+02  0.38486956046E+01 -0.29401957698E+01  0.30744798061E+02  0.51100000000E-03 0.  1.
         22    1    1    0    0    0 -0.61710984363E+02 -0.78377457033E+01  0.60474474118E+01  0.62499979752E+02  0.00000000000E+00 0.  1.
</event>
<event>
 4    1  0.1964735E-002  0.9118800E+02  0.7818608E-02  0.1130116E+00
         25   -1    0    0    0    0  0.00000000000E+00  0.00000000000E+00  0.99999998245E-14  0.12500000000E+03  0.12500000000E+03 0.  0.
        -11    1    1    0    0    0 -0.25498851858E+02  0.10849957967E+02 -0.42220629369E+02  0.50502421512E+02  0.51100000000E-03 0.  1.
         11    1    1    0    0    0  0.85138507463E+00  0.27529814813E+01 -0.12570849040E+02  0.12896899217E+02  0.51100000000E-03 0. -1.
         22    1    1    0    0    0  0.24647466783E+02 -0.13602939448E+02  0.54791478409E+02  0.61600679271E+02  0.00000000000E+00 0.  1.
</event>
<event>
 4    1  0.1964735E-002  0.9118800E+02  0.7818608E-02  0.1130116E+00
         25   -1    0    0    0    0  0.00000000000E+00  0.00000000000E+00  0.99999998245E-14  0.12500000000E+03  0.12500000000E+03 0.  0.
        -11    1    1    0    0    0 -0.24313956727E+02  0.17706368527E+02  0.35638980235E+01  0.30288369839E+02  0.51100000000E-03 0.  1.
         11    1    1    0    0    0 -0.25854129118E+02  0.18843238989E+02  0.37531112918E+01  0.32211635983E+02  0.51100000000E-03 0. -1.
         22    1    1    0    0    0  0.50168085845E+02 -0.36549607517E+02 -0.73170093153E+01  0.62499994178E+02  0.00000000000E+00 0. -1.
</event>
<event>
 4    1  0.1964735E-002  0.9118800E+02  0.7818608E-02  0.1130116E+00
         25   -1    0    0    0    0  0.00000000000E+00  0.00000000000E+00  0.99999998245E-14  0.12500000000E+03  0.12500000000E+03 0.  0.
        -11    1    1    0    0    0 -0.52299933821E+02  0.15890636602E+02 -0.28609195237E+02  0.61695068374E+02  0.51100000000E-03 0. -1.
         11    1    1    0    0    0  0.20428256870E+00 -0.24222195317E+01  0.15377509453E+00  0.24356777021E+01  0.51100000000E-03 0.  1.
         22    1    1    0    0    0  0.52095651252E+02 -0.13468417070E+02  0.28455420143E+02  0.60869253924E+02  0.00000000000E+00 0. -1.
</event>
<event>
 4    1  0.1964735E-002  0.9118800E+02  0.7818608E-02  0.1130116E+00
         25   -1    0    0    0    0  0.00000000000E+00  0.00000000000E+00  0.99999998245E-14  0.12500000000E+03  0.12500000000E+03 0.  0.
        -11    1    1    0    0    0 -0.40341077889E+01  0.22171993586E+02 -0.34706528232E+01  0.22801683195E+02  0.51100000000E-03 0.  1.
         11    1    1    0    0    0 -0.88286912069E+01  0.37480005094E+02 -0.98340076372E+01  0.39741719599E+02  0.51100000000E-03 0. -1.
         22    1    1    0    0    0  0.12862798996E+02 -0.59651998680E+02  0.13304660460E+02  0.62456597206E+02  0.00000000000E+00 0. -1.
</event>
<event>
 4    1  0.1964735E-002  0.9118800E+02  0.7818608E-02  0.1130116E+00
         25   -1    0    0    0    0  0.00000000000E+00  0.00000000000E+00  0.99999998245E-14  0.12500000000E+03  0.12500000000E+03 0.  0.
        -11    1    1    0    0    0  0.43297485749E+02  0.22190034666E+02  0.22441459828E+02  0.53578811392E+02  0.51100000000E-03 0. -1.
         11    1    1    0    0    0  0.71781552066E+01  0.36545783489E+01  0.38354984422E+01  0.89214855064E+01  0.51100000000E-03 0.  1.
         22    1    1    0    0    0 -0.50475640956E+02 -0.25844613015E+02 -0.26276958271E+02  0.62499703101E+02  0.00000000000E+00 0. -1.
</event>
<event>
 4    1  0.1964735E-002  0.9118800E+02  0.7818608E-02  0.1130116E+00
         25   -1    0    0    0    0  0.00000000000E+00  0.00000000000E+00  0.99999998245E-14  0.12500000000E+03  0.12500000000E+03 0.  0.
        -11    1    1    0    0    0 -0.48633778300E+01 -0.13102163819E+02  0.75750614589E+01  0.15896562428E+02  0.51100000000E-03 0.  1.
         11    1    1    0    0    0 -0.14257839260E+02 -0.38409277699E+02  0.22210848743E+02  0.46603437597E+02  0.51100000000E-03 0. -1.
         22    1    1    0    0    0  0.19121217090E+02  0.51511441518E+02 -0.29785910202E+02  0.62499999975E+02  0.00000000000E+00 0. -1.
</event>
<event>
 4    1  0.1964735E-002  0.9118800E+02  0.7818608E-02  0.1130116E+00
         25   -1    0    0    0    0  0.00000000000E+00  0.00000000000E+00  0.99999998245E-14  0.12500000000E+03  0.12500000000E+03 0.  0.
        -11    1    1    0    0    0 -0.23367593765E+02 -0.32898078810E+02 -0.12022875097E+01  0.40370453592E+02  0.51100000000E-03 0. -1.
         11    1    1    0    0    0 -0.46059377335E+01 -0.10101372988E+02 -0.24760684834E+02  0.27135657581E+02  0.51100000000E-03 0.  1.
         22    1    1    0    0    0  0.27973531498E+02  0.42999451798E+02  0.25962972344E+02  0.57493888826E+02  0.00000000000E+00 0.  1.
</event>
<event>
 4    1  0.1964735E-002  0.9118800E+02  0.7818608E-02  0.1130116E+00
         25   -1    0    0    0    0  0.00000000000E+00  0.00000000000E+00  0.99999998245E-14  0.12500000000E+03  0.12500000000E+03 0.  0.
        -11    1    1    0    0    0 -0.42138144590E+01  0.32227432159E+01  0.10968752728E+01  0.54171433206E+01  0.51100000000E-03 0. -1.
         11    1    1    0    0    0 -0.44308519156E+02  0.34069523890E+02  0.11596386219E+02  0.57082865218E+02  0.51100000000E-03 0.  1.
         22    1    1    0    0    0  0.48522333615E+02 -0.37292267106E+02 -0.12693261492E+02  0.62499991461E+02  0.00000000000E+00 0.  1.
</event>
<event>
 4    1  0.1964735E-002  0.9118800E+02  0.7818608E-02  0.1130116E+00
         25   -1    0    0    0    0  0.00000000000E+00  0.00000000000E+00  0.99999998245E-14  0.12500000000E+03  0.12500000000E+03 0.  0.
        -11    1    1    0    0    0 -0.45034312796E+02 -0.25479522804E+02  0.34775897525E+02  0.62343070667E+02  0.51100000000E-03 0. -1.
         11    1    1    0    0    0 -0.11355050357E+00 -0.64040300005E-01  0.87360441633E-01  0.15692987214E+00  0.51100000000E-03 0.  1.
         22    1    1    0    0    0  0.45147863299E+02  0.25543563104E+02 -0.34863257966E+02  0.62499999461E+02  0.00000000000E+00 0. -1.
</event>
<event>
 4    1  0.1964735E-002  0.9118800E+02  0.7818608E-02  0.1130116E+00
         25   -1    0    0    0    0  0.00000000000E+00  0.00000000000E+00  0.99999998245E-14  0.12500000000E+03  0.12500000000E+03 0.  0.
        -11    1    1    0    0    0 -0.67662825993E+01  0.21540764726E+02  0.47257032202E+02  0.52373793237E+02  0.51100000000E-03 0. -1.
         11    1    1    0    0    0 -0.13096696495E+01  0.41533115090E+01  0.91419308104E+01  0.10126210065E+02  0.51100000000E-03 0.  1.
         22    1    1    0    0    0  0.80759522488E+01 -0.25694076235E+02 -0.56398963013E+02  0.62499996698E+02  0.00000000000E+00 0. -1.
</event>
<event>
 4    1  0.1964735E-002  0.9118800E+02  0.7818608E-02  0.1130116E+00
         25   -1    0    0    0    0  0.00000000000E+00  0.00000000000E+00  0.99999998245E-14  0.12500000000E+03  0.12500000000E+03 0.  0.
        -11    1    1    0    0    0  0.31596171033E+01 -0.41045817358E+02  0.68731121502E+01  0.41737057560E+02  0.51100000000E-03 0. -1.
         11    1    1    0    0    0  0.84741850264E-01 -0.20448543230E+02  0.37034514536E+01  0.20781377585E+02  0.51100000000E-03 0.  1.
         22    1    1    0    0    0 -0.32443589535E+01  0.61494360588E+02 -0.10576563604E+02  0.62481564856E+02  0.00000000000E+00 0.  1.
</event>
<event>
 4    1  0.1964735E-002  0.9118800E+02  0.7818608E-02  0.1130116E+00
         25   -1    0    0    0    0  0.00000000000E+00  0.00000000000E+00  0.99999998245E-14  0.12500000000E+03  0.12500000000E+03 0.  0.
        -11    1    1    0    0    0  0.99308052227E+01  0.53758713218E+01 -0.17119596153E+01  0.11421545028E+02  0.51100000000E-03 0. -1.
         11    1    1    0    0    0  0.44406708025E+02  0.24049202162E+02 -0.76608570198E+01  0.51078455075E+02  0.51100000000E-03 0.  1.
         22    1    1    0    0    0 -0.54337513248E+02 -0.29425073484E+02  0.93728166351E+01  0.62499999897E+02  0.00000000000E+00 0.  1.
</event>
<event>
 4    1  0.1964735E-002  0.9118800E+02  0.7818608E-02  0.1130116E+00
         25   -1    0    0    0    0  0.00000000000E+00  0.00000000000E+00  0.99999998245E-14  0.12500000000E+03  0.12500000000E+03 0.  0.
        -11    1    1    0    0    0  0.15657875108E+01 -0.16582307264E+02  0.48007504747E+02  0.50814811985E+02  0.51100000000E-03 0. -1.
         11    1    1    0    0    0  0.22753622145E+01 -0.42956725764E+01  0.10702731326E+02  0.11754936588E+02  0.51100000000E-03 0.  1.
         22    1    1    0    0    0 -0.38411497253E+01  0.20877979841E+02 -0.58710236073E+02  0.62430251427E+02  0.00000000000E+00 0. -1.
</event>
<event>
 4    1  0.1964735E-002  0.9118800E+02  0.7818608E-02  0.1130116E+00
         25   -1    0    0    0    0  0.00000000000E+00  0.00000000000E+00  0.99999998245E-14  0.12500000000E+03  0.12500000000E+03 0.  0.
        -11    1    1    0    0    0 -0.38977542068E+01  0.15707410078E+02  0.81429828498E+00  0.16204267992E+02  0.51100000000E-03 0. -1.
         11    1    1    0    0    0 -0.12904924197E+02  0.44461046109E+02  0.83126121395E+00  0.46303484589E+02  0.51100000000E-03 0.  1.
         22    1    1    0    0    0  0.16802678404E+02 -0.60168456186E+02 -0.16455594989E+01  0.62492247419E+02  0.00000000000E+00 0.  1.
</event>
<event>
 4    1  0.1964735E-002  0.9118800E+02  0.7818608E-02  0.1130116E+00
         25   -1    0    0    0    0  0.00000000000E+00  0.00000000000E+00  0.99999998245E-14  0.12500000000E+03  0.12500000000E+03 0.  0.
        -11    1    1    0    0    0  0.12210810092E+02 -0.24411947126E+02  0.41375771964E+02  0.49568150575E+02  0.51100000000E-03 0.  1.
         11    1    1    0    0    0  0.31857668353E+01 -0.63718407919E+01  0.10792741491E+02  0.12931849619E+02  0.51100000000E-03 0. -1.
         22    1    1    0    0    0 -0.15396576928E+02  0.30783787918E+02 -0.52168513455E+02  0.62499999806E+02  0.00000000000E+00 0.  1.
</event>
<event>
 4    1  0.1964735E-002  0.9118800E+02  0.7818608E-02  0.1130116E+00
         25   -1    0    0    0    0  0.00000000000E+00  0.00000000000E+00  0.99999998245E-14  0.12500000000E+03  0.12500000000E+03 0.  0.
        -11    1    1    0    0    0 -0.36816885026E+01 -0.75981064224E+01  0.49159992549E+01  0.97700102545E+01  0.51100000000E-03 0.  1.
         11    1    1    0    0    0 -0.21673239551E+02 -0.41215127486E+02  0.24749576579E+02  0.52734785364E+02  0.51100000000E-03 0. -1.
         22    1    1    0    0    0  0.25354928053E+02  0.48813233908E+02 -0.29665575834E+02  0.62495204382E+02  0.00000000000E+00 0. -1.
</event>
<event>
 4    1  0.1964735E-002  0.9118800E+02  0.7818608E-02  0.1130116E+00
         25   -1    0    0    0    0  0.00000000000E+00  0.00000000000E+00  0.99999998245E-14  0.12500000000E+03  0.12500000000E+03 0.  0.
        -11    1    1    0    0    0 -0.33950158582E+02 -0.44586183733E+02  0.66237545854E+01  0.56430622650E+02  0.51100000000E-03 0. -1.
         11    1    1    0    0    0 -0.37335417177E+01 -0.47522033304E+01  0.57213515836E+00  0.60704290747E+01  0.51100000000E-03 0.  1.
         22    1    1    0    0    0  0.37683700299E+02  0.49338387064E+02 -0.71958897437E+01  0.62498948275E+02  0.00000000000E+00 0. -1.
</event>
<event>
 4    1  0.1964735E-002  0.9118800E+02  0.7818608E-02  0.1130116E+00
         25   -1    0    0    0    0  0.00000000000E+00  0.00000000000E+00  0.99999998245E-14  0.12500000000E+03  0.12500000000E+03 0.  0.
        -11    1    1    0    0    0  0.54754368377E+02 -0.29616349557E+01  0.19377579748E+02  0.58157568167E+02  0.51100000000E-03 0. -1.
         11    1    1    0    0    0 -0.13472552988E+02  0.15054070225E+02 -0.11051523708E+02  0.23027611489E+02  0.51100000000E-03 0.  1.
         22    1    1    0    0    0 -0.41281815389E+02 -0.12092435270E+02 -0.83260560403E+01  0.43814820344E+02  0.00000000000E+00 0. -1.
</event>
<event>
 4    1  0.1964735E-002  0.9118800E+02  0.7818608E-02  0.1130116E+00
         25   -1    0    0    0    0  0.00000000000E+00  0.00000000000E+00  0.99999998245E-14  0.12500000000E+03  0.12500000000E+03 0.  0.
        -11    1    1    0    0    0  0.13807191031E+02  0.55339076789E+01 -0.21853644946E+02  0.26435666363E+02  0.51100000000E-03 0.  1.
         11    1    1    0    0    0  0.18838633993E+02  0.76147049536E+01 -0.29795289353E+02  0.36064347078E+02  0.51100000000E-03 0. -1.
         22    1    1    0    0    0 -0.32645825024E+02 -0.13148612633E+02  0.51648934299E+02  0.62499986559E+02  0.00000000000E+00 0.  1.
</event>
<event>
 4    1  0.1964735E-002  0.9118800E+02  0.7818608E-02  0.1130116E+00
         25   -1    0    0    0    0  0.00000000000E+00  0.00000000000E+00  0.99999998245E-14  0.12500000000E+03  0.12500000000E+03 0.  0.
        -11    1    1    0    0    0 -0.25937799096E+02 -0.47492793733E+02  0.33831186201E+01  0.54219741519E+02  0.51100000000E-03 0. -1.
         11    1    1    0    0    0 -0.48757504760E+01 -0.67401628719E+01 -0.12275959546E+00  0.83197240593E+01  0.51100000000E-03 0.  1.
         22    1    1    0    0    0  0.30813549572E+02  0.54232956605E+02 -0.32603590246E+01  0.62460534422E+02  0.00000000000E+00 0. -1.
</event>
<event>
 4    1  0.1964735E-002  0.9118800E+02  0.7818608E-02  0.1130116E+00
         25   -1    0    0    0    0  0.00000000000E+00  0.00000000000E+00  0.99999998245E-14  0.12500000000E+03  0.12500000000E+03 0.  0.
        -11    1    1    0    0    0 -0.30214353356E+02 -0.16252434446E+02  0.16050335826E+01  0.34345667954E+02  0.51100000000E-03 0.  1.
         11    1    1    0    0    0 -0.24767612769E+02 -0.13323418919E+02  0.13108339435E+01  0.28154332168E+02  0.51100000000E-03 0. -1.
         22    1    1    0    0    0  0.54981966125E+02  0.29575853364E+02 -0.29158675262E+01  0.62499999877E+02  0.00000000000E+00 0.  1.
</event>
<event>
 4    1  0.1964735E-002  0.9118800E+02  0.7818608E-02  0.1130116E+00
         25   -1    0    0    0    0  0.00000000000E+00  0.00000000000E+00  0.99999998245E-14  0.12500000000E+03  0.12500000000E+03 0.  0.
        -11    1    1    0    0    0 -0.21596730727E+01 -0.72929570590E+01  0.33305122342E+01  0.83032356614E+01  0.51100000000E-03 0.  1.
         11    1    1    0    0    0 -0.11813780658E+02 -0.48548947432E+02  0.21003930886E+02  0.54200837845E+02  0.51100000000E-03 0. -1.
         22    1    1    0    0    0  0.13973453731E+02  0.55841904491E+02 -0.24334443120E+02  0.62495926494E+02  0.00000000000E+00 0. -1.
</event>
<event>
 4    1  0.1964735E-002  0.9118800E+02  0.7818608E-02  0.1130116E+00
         25   -1    0    0    0    0  0.00000000000E+00  0.00000000000E+00  0.99999998245E-14  0.12500000000E+03  0.12500000000E+03 0.  0.
        -11    1    1    0    0    0 -0.24480164571E+02  0.13442448389E+02 -0.13501864984E+02  0.31020609834E+02  0.51100000000E-03 0. -1.
         11    1    1    0    0    0  0.29266990674E+02 -0.15373037835E+02 -0.33282785899E+02  0.46910882244E+02  0.51100000000E-03 0.  1.
         22    1    1    0    0    0 -0.47868261030E+01  0.19305894464E+01  0.46784650884E+02  0.47068507923E+02  0.00000000000E+00 0.  1.
</event>
<event>
 4    1  0.1964735E-002  0.9118800E+02  0.7818608E-02  0.1130116E+00
         25   -1    0    0    0    0  0.00000000000E+00  0.00000000000E+00  0.99999998245E-14  0.12500000000E+03  0.12500000000E+03 0.  0.
        -11    1    1    0    0    0  0.22259599132E+02 -0.26428267902E+01 -0.10453221080E+02  0.24733461508E+02  0.51100000000E-03 0.  1.
         11    1    1    0    0    0  0.33990598603E+02 -0.40385231156E+01 -0.15957473887E+02  0.37766538569E+02  0.51100000000E-03 0. -1.
         22    1    1    0    0    0 -0.56250197735E+02  0.66813499058E+01  0.26410694968E+02  0.62499999923E+02  0.00000000000E+00 0. -1.
</event>
<event>
 4    1  0.1964735E-002  0.9118800E+02  0.7818608E-02  0.1130116E+00
         25   -1    0    0    0    0  0.00000000000E+00  0.00000000000E+00  0.99999998245E-14  0.12500000000E+03  0.12500000000E+03 0.  0.
        -11    1    1    0    0    0 -0.73974118545E+01  0.20484665454E+02  0.11399927570E+02  0.24582546040E+02  0.51100000000E-03 0.  1.
         11    1    1    0    0    0 -0.11081185237E+02  0.31885626743E+02  0.17271489587E+02  0.37918204228E+02  0.51100000000E-03 0. -1.
         22    1    1    0    0    0  0.18478597091E+02 -0.52370292197E+02 -0.28671417158E+02  0.62499249732E+02  0.00000000000E+00 0. -1.
</event>
<event>
 4    1  0.1964735E-002  0.9118800E+02  0.7818608E-02  0.1130116E+00
         25   -1    0    0    0    0  0.00000000000E+00  0.00000000000E+00  0.99999998245E-14  0.12500000000E+03  0.12500000000E+03 0.  0.
        -11    1    1    0    0    0  0.44051143428E+02  0.32397581414E+01  0.20476190679E+02  0.48685456299E+02  0.51100000000E-03 0. -1.
         11    1    1    0    0    0  0.56923369335E+01 -0.92596425515E+01  0.12319898336E+02  0.16429351028E+02  0.51100000000E-03 0.  1.
         22    1    1    0    0    0 -0.49743480361E+02  0.60198844101E+01 -0.32796089015E+02  0.59885192672E+02  0.00000000000E+00 0. -1.
</event>
<event>
 4    1  0.1964735E-002  0.9118800E+02  0.7818608E-02  0.1130116E+00
         25   -1    0    0    0    0  0.00000000000E+00  0.00000000000E+00  0.99999998245E-14  0.12500000000E+03  0.12500000000E+03 0.  0.
        -11    1    1    0    0    0  0.13089634152E+02  0.38395756629E+02  0.21519432188E+02  0.45920132963E+02  0.51100000000E-03 0.  1.
         11    1    1    0    0    0  0.47260067237E+01  0.13863014515E+02  0.77700501888E+01  0.16579867044E+02  0.51100000000E-03 0.  1.
         22    1    1    0    0    0 -0.17815640876E+02 -0.52258771144E+02 -0.29289482376E+02  0.62499999994E+02  0.00000000000E+00 0.  1.
</event>
<event>
 4    1  0.1964735E-002  0.9118800E+02  0.7818608E-02  0.1130116E+00
         25   -1    0    0    0    0  0.00000000000E+00  0.00000000000E+00  0.99999998245E-14  0.12500000000E+03  0.12500000000E+03 0.  0.
        -11    1    1    0    0    0 -0.47321195180E+02  0.22748803285E+02  0.88418741677E+01  0.53244551864E+02  0.51100000000E-03 0. -1.
         11    1    1    0    0    0 -0.94539087122E+01  0.13091265849E+01 -0.97907812222E+00  0.95942064072E+01  0.51100000000E-03 0.  1.
         22    1    1    0    0    0  0.56775103892E+02 -0.24057929870E+02 -0.78627960455E+01  0.62161241729E+02  0.00000000000E+00 0. -1.
</event>
<event>
 4    1  0.1964735E-002  0.9118800E+02  0.7818608E-02  0.1130116E+00
         25   -1    0    0    0    0  0.00000000000E+00  0.00000000000E+00  0.99999998245E-14  0.12500000000E+03  0.12500000000E+03 0.  0.
        -11    1    1    0    0    0  0.35029207033E+00  0.10880458308E+01 -0.11308849946E+01  0.16079332687E+01  0.51100000000E-03 0. -1.
         11    1    1    0    0    0 -0.44463989106E+02  0.35254015236E+02  0.24287874287E+02  0.61723518655E+02  0.51100000000E-03 0.  1.
         22    1    1    0    0    0  0.44113697036E+02 -0.36342061067E+02 -0.23156989293E+02  0.61668548076E+02  0.00000000000E+00 0.  1.
</event>
<event>
 4    1  0.1964735E-002  0.9118800E+02  0.7818608E-02  0.1130116E+00
         25   -1    0    0    0    0  0.00000000000E+00  0.00000000000E+00  0.99999998245E-14  0.12500000000E+03  0.12500000000E+03 0.  0.
        -11    1    1    0    0    0  0.35246768845E+02  0.13463268537E+02 -0.45194466221E+02  0.58873882927E+02  0.51100000000E-03 0. -1.
         11    1    1    0    0    0  0.21631521183E+01  0.83790886166E+00 -0.27870191773E+01  0.36261266529E+01  0.51100000000E-03 0.  1.
         22    1    1    0    0    0 -0.37409920963E+02 -0.14301177399E+02  0.47981485398E+02  0.62499990420E+02  0.00000000000E+00 0. -1.
</event>
<event>
 4    1  0.1964735E-002  0.9118800E+02  0.7818608E-02  0.1130116E+00
         25   -1    0    0    0    0  0.00000000000E+00  0.00000000000E+00  0.99999998245E-14  0.12500000000E+03  0.12500000000E+03 0.  0.
        -11    1    1    0    0    0  0.11568816242E+02 -0.14374577980E+02 -0.19537288519E+01  0.18554866155E+02  0.51100000000E-03 0.  1.
         11    1    1    0    0    0  0.27398836112E+02 -0.34045074195E+02 -0.46272553102E+01  0.43945133851E+02  0.51100000000E-03 0.  1.
         22    1    1    0    0    0 -0.38967652354E+02  0.48419652175E+02  0.65809841621E+01  0.62499999994E+02  0.00000000000E+00 0.  1.
</event>
<event>
 4    1  0.1964735E-002  0.9118800E+02  0.7818608E-02  0.1130116E+00
         25   -1    0    0    0    0  0.00000000000E+00  0.00000000000E+00  0.99999998245E-14  0.12500000000E+03  0.12500000000E+03 0.  0.
        -11    1    1    0    0    0 -0.17116761233E+02  0.22081182226E+02  0.90249954133E+01  0.29360052215E+02  0.51100000000E-03 0.  1.
         11    1    1    0    0    0 -0.16639213605E+02  0.28587828306E+02  0.41803476662E+01  0.33340705804E+02  0.51100000000E-03 0. -1.
         22    1    1    0    0    0  0.33755974838E+02 -0.50669010532E+02 -0.13205343079E+02  0.62299241981E+02  0.00000000000E+00 0. -1.
</event>
<event>
 4    1  0.1964735E-002  0.9118800E+02  0.7818608E-02  0.1130116E+00
         25   -1    0    0    0    0  0.00000000000E+00  0.00000000000E+00  0.99999998245E-14  0.12500000000E+03  0.12500000000E+03 0.  0.
        -11    1    1    0    0    0 -0.26671007802E+01 -0.72481278625E+00 -0.36926697653E+01  0.46124386612E+01  0.51100000000E-03 0.  1.
         11    1    1    0    0    0 -0.37015249544E+02 -0.85852345157E+01 -0.43679166388E+02  0.57893907513E+02  0.51100000000E-03 0. -1.
         22    1    1    0    0    0  0.39682350324E+02  0.93100473020E+01  0.47371836153E+02  0.62493653826E+02  0.00000000000E+00 0. -1.
</event>
<event>
 4    1  0.1964735E-002  0.9118800E+02  0.7818608E-02  0.1130116E+00
         25   -1    0    0    0    0  0.00000000000E+00  0.00000000000E+00  0.99999998245E-14  0.12500000000E+03  0.12500000000E+03 0.  0.
        -11    1    1    0    0    0 -0.16401854441E+01  0.15161368057E+02 -0.60397815098E+02  0.62293285020E+02  0.51100000000E-03 0. -1.
         11    1    1    0    0    0 -0.89444396358E-04  0.47259892647E-01 -0.20128771130E+00  0.20676196288E+00  0.51100000000E-03 0.  1.
         22    1    1    0    0    0  0.16402748885E+01 -0.15208627949E+02  0.60599102810E+02  0.62499953017E+02  0.00000000000E+00 0. -1.
</event>
<event>
 4    1  0.1964735E-002  0.9118800E+02  0.7818608E-02  0.1130116E+00
         25   -1    0    0    0    0  0.00000000000E+00  0.00000000000E+00  0.99999998245E-14  0.12500000000E+03  0.12500000000E+03 0.  0.
        -11    1    1    0    0    0 -0.16500346003E+02 -0.40735675646E+01 -0.66114684122E+01  0.18236416473E+02  0.51100000000E-03 0. -1.
         11    1    1    0    0    0 -0.40055225418E+02 -0.98698265890E+01 -0.16044635152E+02  0.44263584103E+02  0.51100000000E-03 0.  1.
         22    1    1    0    0    0  0.56555571422E+02  0.13943394154E+02  0.22656103565E+02  0.62499999425E+02  0.00000000000E+00 0.  1.
</event>
<event>
 4    1  0.1964735E-002  0.9118800E+02  0.7818608E-02  0.1130116E+00
         25   -1    0    0    0    0  0.00000000000E+00  0.00000000000E+00  0.99999998245E-14  0.12500000000E+03  0.12500000000E+03 0.  0.
        -11    1    1    0    0    0  0.42442184194E+02  0.37233549111E+02  0.22549263010E+02  0.60795932768E+02  0.51100000000E-03 0. -1.
         11    1    1    0    0    0  0.11881012892E+01  0.10445935049E+01  0.63331438524E+00  0.17040679669E+01  0.51100000000E-03 0.  1.
         22    1    1    0    0    0 -0.43630285483E+02 -0.38278142616E+02 -0.23182577396E+02  0.62499999265E+02  0.00000000000E+00 0. -1.
</event>
<event>
 4    1  0.1964735E-002  0.9118800E+02  0.7818608E-02  0.1130116E+00
         25   -1    0    0    0    0  0.00000000000E+00  0.00000000000E+00  0.99999998245E-14  0.12500000000E+03  0.12500000000E+03 0.  0.
        -11    1    1    0    0    0  0.17097612375E+02  0.28119657056E+02 -0.15470114984E+02  0.36364377071E+02  0.51100000000E-03 0.  1.
         11    1    1    0    0    0  0.11250699189E+02  0.20084682891E+02 -0.12405556826E+02  0.26150918904E+02  0.51100000000E-03 0. -1.
         22    1    1    0    0    0 -0.28348311564E+02 -0.48204339947E+02  0.27875671811E+02  0.62484704025E+02  0.00000000000E+00 0.  1.
</event>
<event>
 4    1  0.1964735E-002  0.9118800E+02  0.7818608E-02  0.1130116E+00
         25   -1    0    0    0    0  0.00000000000E+00  0.00000000000E+00  0.99999998245E-14  0.12500000000E+03  0.12500000000E+03 0.  0.
        -11    1    1    0    0    0  0.68081555053E+01 -0.12795645675E+02 -0.73354123794E+01  0.16244623869E+02  0.51100000000E-03 0.  1.
         11    1    1    0    0    0  0.19384126508E+02 -0.36435146594E+02 -0.20887689050E+02  0.46255376141E+02  0.51100000000E-03 0.  1.
         22    1    1    0    0    0 -0.26192282013E+02  0.49230792269E+02  0.28223101429E+02  0.62499999990E+02  0.00000000000E+00 0.  1.
</event>
<event>
 4    1  0.1964735E-002  0.9118800E+02  0.7818608E-02  0.1130116E+00
         25   -1    0    0    0    0  0.00000000000E+00  0.00000000000E+00  0.99999998245E-14  0.12500000000E+03  0.12500000000E+03 0.  0.
        -11    1    1    0    0    0  0.10717960673E+02  0.25614697753E+01 -0.10344514864E+02  0.15114390376E+02  0.51100000000E-03 0. -1.
         11    1    1    0    0    0  0.33648668147E+02  0.84866813739E+01 -0.32267135802E+02  0.47385912272E+02  0.51100000000E-03 0.  1.
         22    1    1    0    0    0 -0.44366628819E+02 -0.11048151149E+02  0.42611650666E+02  0.62499697352E+02  0.00000000000E+00 0. -1.
</event>
<event>
 4    1  0.1964735E-002  0.9118800E+02  0.7818608E-02  0.1130116E+00
         25   -1    0    0    0    0  0.00000000000E+00  0.00000000000E+00  0.99999998245E-14  0.12500000000E+03  0.12500000000E+03 0.  0.
        -11    1    1    0    0    0 -0.26945807929E+02  0.14200194047E+02  0.88145022036E+01  0.31708319496E+02  0.51100000000E-03 0. -1.
         11    1    1    0    0    0 -0.26162990308E+02  0.13794704840E+02  0.85633905898E+01  0.30791680729E+02  0.51100000000E-03 0.  1.
         22    1    1    0    0    0  0.53108798237E+02 -0.27994898887E+02 -0.17377892793E+02  0.62499999774E+02  0.00000000000E+00 0. -1.
</event>
<event>
 4    1  0.1964735E-002  0.9118800E+02  0.7818608E-02  0.1130116E+00
         25   -1    0    0    0    0  0.00000000000E+00  0.00000000000E+00  0.99999998245E-14  0.12500000000E+03  0.12500000000E+03 0.  0.
        -11    1    1    0    0    0  0.20213599740E+02 -0.18843545319E+02 -0.36794501266E+02  0.46016346425E+02  0.51100000000E-03 0.  1.
         11    1    1    0    0    0  0.72399482394E+01 -0.67488444732E+01 -0.13181315716E+02  0.16483653615E+02  0.51100000000E-03 0. -1.
         22    1    1    0    0    0 -0.27453547980E+02  0.25592389793E+02  0.49975816982E+02  0.62499999960E+02  0.00000000000E+00 0.  1.
</event>
<event>
 4    1  0.1964735E-002  0.9118800E+02  0.7818608E-02  0.1130116E+00
         25   -1    0    0    0    0  0.00000000000E+00  0.00000000000E+00  0.99999998245E-14  0.12500000000E+03  0.12500000000E+03 0.  0.
        -11    1    1    0    0    0  0.18585706442E+01  0.47037122200E+01  0.26310875835E+01  0.57010363638E+01  0.51100000000E-03 0. -1.
         11    1    1    0    0    0  0.36160038128E+02 -0.25359932675E+02  0.39246325164E+02  0.59084249862E+02  0.51100000000E-03 0.  1.
         22    1    1    0    0    0 -0.38018608772E+02  0.20656220455E+02 -0.41877412747E+02  0.60214713774E+02  0.00000000000E+00 0.  1.
</event>
<event>
 4    1  0.1964735E-002  0.9118800E+02  0.7818608E-02  0.1130116E+00
         25   -1    0    0    0    0  0.00000000000E+00  0.00000000000E+00  0.99999998245E-14  0.12500000000E+03  0.12500000000E+03 0.  0.
        -11    1    1    0    0    0 -0.46758325688E+01  0.36841595358E+02 -0.16555766622E+02  0.40660299648E+02  0.51100000000E-03 0. -1.
         11    1    1    0    0    0 -0.25221019566E+01  0.19788214247E+02 -0.88903390347E+01  0.21839701229E+02  0.51100000000E-03 0.  1.
         22    1    1    0    0    0  0.71979345253E+01 -0.56629809605E+02  0.25446105657E+02  0.62499999123E+02  0.00000000000E+00 0. -1.
</event>
<event>
 4    1  0.1964735E-002  0.9118800E+02  0.7818608E-02  0.1130116E+00
         25   -1    0    0    0    0  0.00000000000E+00  0.00000000000E+00  0.99999998245E-14  0.12500000000E+03  0.12500000000E+03 0.  0.
        -11    1    1    0    0    0 -0.15427750671E+02  0.51818087952E+02 -0.24423093666E+02  0.59326362051E+02  0.51100000000E-03 0. -1.
         11    1    1    0    0    0 -0.77721499657E+00  0.28089602784E+01 -0.12572019130E+01  0.31740948171E+01  0.51100000000E-03 0.  1.
         22    1    1    0    0    0  0.16204965668E+02 -0.54627048230E+02  0.25680295579E+02  0.62499543132E+02  0.00000000000E+00 0. -1.
</event>
<event>
 4    1  0.1964735E-002  0.9118800E+02  0.7818608E-02  0.1130116E+00
         25   -1    0    0    0    0  0.00000000000E+00  0.00000000000E+00  0.99999998245E-14  0.12500000000E+03  0.12500000000E+03 0.  0.
        -11    1    1    0    0    0  0.15087291258E+02  0.47822389434E+01 -0.16869308659E+02  0.23131574562E+02  0.51100000000E-03 0.  1.
         11    1    1    0    0    0  0.25683511516E+02  0.81175246828E+01 -0.28711252903E+02  0.39368426617E+02  0.51100000000E-03 0. -1.
         22    1    1    0    0    0 -0.40770802774E+02 -0.12899763626E+02  0.45580561561E+02  0.62499998822E+02  0.00000000000E+00 0. -1.
</event>
<event>
 4    1  0.1964735E-002  0.9118800E+02  0.7818608E-02  0.1130116E+00
         25   -1    0    0    0    0  0.00000000000E+00  0.00000000000E+00  0.99999998245E-14  0.12500000000E+03  0.12500000000E+03 0.  0.
        -11    1    1    0    0    0  0.10399701825E+02  0.61799832160E+01 -0.39128441136E+01  0.12714414651E+02  0.51100000000E-03 0. -1.
         11    1    1    0    0    0  0.40721319615E+02  0.24196124544E+02 -0.15327302407E+02  0.49785585399E+02  0.51100000000E-03 0. -1.
         22    1    1    0    0    0 -0.51121021440E+02 -0.30376107760E+02  0.19240146521E+02  0.62499999951E+02  0.00000000000E+00 0. -1.
</event>
<event>
 4    1  0.1964735E-002  0.9118800E+02  0.7818608E-02  0.1130116E+00
         25   -1    0    0    0    0  0.00000000000E+00  0.00000000000E+00  0.99999998245E-14  0.12500000000E+03  0.12500000000E+03 0.  0.
        -11    1    1    0    0    0 -0.25843734086E+02  0.94820563806E+01 -0.52651243779E+02  0.59413478744E+02  0.51100000000E-03 0.  1.
         11    1    1    0    0    0 -0.13382937396E+01  0.49525009132E+00 -0.27368456086E+01  0.30865234379E+01  0.51100000000E-03 0. -1.
         22    1    1    0    0    0  0.27182027826E+02 -0.99773064719E+01  0.55388089388E+02  0.62499997818E+02  0.00000000000E+00 0.  1.
</event>
<event>
 4    1  0.1964735E-002  0.9118800E+02  0.7818608E-02  0.1130116E+00
         25   -1    0    0    0    0  0.00000000000E+00  0.00000000000E+00  0.99999998245E-14  0.12500000000E+03  0.12500000000E+03 0.  0.
        -11    1    1    0    0    0  0.35539917665E+01 -0.66461410621E+01  0.77086044985E+00  0.75760329057E+01  0.51100000000E-03 0. -1.
         11    1    1    0    0    0  0.26016007195E+02 -0.48187575692E+02  0.42288224861E+01  0.54925021814E+02  0.51100000000E-03 0.  1.
         22    1    1    0    0    0 -0.29569998961E+02  0.54833716754E+02 -0.49996829359E+01  0.62498945280E+02  0.00000000000E+00 0.  1.
</event>
<event>
 4    1  0.1964735E-002  0.9118800E+02  0.7818608E-02  0.1130116E+00
         25   -1    0    0    0    0  0.00000000000E+00  0.00000000000E+00  0.99999998245E-14  0.12500000000E+03  0.12500000000E+03 0.  0.
        -11    1    1    0    0    0 -0.43832976070E+01  0.78684075159E+01 -0.15206382510E+02  0.17673686770E+02  0.51100000000E-03 0. -1.
         11    1    1    0    0    0 -0.11658552687E+02  0.19708124552E+02 -0.38537210750E+02  0.44826874046E+02  0.51100000000E-03 0.  1.
         22    1    1    0    0    0  0.16041850294E+02 -0.27576532068E+02  0.53743593260E+02  0.62499439183E+02  0.00000000000E+00 0.  1.
</event>
<event>
 4    1  0.1964735E-002  0.9118800E+02  0.7818608E-02  0.1130116E+00
         25   -1    0    0    0    0  0.00000000000E+00  0.00000000000E+00  0.99999998245E-14  0.12500000000E+03  0.12500000000E+03 0.  0.
        -11    1    1    0    0    0  0.19297640398E+01  0.71615563492E+00 -0.71300883176E+00  0.21783594741E+01  0.51100000000E-03 0.  1.
         11    1    1    0    0    0  0.53437315598E+02  0.19847620686E+02 -0.19728800846E+02  0.60321640630E+02  0.51100000000E-03 0. -1.
         22    1    1    0    0    0 -0.55367079638E+02 -0.20563776321E+02  0.20441809677E+02  0.62499999896E+02  0.00000000000E+00 0. -1.
</event>
<event>
 4    1  0.1964735E-002  0.9118800E+02  0.7818608E-02  0.1130116E+00
         25   -1    0    0    0    0  0.00000000000E+00  0.00000000000E+00  0.99999998245E-14  0.12500000000E+03  0.12500000000E+03 0.  0.
        -11    1    1    0    0    0  0.32483007112E+02  0.13782869727E+02 -0.94362705516E+01  0.36526106433E+02  0.51100000000E-03 0.  1.
         11    1    1    0    0    0  0.23147579528E+02  0.97865476137E+01 -0.65622666709E+01  0.25974031191E+02  0.51100000000E-03 0. -1.
         22    1    1    0    0    0 -0.55630586640E+02 -0.23569417341E+02  0.15998537223E+02  0.62499862376E+02  0.00000000000E+00 0. -1.
</event>
<event>
 4    1  0.1964735E-002  0.9118800E+02  0.7818608E-02  0.1130116E+00
         25   -1    0    0    0    0  0.00000000000E+00  0.00000000000E+00  0.99999998245E-14  0.12500000000E+03  0.12500000000E+03 0.  0.
        -11    1    1    0    0    0  0.20687320828E+02  0.29233253326E+01  0.25356640522E+02  0.32855293225E+02  0.51100000000E-03 0.  1.
         11    1    1    0    0    0  0.20170065812E+02 -0.30303152155E+01  0.21730126132E+02  0.29802898301E+02  0.51100000000E-03 0. -1.
         22    1    1    0    0    0 -0.40857386640E+02  0.10698988290E+00 -0.47086766654E+02  0.62341808474E+02  0.00000000000E+00 0.  1.
</event>
<event>
 4    1  0.1964735E-002  0.9118800E+02  0.7818608E-02  0.1130116E+00
         25   -1    0    0    0    0  0.00000000000E+00  0.00000000000E+00  0.99999998245E-14  0.12500000000E+03  0.12500000000E+03 0.  0.
        -11    1    1    0    0    0  0.12856566526E+02 -0.55157203704E+02 -0.16475628596E+02  0.58983512622E+02  0.51100000000E-03 0.  1.
         11    1    1    0    0    0  0.71712464965E+00 -0.33292986044E+01 -0.87981688994E+00  0.35174671258E+01  0.51100000000E-03 0. -1.
         22    1    1    0    0    0 -0.13573691176E+02  0.58486502309E+02  0.17355445486E+02  0.62499020252E+02  0.00000000000E+00 0.  1.
</event>
<event>
 4    1  0.1964735E-002  0.9118800E+02  0.7818608E-02  0.1130116E+00
         25   -1    0    0    0    0  0.00000000000E+00  0.00000000000E+00  0.99999998245E-14  0.12500000000E+03  0.12500000000E+03 0.  0.
        -11    1    1    0    0    0  0.39855282697E+02 -0.11232668221E+02  0.80359947248E+00  0.41415723664E+02  0.51100000000E-03 0. -1.
         11    1    1    0    0    0  0.20295379413E+02 -0.56996429145E+01  0.39814615644E+00  0.21084280294E+02  0.51100000000E-03 0.  1.
         22    1    1    0    0    0 -0.60150662111E+02  0.16932311136E+02 -0.12017456289E+01  0.62499996042E+02  0.00000000000E+00 0. -1.
</event>
<event>
 4    1  0.1964735E-002  0.9118800E+02  0.7818608E-02  0.1130116E+00
         25   -1    0    0    0    0  0.00000000000E+00  0.00000000000E+00  0.99999998245E-14  0.12500000000E+03  0.12500000000E+03 0.  0.
        -11    1    1    0    0    0  0.41231417671E+00 -0.61753206751E+00 -0.14639298218E+00  0.75682230482E+00  0.51100000000E-03 0. -1.
         11    1    1    0    0    0 -0.90635412319E+01 -0.59823899864E+02 -0.12757970406E+02  0.61836983948E+02  0.51100000000E-03 0.  1.
         22    1    1    0    0    0  0.86512270552E+01  0.60441431932E+02  0.12904363389E+02  0.62406193747E+02  0.00000000000E+00 0.  1.
</event>
<event>
 4    1  0.1964735E-002  0.9118800E+02  0.7818608E-02  0.1130116E+00
         25   -1    0    0    0    0  0.00000000000E+00  0.00000000000E+00  0.99999998245E-14  0.12500000000E+03  0.12500000000E+03 0.  0.
        -11    1    1    0    0    0  0.46796831094E+02  0.16048164647E+01  0.40158705003E+02  0.61686630837E+02  0.51100000000E-03 0.  1.
         11    1    1    0    0    0  0.61727838347E+00  0.20280242070E-01  0.52926913234E+00  0.81336951411E+00  0.51100000000E-03 0.  1.
         22    1    1    0    0    0 -0.47414109477E+02 -0.16250967068E+01 -0.40687974135E+02  0.62499999648E+02  0.00000000000E+00 0.  1.
</event>
<event>
 4    1  0.1964735E-002  0.9118800E+02  0.7818608E-02  0.1130116E+00
         25   -1    0    0    0    0  0.00000000000E+00  0.00000000000E+00  0.99999998245E-14  0.12500000000E+03  0.12500000000E+03 0.  0.
        -11    1    1    0    0    0  0.22740326374E+02 -0.39992289810E+02 -0.30634508722E+02  0.55271862758E+02  0.51100000000E-03 0. -1.
         11    1    1    0    0    0 -0.28066236038E+01  0.13573097795E+02 -0.10168628134E+02  0.17190320480E+02  0.51100000000E-03 0.  1.
         22    1    1    0    0    0 -0.19933702770E+02  0.26419192014E+02  0.40803136856E+02  0.52537816762E+02  0.00000000000E+00 0. -1.
</event>
<event>
 4    1  0.1964735E-002  0.9118800E+02  0.7818608E-02  0.1130116E+00
         25   -1    0    0    0    0  0.00000000000E+00  0.00000000000E+00  0.99999998245E-14  0.12500000000E+03  0.12500000000E+03 0.  0.
        -11    1    1    0    0    0  0.19300330329E+01 -0.11305349756E+02 -0.38034492314E+01  0.12083136469E+02  0.51100000000E-03 0.  1.
         11    1    1    0    0    0  0.80602814756E+01 -0.47170926857E+02 -0.15868070334E+02  0.50416863591E+02  0.51100000000E-03 0. -1.
         22    1    1    0    0    0 -0.99903145085E+01  0.58476276613E+02  0.19671519565E+02  0.62499999940E+02  0.00000000000E+00 0. -1.
</event>
<event>
 4    1  0.1964735E-002  0.9118800E+02  0.7818608E-02  0.1130116E+00
         25   -1    0    0    0    0  0.00000000000E+00  0.00000000000E+00  0.99999998245E-14  0.12500000000E+03  0.12500000000E+03 0.  0.
        -11    1    1    0    0    0  0.17069805421E+02 -0.24379075371E+01  0.54680063092E+02  0.57334378433E+02  0.51100000000E-03 0. -1.
         11    1    1    0    0    0  0.16247395268E+01 -0.24392559451E+00  0.48978027826E+01  0.51660188332E+01  0.51100000000E-03 0.  1.
         22    1    1    0    0    0 -0.18694544947E+02  0.26818331316E+01 -0.59577865875E+02  0.62499602734E+02  0.00000000000E+00 0. -1.
</event>
<event>
 4    1  0.1964735E-002  0.9118800E+02  0.7818608E-02  0.1130116E+00
         25   -1    0    0    0    0  0.00000000000E+00  0.00000000000E+00  0.99999998245E-14  0.12500000000E+03  0.12500000000E+03 0.  0.
        -11    1    1    0    0    0 -0.57760066802E+01 -0.21093694233E+02  0.61517950015E+01  0.22718951815E+02  0.51100000000E-03 0. -1.
         11    1    1    0    0    0 -0.94733190287E+01 -0.38226505423E+02  0.60029934812E+01  0.39837738656E+02  0.51100000000E-03 0.  1.
         22    1    1    0    0    0  0.15249325709E+02  0.59320199656E+02 -0.12154788483E+02  0.62443309528E+02  0.00000000000E+00 0.  1.
</event>
<event>
 4    1  0.1964735E-002  0.9118800E+02  0.7818608E-02  0.1130116E+00
         25   -1    0    0    0    0  0.00000000000E+00  0.00000000000E+00  0.99999998245E-14  0.12500000000E+03  0.12500000000E+03 0.  0.
        -11    1    1    0    0    0 -0.36833233823E+02 -0.82558185298E+01 -0.72934201687E+01  0.38445281004E+02  0.51100000000E-03 0.  1.
         11    1    1    0    0    0 -0.23019557551E+02 -0.52194402262E+01 -0.46356915809E+01  0.24054775468E+02  0.51100000000E-03 0. -1.
         22    1    1    0    0    0  0.59852791374E+02  0.13475258756E+02  0.11929111750E+02  0.62499943528E+02  0.00000000000E+00 0. -1.
</event>
<event>
 4    1  0.1964735E-002  0.9118800E+02  0.7818608E-02  0.1130116E+00
         25   -1    0    0    0    0  0.00000000000E+00  0.00000000000E+00  0.99999998245E-14  0.12500000000E+03  0.12500000000E+03 0.  0.
        -11    1    1    0    0    0 -0.38406531549E+02  0.89608636443E+01  0.25479567661E+02  0.46952817927E+02  0.51100000000E-03 0.  1.
         11    1    1    0    0    0 -0.12612179866E+02  0.29541201248E+01  0.85985461272E+01  0.15547633339E+02  0.51100000000E-03 0. -1.
         22    1    1    0    0    0  0.51018711414E+02 -0.11914983769E+02 -0.34078113788E+02  0.62499548734E+02  0.00000000000E+00 0.  1.
</event>
<event>
 4    1  0.1964735E-002  0.9118800E+02  0.7818608E-02  0.1130116E+00
         25   -1    0    0    0    0  0.00000000000E+00  0.00000000000E+00  0.99999998245E-14  0.12500000000E+03  0.12500000000E+03 0.  0.
        -11    1    1    0    0    0  0.21838930359E+02  0.20398851236E+02  0.37158821558E+01  0.30114112828E+02  0.51100000000E-03 0.  1.
         11    1    1    0    0    0  0.23688573700E+02  0.21792133463E+02  0.35854809913E+01  0.32386745422E+02  0.51100000000E-03 0. -1.
         22    1    1    0    0    0 -0.45527504059E+02 -0.42190984699E+02 -0.73013631472E+01  0.62499141750E+02  0.00000000000E+00 0. -1.
</event>
<event>
 4    1  0.1964735E-002  0.9118800E+02  0.7818608E-02  0.1130116E+00
         25   -1    0    0    0    0  0.00000000000E+00  0.00000000000E+00  0.99999998245E-14  0.12500000000E+03  0.12500000000E+03 0.  0.
        -11    1    1    0    0    0 -0.25622875707E+02 -0.81112070067E+01 -0.16728677034E+02  0.31657101481E+02  0.51100000000E-03 0.  1.
         11    1    1    0    0    0 -0.24954441592E+02 -0.79951331188E+01 -0.16267775188E+02  0.30842937905E+02  0.51100000000E-03 0. -1.
         22    1    1    0    0    0  0.50577317300E+02  0.16106340126E+02  0.32996452223E+02  0.62499960614E+02  0.00000000000E+00 0.  1.
</event>
<event>
 4    1  0.1964735E-002  0.9118800E+02  0.7818608E-02  0.1130116E+00
         25   -1    0    0    0    0  0.00000000000E+00  0.00000000000E+00  0.99999998245E-14  0.12500000000E+03  0.12500000000E+03 0.  0.
        -11    1    1    0    0    0 -0.16631536605E+02  0.36431840395E+02  0.47033378859E+02  0.61773989118E+02  0.51100000000E-03 0.  1.
         11    1    1    0    0    0 -0.19416860915E+00  0.42627093590E+00  0.55469610183E+00  0.72601403986E+00  0.51100000000E-03 0. -1.
         22    1    1    0    0    0  0.16825705214E+02 -0.36858111330E+02 -0.47588074961E+02  0.62499996842E+02  0.00000000000E+00 0.  1.
</event>
<event>
 4    1  0.1964735E-002  0.9118800E+02  0.7818608E-02  0.1130116E+00
         25   -1    0    0    0    0  0.00000000000E+00  0.00000000000E+00  0.99999998245E-14  0.12500000000E+03  0.12500000000E+03 0.  0.
        -11    1    1    0    0    0  0.58691634052E+01 -0.32736754928E+01  0.23812437881E+02  0.24742599468E+02  0.51100000000E-03 0. -1.
         11    1    1    0    0    0  0.89563969710E+01 -0.49956153727E+01  0.36337970160E+02  0.37757400537E+02  0.51100000000E-03 0. -1.
         22    1    1    0    0    0 -0.14825560376E+02  0.82692908655E+01 -0.60150408042E+02  0.62499999996E+02  0.00000000000E+00 0. -1.
</event>
<event>
 4    1  0.1964735E-002  0.9118800E+02  0.7818608E-02  0.1130116E+00
         25   -1    0    0    0    0  0.00000000000E+00  0.00000000000E+00  0.99999998245E-14  0.12500000000E+03  0.12500000000E+03 0.  0.
        -11    1    1    0    0    0  0.61048164024E+01 -0.49946087775E+02  0.72470324451E+01  0.50836993881E+02  0.51100000000E-03 0.  1.
         11    1    1    0    0    0  0.14001095463E+01 -0.11458664870E+02  0.16626498030E+01  0.11663006129E+02  0.51100000000E-03 0. -1.
         22    1    1    0    0    0 -0.75049259487E+01  0.61404752645E+02 -0.89096822481E+01  0.62499999989E+02  0.00000000000E+00 0.  1.
</event>
<event>
 4    1  0.1964735E-002  0.9118800E+02  0.7818608E-02  0.1130116E+00
         25   -1    0    0    0    0  0.00000000000E+00  0.00000000000E+00  0.99999998245E-14  0.12500000000E+03  0.12500000000E+03 0.  0.
        -11    1    1    0    0    0  0.91578604747E+01  0.99191223014E+01 -0.44297815592E+01  0.14208390501E+02  0.51100000000E-03 0. -1.
         11    1    1    0    0    0  0.24108670107E+02 -0.44693099600E+01 -0.44832582188E+02  0.51099541404E+02  0.51100000000E-03 0.  1.
         22    1    1    0    0    0 -0.33266530581E+02 -0.54498123414E+01  0.49262363747E+02  0.59692068095E+02  0.00000000000E+00 0.  1.
</event>
<event>
 4    1  0.1964735E-002  0.9118800E+02  0.7818608E-02  0.1130116E+00
         25   -1    0    0    0    0  0.00000000000E+00  0.00000000000E+00  0.99999998245E-14  0.12500000000E+03  0.12500000000E+03 0.  0.
        -11    1    1    0    0    0 -0.13396930731E+02  0.33002576760E+02  0.18878474797E+02  0.40311842388E+02  0.51100000000E-03 0.  1.
         11    1    1    0    0    0 -0.73736017454E+01  0.18113756374E+02  0.10480438734E+02  0.22188234923E+02  0.51100000000E-03 0. -1.
         22    1    1    0    0    0  0.20770532476E+02 -0.51116333134E+02 -0.29358913531E+02  0.62499922689E+02  0.00000000000E+00 0.  1.
</event>
<event>
 4    1  0.1964735E-002  0.9118800E+02  0.7818608E-02  0.1130116E+00
         25   -1    0    0    0    0  0.00000000000E+00  0.00000000000E+00  0.99999998245E-14  0.12500000000E+03  0.12500000000E+03 0.  0.
        -11    1    1    0    0    0  0.25301279757E+02  0.30011194463E+00  0.43011549440E+01  0.25666023428E+02  0.51100000000E-03 0.  1.
         11    1    1    0    0    0 -0.46557129222E+01 -0.30929023772E+01 -0.49368631480E+02  0.49684036495E+02  0.51100000000E-03 0. -1.
         22    1    1    0    0    0 -0.20645566834E+02  0.27927904326E+01  0.45067476536E+02  0.49649940077E+02  0.00000000000E+00 0. -1.
</event>
<event>
 4    1  0.1964735E-002  0.9118800E+02  0.7818608E-02  0.1130116E+00
         25   -1    0    0    0    0  0.00000000000E+00  0.00000000000E+00  0.99999998245E-14  0.12500000000E+03  0.12500000000E+03 0.  0.
        -11    1    1    0    0    0 -0.24360357239E+01 -0.50298706319E+00  0.22185757317E+01  0.33330683420E+01  0.51100000000E-03 0. -1.
         11    1    1    0    0    0 -0.42839390382E+02 -0.95049998419E+01  0.39688576521E+02  0.59167064291E+02  0.51100000000E-03 0.  1.
         22    1    1    0    0    0  0.45275426106E+02  0.10007986905E+02 -0.41907152253E+02  0.62499867367E+02  0.00000000000E+00 0.  1.
</event>
<event>
 4    1  0.1964735E-002  0.9118800E+02  0.7818608E-02  0.1130116E+00
         25   -1    0    0    0    0  0.00000000000E+00  0.00000000000E+00  0.99999998245E-14  0.12500000000E+03  0.12500000000E+03 0.  0.
        -11    1    1    0    0    0  0.35416075680E+02  0.92239876129E+01  0.26101110658E+02  0.44951622239E+02  0.51100000000E-03 0. -1.
         11    1    1    0    0    0  0.13831375230E+02  0.36933849766E+01  0.10148950964E+02  0.17548482535E+02  0.51100000000E-03 0.  1.
         22    1    1    0    0    0 -0.49247450909E+02 -0.12917372590E+02 -0.36250061623E+02  0.62499895227E+02  0.00000000000E+00 0. -1.
</event>
<event>
 4    1  0.1964735E-002  0.9118800E+02  0.7818608E-02  0.1130116E+00
         25   -1    0    0    0    0  0.00000000000E+00  0.00000000000E+00  0.99999998245E-14  0.12500000000E+03  0.12500000000E+03 0.  0.
        -11    1    1    0    0    0  0.24150447208E+00 -0.27575952774E+01 -0.87823091351E+01  0.92082359944E+01  0.51100000000E-03 0. -1.
         11    1    1    0    0    0 -0.41550198222E+02 -0.34157143647E+02 -0.14485717667E+02  0.55704267799E+02  0.51100000000E-03 0.  1.
         22    1    1    0    0    0  0.41308693750E+02  0.36914738924E+02  0.23268026802E+02  0.60087496207E+02  0.00000000000E+00 0.  1.
</event>
<event>
 4    1  0.1964735E-002  0.9118800E+02  0.7818608E-02  0.1130116E+00
         25   -1    0    0    0    0  0.00000000000E+00  0.00000000000E+00  0.99999998245E-14  0.12500000000E+03  0.12500000000E+03 0.  0.
        -11    1    1    0    0    0 -0.18595470794E+01 -0.11760512837E+01 -0.34425947684E+01  0.40856420503E+01  0.51100000000E-03 0. -1.
         11    1    1    0    0    0 -0.50876237038E+02 -0.25710744966E+02 -0.14944267658E+02  0.58930170862E+02  0.51100000000E-03 0.  1.
         22    1    1    0    0    0  0.52735784117E+02  0.26886796250E+02  0.18386862426E+02  0.61984187087E+02  0.00000000000E+00 0.  1.
</event>
<event>
 4    1  0.1964735E-002  0.9118800E+02  0.7818608E-02  0.1130116E+00
         25   -1    0    0    0    0  0.00000000000E+00  0.00000000000E+00  0.99999998245E-14  0.12500000000E+03  0.12500000000E+03 0.  0.
        -11    1    1    0    0    0  0.31727992044E+02 -0.11132524994E+02 -0.36132578881E+02  0.49357490300E+02  0.51100000000E-03 0.  1.
         11    1    1    0    0    0  0.84486673994E+01 -0.29652186417E+01 -0.96204500556E+01  0.13142509728E+02  0.51100000000E-03 0.  1.
         22    1    1    0    0    0 -0.40176659444E+02  0.14097743635E+02  0.45753028936E+02  0.62499999972E+02  0.00000000000E+00 0.  1.
</event>
<event>
 4    1  0.1964735E-002  0.9118800E+02  0.7818608E-02  0.1130116E+00
         25   -1    0    0    0    0  0.00000000000E+00  0.00000000000E+00  0.99999998245E-14  0.12500000000E+03  0.12500000000E+03 0.  0.
        -11    1    1    0    0    0 -0.48689046700E+01  0.18218009169E+01 -0.45145663588E+01  0.68852378997E+01  0.51100000000E-03 0.  1.
         11    1    1    0    0    0 -0.39324923903E+02  0.14729418620E+02 -0.36463630691E+02  0.55614762216E+02  0.51100000000E-03 0. -1.
         22    1    1    0    0    0  0.44193828573E+02 -0.16551219536E+02  0.40978197050E+02  0.62499999885E+02  0.00000000000E+00 0. -1.
</event>
<event>
 4    1  0.1964735E-002  0.9118800E+02  0.7818608E-02  0.1130116E+00
         25   -1    0    0    0    0  0.00000000000E+00  0.00000000000E+00  0.99999998245E-14  0.12500000000E+03  0.12500000000E+03 0.  0.
        -11    1    1    0    0    0  0.20029191758E+02  0.29422462772E+01  0.48895976887E+02  0.52921091180E+02  0.51100000000E-03 0. -1.
         11    1    1    0    0    0  0.36280869439E+01  0.53827262206E+00  0.88488846576E+01  0.95789097622E+01  0.51100000000E-03 0.  1.
         22    1    1    0    0    0 -0.23657278702E+02 -0.34805188992E+01 -0.57744861545E+02  0.62499999058E+02  0.00000000000E+00 0. -1.
</event>
<event>
 4    1  0.1964735E-002  0.9118800E+02  0.7818608E-02  0.1130116E+00
         25   -1    0    0    0    0  0.00000000000E+00  0.00000000000E+00  0.99999998245E-14  0.12500000000E+03  0.12500000000E+03 0.  0.
        -11    1    1    0    0    0  0.10907163409E+02  0.28594289783E+02 -0.43562821619E+01  0.30912405542E+02  0.51100000000E-03 0.  1.
         11    1    1    0    0    0  0.75801293027E+01  0.30830786356E+02  0.10959419713E+01  0.31767858547E+02  0.51100000000E-03 0. -1.
         22    1    1    0    0    0 -0.18487292712E+02 -0.59425076139E+02  0.32603401906E+01  0.62319735912E+02  0.00000000000E+00 0.  1.
</event>
<event>
 4    1  0.1964735E-002  0.9118800E+02  0.7818608E-02  0.1130116E+00
         25   -1    0    0    0    0  0.00000000000E+00  0.00000000000E+00  0.99999998245E-14  0.12500000000E+03  0.12500000000E+03 0.  0.
        -11    1    1    0    0    0  0.87203166807E+01  0.73071127587E+01  0.57369136879E+01  0.12741663895E+02  0.51100000000E-03 0.  1.
         11    1    1    0    0    0  0.34050854216E+02  0.28542086432E+02  0.22400460894E+02  0.49758336179E+02  0.51100000000E-03 0.  1.
         22    1    1    0    0    0 -0.42771170897E+02 -0.35849199190E+02 -0.28137374582E+02  0.62499999927E+02  0.00000000000E+00 0.  1.
</event>
<event>
 4    1  0.1964735E-002  0.9118800E+02  0.7818608E-02  0.1130116E+00
         25   -1    0    0    0    0  0.00000000000E+00  0.00000000000E+00  0.99999998245E-14  0.12500000000E+03  0.12500000000E+03 0.  0.
        -11    1    1    0    0    0 -0.40370252311E+01 -0.11311444704E+01 -0.19499510042E+01  0.46237830517E+01  0.51100000000E-03 0. -1.
         11    1    1    0    0    0 -0.50531296704E+02 -0.14160863025E+02 -0.24407263300E+02  0.57876216965E+02  0.51100000000E-03 0. -1.
         22    1    1    0    0    0  0.54568321935E+02  0.15292007495E+02  0.26357214304E+02  0.62499999983E+02  0.00000000000E+00 0. -1.
</event>
<event>
 4    1  0.1964735E-002  0.9118800E+02  0.7818608E-02  0.1130116E+00
         25   -1    0    0    0    0  0.00000000000E+00  0.00000000000E+00  0.99999998245E-14  0.12500000000E+03  0.12500000000E+03 0.  0.
        -11    1    1    0    0    0  0.52739915475E+01  0.57625997185E+00 -0.40109743805E+01  0.66509381399E+01  0.51100000000E-03 0.  1.
         11    1    1    0    0    0  0.44282991354E+02  0.48481015401E+01 -0.33684273861E+02  0.55849061923E+02  0.51100000000E-03 0. -1.
         22    1    1    0    0    0 -0.49556982902E+02 -0.54243615119E+01  0.37695248242E+02  0.62499999937E+02  0.00000000000E+00 0. -1.
</event>
<event>
 4    1  0.1964735E-002  0.9118800E+02  0.7818608E-02  0.1130116E+00
         25   -1    0    0    0    0  0.00000000000E+00  0.00000000000E+00  0.99999998245E-14  0.12500000000E+03  0.12500000000E+03 0.  0.
        -11    1    1    0    0    0 -0.18402291274E+02  0.15981481500E+02 -0.12659231049E+02  0.27464671964E+02  0.51100000000E-03 0. -1.
         11    1    1    0    0    0 -0.23473925973E+02  0.20388479137E+02 -0.16148031753E+02  0.35035328054E+02  0.51100000000E-03 0.  1.
         22    1    1    0    0    0  0.41876217247E+02 -0.36369960636E+02  0.28807262802E+02  0.62499999982E+02  0.00000000000E+00 0. -1.
</event>
<event>
 4    1  0.1964735E-002  0.9118800E+02  0.7818608E-02  0.1130116E+00
         25   -1    0    0    0    0  0.00000000000E+00  0.00000000000E+00  0.99999998245E-14  0.12500000000E+03  0.12500000000E+03 0.  0.
        -11    1    1    0    0    0 -0.53968141613E+01 -0.73453119234E+01  0.26098218220E+02  0.27644098916E+02  0.51100000000E-03 0. -1.
         11    1    1    0    0    0 -0.68004635823E+01 -0.92645420269E+01  0.32906774417E+02  0.34855901175E+02  0.51100000000E-03 0.  1.
         22    1    1    0    0    0  0.12197277744E+02  0.16609853950E+02 -0.59004992637E+02  0.62499999910E+02  0.00000000000E+00 0. -1.
</event>
<event>
 4    1  0.1964735E-002  0.9118800E+02  0.7818608E-02  0.1130116E+00
         25   -1    0    0    0    0  0.00000000000E+00  0.00000000000E+00  0.99999998245E-14  0.12500000000E+03  0.12500000000E+03 0.  0.
        -11    1    1    0    0    0  0.32753794165E+02  0.17924872333E+02 -0.43173099299E+02  0.57079143159E+02  0.51100000000E-03 0. -1.
         11    1    1    0    0    0  0.31230613203E+01  0.16771091818E+01 -0.41012001906E+01  0.54208901928E+01  0.51100000000E-03 0.  1.
         22    1    1    0    0    0 -0.35876855486E+02 -0.19601981515E+02  0.47274299489E+02  0.62499966649E+02  0.00000000000E+00 0. -1.
</event>
<event>
 4    1  0.1964735E-002  0.9118800E+02  0.7818608E-02  0.1130116E+00
         25   -1    0    0    0    0  0.00000000000E+00  0.00000000000E+00  0.99999998245E-14  0.12500000000E+03  0.12500000000E+03 0.  0.
        -11    1    1    0    0    0  0.22319949656E+00  0.21774044009E+01 -0.53479519254E-01  0.21894675746E+01  0.51100000000E-03 0. -1.
         11    1    1    0    0    0  0.76955997673E+00  0.60145892558E+02 -0.44613183209E+01  0.60316034150E+02  0.51100000000E-03 0.  1.
         22    1    1    0    0    0 -0.99275947329E+00 -0.62323296959E+02  0.45147978401E+01  0.62494498276E+02  0.00000000000E+00 0.  1.
</event>
<event>
 4    1  0.1964735E-002  0.9118800E+02  0.7818608E-02  0.1130116E+00
         25   -1    0    0    0    0  0.00000000000E+00  0.00000000000E+00  0.99999998245E-14  0.12500000000E+03  0.12500000000E+03 0.  0.
        -11    1    1    0    0    0 -0.17742417332E+02  0.87867571384E+01 -0.12024001376E+02  0.23164133551E+02  0.51100000000E-03 0.  1.
         11    1    1    0    0    0 -0.31403328066E+02  0.14714509530E+02 -0.18589073518E+02  0.39347674123E+02  0.51100000000E-03 0. -1.
         22    1    1    0    0    0  0.49145745399E+02 -0.23501266668E+02  0.30613074894E+02  0.62488192327E+02  0.00000000000E+00 0. -1.
</event>
<event>
 4    1  0.1964735E-002  0.9118800E+02  0.7818608E-02  0.1130116E+00
         25   -1    0    0    0    0  0.00000000000E+00  0.00000000000E+00  0.99999998245E-14  0.12500000000E+03  0.12500000000E+03 0.  0.
        -11    1    1    0    0    0 -0.50789913553E+01 -0.43457078926E+02  0.10571118919E+02  0.45011803090E+02  0.51100000000E-03 0.  1.
         11    1    1    0    0    0 -0.23431112048E+01 -0.17014982478E+02  0.33329433881E+01  0.17495951267E+02  0.51100000000E-03 0. -1.
         22    1    1    0    0    0  0.74221025601E+01  0.60472061404E+02 -0.13904062307E+02  0.62492245643E+02  0.00000000000E+00 0. -1.
</event>
<event>
 4    1  0.1964735E-002  0.9118800E+02  0.7818608E-02  0.1130116E+00
         25   -1    0    0    0    0  0.00000000000E+00  0.00000000000E+00  0.99999998245E-14  0.12500000000E+03  0.12500000000E+03 0.  0.
        -11    1    1    0    0    0 -0.14589071231E+02  0.88845841185E+01  0.16017042419E+02  0.23416286692E+02  0.51100000000E-03 0.  1.
         11    1    1    0    0    0 -0.24536110746E+02  0.14631982573E+02  0.26672747164E+02  0.39083898041E+02  0.51100000000E-03 0. -1.
         22    1    1    0    0    0  0.39125181977E+02 -0.23516566692E+02 -0.42689789583E+02  0.62499815266E+02  0.00000000000E+00 0.  1.
</event>
<event>
 4    1  0.1964735E-002  0.9118800E+02  0.7818608E-02  0.1130116E+00
         25   -1    0    0    0    0  0.00000000000E+00  0.00000000000E+00  0.99999998245E-14  0.12500000000E+03  0.12500000000E+03 0.  0.
        -11    1    1    0    0    0 -0.21163354354E+02 -0.41743459637E+02  0.23591422385E+02  0.52411441503E+02  0.51100000000E-03 0. -1.
         11    1    1    0    0    0 -0.40713356781E+01 -0.80362624530E+01  0.45411151608E+01  0.10088558647E+02  0.51100000000E-03 0.  1.
         22    1    1    0    0    0  0.25234690032E+02  0.49779722090E+02 -0.28132537546E+02  0.62499999850E+02  0.00000000000E+00 0. -1.
</event>
<event>
 4    1  0.1964735E-002  0.9118800E+02  0.7818608E-02  0.1130116E+00
         25   -1    0    0    0    0  0.00000000000E+00  0.00000000000E+00  0.99999998245E-14  0.12500000000E+03  0.12500000000E+03 0.  0.
        -11    1    1    0    0    0 -0.18718268091E+02 -0.56030692490E+02  0.15774236198E+02  0.61144407668E+02  0.51100000000E-03 0.  1.
         11    1    1    0    0    0 -0.41565800372E+00 -0.12417382498E+01  0.35063617449E+00  0.13555926545E+01  0.51100000000E-03 0. -1.
         22    1    1    0    0    0  0.19133926095E+02  0.57272430740E+02 -0.16124872372E+02  0.62499999677E+02  0.00000000000E+00 0.  1.
</event>
<event>
 4    1  0.1964735E-002  0.9118800E+02  0.7818608E-02  0.1130116E+00
         25   -1    0    0    0    0  0.00000000000E+00  0.00000000000E+00  0.99999998245E-14  0.12500000000E+03  0.12500000000E+03 0.  0.
        -11    1    1    0    0    0 -0.36556017605E+01 -0.21109000723E+02 -0.16069108594E+02  0.26780022162E+02  0.51100000000E-03 0.  1.
         11    1    1    0    0    0 -0.50512521636E+01 -0.28036246153E+02 -0.21549549976E+02  0.35720153291E+02  0.51100000000E-03 0. -1.
         22    1    1    0    0    0  0.87068539241E+01  0.49145246875E+02  0.37618658570E+02  0.62499824546E+02  0.00000000000E+00 0.  1.
</event>
<event>
 4    1  0.1964735E-002  0.9118800E+02  0.7818608E-02  0.1130116E+00
         25   -1    0    0    0    0  0.00000000000E+00  0.00000000000E+00  0.99999998245E-14  0.12500000000E+03  0.12500000000E+03 0.  0.
        -11    1    1    0    0    0  0.19723513486E+01  0.62301702419E-01  0.18038667866E+00  0.19815627568E+01  0.51100000000E-03 0.  1.
         11    1    1    0    0    0  0.60243545224E+02  0.21146763400E+01  0.53596380576E+01  0.60518446093E+02  0.51100000000E-03 0. -1.
         22    1    1    0    0    0 -0.62215896572E+02 -0.21769780424E+01 -0.55400247362E+01  0.62499991150E+02  0.00000000000E+00 0. -1.
</event>
<event>
 4    1  0.1964735E-002  0.9118800E+02  0.7818608E-02  0.1130116E+00
         25   -1    0    0    0    0  0.00000000000E+00  0.00000000000E+00  0.99999998245E-14  0.12500000000E+03  0.12500000000E+03 0.  0.
        -11    1    1    0    0    0  0.58891763527E-01  0.32178605948E+00  0.32772415638E+00  0.46305279578E+00  0.51100000000E-03 0. -1.
         11    1    1    0    0    0  0.81975292453E+01  0.43031101644E+02  0.43928442007E+02  0.62036950375E+02  0.51100000000E-03 0.  1.
         22    1    1    0    0    0 -0.82564210088E+01 -0.43352887704E+02 -0.44256166163E+02  0.62499996829E+02  0.00000000000E+00 0.  1.
</event>
<event>
 4    1  0.1964735E-002  0.9118800E+02  0.7818608E-02  0.1130116E+00
         25   -1    0    0    0    0  0.00000000000E+00  0.00000000000E+00  0.99999998245E-14  0.12500000000E+03  0.12500000000E+03 0.  0.
        -11    1    1    0    0    0 -0.12177083090E+02  0.28276271296E+02  0.23720173648E+02  0.38864836409E+02  0.51100000000E-03 0.  1.
         11    1    1    0    0    0 -0.74083899913E+01  0.17257351168E+02  0.14350034079E+02  0.23635225616E+02  0.51100000000E-03 0. -1.
         22    1    1    0    0    0  0.19585473082E+02 -0.45533622464E+02 -0.38070207727E+02  0.62499937975E+02  0.00000000000E+00 0.  1.
</event>
<event>
 4    1  0.1964735E-002  0.9118800E+02  0.7818608E-02  0.1130116E+00
         25   -1    0    0    0    0  0.00000000000E+00  0.00000000000E+00  0.99999998245E-14  0.12500000000E+03  0.12500000000E+03 0.  0.
        -11    1    1    0    0    0  0.76787727836E+01 -0.28547443748E+01 -0.14267810525E+02  0.16452462865E+02  0.51100000000E-03 0.  1.
         11    1    1    0    0    0  0.20915069242E+02 -0.59122519363E+01 -0.40603595371E+02  0.46054823870E+02  0.51100000000E-03 0. -1.
         22    1    1    0    0    0 -0.28593842026E+02  0.87669963111E+01  0.54871405896E+02  0.62492713264E+02  0.00000000000E+00 0. -1.
</event>
<event>
 4    1  0.1964735E-002  0.9118800E+02  0.7818608E-02  0.1130116E+00
         25   -1    0    0    0    0  0.00000000000E+00  0.00000000000E+00  0.99999998245E-14  0.12500000000E+03  0.12500000000E+03 0.  0.
        -11    1    1    0    0    0 -0.78245505878E+01 -0.62400970425E+01  0.53046653347E+01  0.11327041872E+02  0.51100000000E-03 0. -1.
         11    1    1    0    0    0 -0.36724229172E+02 -0.26303421447E+02  0.24054679858E+02  0.51177794124E+02  0.51100000000E-03 0.  1.
         22    1    1    0    0    0  0.44548779760E+02  0.32543518489E+02 -0.29359345192E+02  0.62495164004E+02  0.00000000000E+00 0.  1.
</event>
<event>
 4    1  0.1964735E-002  0.9118800E+02  0.7818608E-02  0.1130116E+00
         25   -1    0    0    0    0  0.00000000000E+00  0.00000000000E+00  0.99999998245E-14  0.12500000000E+03  0.12500000000E+03 0.  0.
        -11    1    1    0    0    0  0.11186009306E+02  0.38304348731E+01  0.10431951434E+01  0.11869595270E+02  0.51100000000E-03 0.  1.
         11    1    1    0    0    0  0.46946440890E+02  0.16605463097E+02  0.92736726149E+01  0.50652845142E+02  0.51100000000E-03 0. -1.
         22    1    1    0    0    0 -0.58132450196E+02 -0.20435897970E+02 -0.10316867758E+02  0.62477559588E+02  0.00000000000E+00 0. -1.
</event>
<event>
 4    1  0.1964735E-002  0.9118800E+02  0.7818608E-02  0.1130116E+00
         25   -1    0    0    0    0  0.00000000000E+00  0.00000000000E+00  0.99999998245E-14  0.12500000000E+03  0.12500000000E+03 0.  0.
        -11    1    1    0    0    0  0.41634209218E+01 -0.41187409604E+01  0.92739112288E+01  0.10968296614E+02  0.51100000000E-03 0. -1.
         11    1    1    0    0    0  0.27131944803E+02  0.21650781021E+02  0.40078085624E+02  0.53020295126E+02  0.51100000000E-03 0.  1.
         22    1    1    0    0    0 -0.31295365725E+02 -0.17532040061E+02 -0.49351996853E+02  0.61011408261E+02  0.00000000000E+00 0.  1.
</event>
<event>
 4    1  0.1964735E-002  0.9118800E+02  0.7818608E-02  0.1130116E+00
         25   -1    0    0    0    0  0.00000000000E+00  0.00000000000E+00  0.99999998245E-14  0.12500000000E+03  0.12500000000E+03 0.  0.
        -11    1    1    0    0    0  0.22428602686E+02  0.30469000994E+02 -0.10358535887E+02  0.39226285906E+02  0.51100000000E-03 0. -1.
         11    1    1    0    0    0  0.13297457315E+02  0.18083048489E+02 -0.61519756589E+01  0.23273715184E+02  0.51100000000E-03 0.  1.
         22    1    1    0    0    0 -0.35726060001E+02 -0.48552049483E+02  0.16510511546E+02  0.62499998910E+02  0.00000000000E+00 0. -1.
</event>
<event>
 4    1  0.1964735E-002  0.9118800E+02  0.7818608E-02  0.1130116E+00
         25   -1    0    0    0    0  0.00000000000E+00  0.00000000000E+00  0.99999998245E-14  0.12500000000E+03  0.12500000000E+03 0.  0.
        -11    1    1    0    0    0  0.19280231103E+01  0.88562835954E+01 -0.56893427321E+01  0.10701385575E+02  0.51100000000E-03 0.  1.
         11    1    1    0    0    0 -0.46395425424E+02 -0.28853316737E+02 -0.21216626322E+02  0.58610533351E+02  0.51100000000E-03 0. -1.
         22    1    1    0    0    0  0.44467402314E+02  0.19997033141E+02  0.26905969054E+02  0.55688081074E+02  0.00000000000E+00 0. -1.
</event>
<event>
 4    1  0.1964735E-002  0.9118800E+02  0.7818608E-02  0.1130116E+00
         25   -1    0    0    0    0  0.00000000000E+00  0.00000000000E+00  0.99999998245E-14  0.12500000000E+03  0.12500000000E+03 0.  0.
        -11    1    1    0    0    0  0.10735921415E+01  0.10287805977E+02  0.17388474606E+02  0.20232414619E+02  0.51100000000E-03 0.  1.
         11    1    1    0    0    0 -0.64021062787E+01  0.25391582279E+02  0.33418339161E+02  0.42455916054E+02  0.51100000000E-03 0. -1.
         22    1    1    0    0    0  0.53285141372E+01 -0.35679388256E+02 -0.50806813767E+02  0.62311669328E+02  0.00000000000E+00 0. -1.
</event>
<event>
 4    1  0.1964735E-002  0.9118800E+02  0.7818608E-02  0.1130116E+00
         25   -1    0    0    0    0  0.00000000000E+00  0.00000000000E+00  0.99999998245E-14  0.12500000000E+03  0.12500000000E+03 0.  0.
        -11    1    1    0    0    0 -0.25110608150E+02  0.48795860261E+02 -0.13113141953E+02  0.56422806669E+02  0.51100000000E-03 0.  1.
         11    1    1    0    0    0 -0.27046972737E+01  0.52556885398E+01 -0.14123134567E+01  0.60771933432E+01  0.51100000000E-03 0.  1.
         22    1    1    0    0    0  0.27815305424E+02 -0.54051548801E+02  0.14525455409E+02  0.62499999988E+02  0.00000000000E+00 0.  1.
</event>
<event>
 4    1  0.1964735E-002  0.9118800E+02  0.7818608E-02  0.1130116E+00
         25   -1    0    0    0    0  0.00000000000E+00  0.00000000000E+00  0.99999998245E-14  0.12500000000E+03  0.12500000000E+03 0.  0.
        -11    1    1    0    0    0  0.99691818124E+00 -0.18065503209E+02  0.10410224049E+02  0.20874123145E+02  0.51100000000E-03 0.  1.
         11    1    1    0    0    0  0.19850736864E+01 -0.36024720305E+02  0.20760362114E+02  0.41625876879E+02  0.51100000000E-03 0. -1.
         22    1    1    0    0    0 -0.29819918677E+01  0.54090223514E+02 -0.31170586163E+02  0.62499999976E+02  0.00000000000E+00 0. -1.
</event>
<event>
 4    1  0.1964735E-002  0.9118800E+02  0.7818608E-02  0.1130116E+00
         25   -1    0    0    0    0  0.00000000000E+00  0.00000000000E+00  0.99999998245E-14  0.12500000000E+03  0.12500000000E+03 0.  0.
        -11    1    1    0    0    0  0.22597144450E+00 -0.11707843997E+02 -0.16179843227E+02  0.19972781511E+02  0.51100000000E-03 0. -1.
         11    1    1    0    0    0 -0.61080647041E+01 -0.41222369250E+02 -0.13818154066E+02  0.43903685074E+02  0.51100000000E-03 0.  1.
         22    1    1    0    0    0  0.58820932596E+01  0.52930213247E+02  0.29997997294E+02  0.61123533415E+02  0.00000000000E+00 0. -1.
</event>
<event>
 4    1  0.1964735E-002  0.9118800E+02  0.7818608E-02  0.1130116E+00
         25   -1    0    0    0    0  0.00000000000E+00  0.00000000000E+00  0.99999998245E-14  0.12500000000E+03  0.12500000000E+03 0.  0.
        -11    1    1    0    0    0  0.58030271605E+01 -0.10891892300E+02 -0.22692020435E+02  0.25830916239E+02  0.51100000000E-03 0. -1.
         11    1    1    0    0    0  0.86802504538E+01 -0.15717866096E+02 -0.31973262472E+02  0.36669981946E+02  0.51100000000E-03 0.  1.
         22    1    1    0    0    0 -0.14483277614E+02  0.26609758396E+02  0.54665282907E+02  0.62499101815E+02  0.00000000000E+00 0.  1.
</event>
<event>
 4    1  0.1964735E-002  0.9118800E+02  0.7818608E-02  0.1130116E+00
         25   -1    0    0    0    0  0.00000000000E+00  0.00000000000E+00  0.99999998245E-14  0.12500000000E+03  0.12500000000E+03 0.  0.
        -11    1    1    0    0    0 -0.23928580771E+02  0.39530600666E+02 -0.10934245358E+02  0.47484766910E+02  0.51100000000E-03 0.  1.
         11    1    1    0    0    0 -0.75748916605E+01  0.12342328553E+02 -0.39823723554E+01  0.15019032846E+02  0.51100000000E-03 0. -1.
         22    1    1    0    0    0  0.31503472431E+02 -0.51872929219E+02  0.14916617713E+02  0.62496200244E+02  0.00000000000E+00 0.  1.
</event>
<event>
 4    1  0.1964735E-002  0.9118800E+02  0.7818608E-02  0.1130116E+00
         25   -1    0    0    0    0  0.00000000000E+00  0.00000000000E+00  0.99999998245E-14  0.12500000000E+03  0.12500000000E+03 0.  0.
        -11    1    1    0    0    0  0.38674363734E+02  0.37401198432E+02 -0.83921336458E+01  0.54451666290E+02  0.51100000000E-03 0.  1.
         11    1    1    0    0    0  0.67390122391E+01  0.45842020440E+01  0.13275673279E+00  0.81514918236E+01  0.51100000000E-03 0. -1.
         22    1    1    0    0    0 -0.45413375973E+02 -0.41985400476E+02  0.82593769130E+01  0.62396841886E+02  0.00000000000E+00 0.  1.
</event>
<event>
 4    1  0.1964735E-002  0.9118800E+02  0.7818608E-02  0.1130116E+00
         25   -1    0    0    0    0  0.00000000000E+00  0.00000000000E+00  0.99999998245E-14  0.12500000000E+03  0.12500000000E+03 0.  0.
        -11    1    1    0    0    0 -0.13699671100E+02 -0.17178576691E+02 -0.29385255744E+02  0.36691657646E+02  0.51100000000E-03 0.  1.
         11    1    1    0    0    0 -0.96110416113E+01 -0.12097056117E+02 -0.20672684703E+02  0.25808347112E+02  0.51100000000E-03 0. -1.
         22    1    1    0    0    0  0.23310712711E+02  0.29275632808E+02  0.50057940448E+02  0.62499995242E+02  0.00000000000E+00 0.  1.
</event>
<event>
 4    1  0.1964735E-002  0.9118800E+02  0.7818608E-02  0.1130116E+00
         25   -1    0    0    0    0  0.00000000000E+00  0.00000000000E+00  0.99999998245E-14  0.12500000000E+03  0.12500000000E+03 0.  0.
        -11    1    1    0    0    0 -0.31371811906E+02 -0.58458442954E+01  0.20859877357E+01  0.31979928437E+02  0.51100000000E-03 0. -1.
         11    1    1    0    0    0 -0.29683652028E+02 -0.70107393160E+01  0.13595401122E+01  0.30530607807E+02  0.51100000000E-03 0.  1.
         22    1    1    0    0    0  0.61055463934E+02  0.12856583611E+02 -0.34455278480E+01  0.62489463756E+02  0.00000000000E+00 0.  1.
</event>
<event>
 4    1  0.1964735E-002  0.9118800E+02  0.7818608E-02  0.1130116E+00
         25   -1    0    0    0    0  0.00000000000E+00  0.00000000000E+00  0.99999998245E-14  0.12500000000E+03  0.12500000000E+03 0.  0.
        -11    1    1    0    0    0  0.41360232866E+02 -0.10332576215E+02 -0.30120071903E+02  0.52198177418E+02  0.51100000000E-03 0.  1.
         11    1    1    0    0    0  0.86076553777E+01 -0.29929518962E+01 -0.48988033255E+01  0.10346389053E+02  0.51100000000E-03 0. -1.
         22    1    1    0    0    0 -0.49967888244E+02  0.13325528112E+02  0.35018875229E+02  0.62455433529E+02  0.00000000000E+00 0.  1.
</event>
<event>
 4    1  0.1964735E-002  0.9118800E+02  0.7818608E-02  0.1130116E+00
         25   -1    0    0    0    0  0.00000000000E+00  0.00000000000E+00  0.99999998245E-14  0.12500000000E+03  0.12500000000E+03 0.  0.
        -11    1    1    0    0    0 -0.46002879241E+00  0.22383206077E+01 -0.12469886776E+01  0.26032069944E+01  0.51100000000E-03 0. -1.
         11    1    1    0    0    0 -0.10518689722E+02  0.51532373473E+02 -0.28660034858E+02  0.59896794134E+02  0.51100000000E-03 0.  1.
         22    1    1    0    0    0  0.10978718515E+02 -0.53770694081E+02  0.29907023535E+02  0.62499998871E+02  0.00000000000E+00 0.  1.
</event>
<event>
 4    1  0.1964735E-002  0.9118800E+02  0.7818608E-02  0.1130116E+00
         25   -1    0    0    0    0  0.00000000000E+00  0.00000000000E+00  0.99999998245E-14  0.12500000000E+03  0.12500000000E+03 0.  0.
        -11    1    1    0    0    0 -0.49891912990E+01  0.11603811474E+02  0.11427039659E+02  0.17032841988E+02  0.51100000000E-03 0. -1.
         11    1    1    0    0    0 -0.10223169982E+02  0.28800457331E+02  0.33714069446E+02  0.45504044060E+02  0.51100000000E-03 0.  1.
         22    1    1    0    0    0  0.15212361281E+02 -0.40404268805E+02 -0.45141109105E+02  0.62463113952E+02  0.00000000000E+00 0.  1.
</event>
<event>
 4    1  0.1964735E-002  0.9118800E+02  0.7818608E-02  0.1130116E+00
         25   -1    0    0    0    0  0.00000000000E+00  0.00000000000E+00  0.99999998245E-14  0.12500000000E+03  0.12500000000E+03 0.  0.
        -11    1    1    0    0    0 -0.53005083620E+01 -0.76672545041E+01  0.17320376135E+02  0.19669204617E+02  0.51100000000E-03 0. -1.
         11    1    1    0    0    0 -0.84684343258E+00 -0.67882936223E+01  0.42722698672E+02  0.43266927972E+02  0.51100000000E-03 0.  1.
         22    1    1    0    0    0  0.61473517946E+01  0.14455548126E+02 -0.60043074807E+02  0.62063867411E+02  0.00000000000E+00 0.  1.
</event>
<event>
 4    1  0.1964735E-002  0.9118800E+02  0.7818608E-02  0.1130116E+00
         25   -1    0    0    0    0  0.00000000000E+00  0.00000000000E+00  0.99999998245E-14  0.12500000000E+03  0.12500000000E+03 0.  0.
        -11    1    1    0    0    0 -0.26673182863E+02 -0.11867192356E+02 -0.10591156127E+02  0.31055780893E+02  0.51100000000E-03 0.  1.
         11    1    1    0    0    0 -0.32498637363E+02 -0.29180679706E+00  0.80528461419E+01  0.33482755456E+02  0.51100000000E-03 0. -1.
         22    1    1    0    0    0  0.59171820226E+02  0.12158999154E+02  0.25383099855E+01  0.60461463652E+02  0.00000000000E+00 0. -1.
</event>
<event>
 4    1  0.1964735E-002  0.9118800E+02  0.7818608E-02  0.1130116E+00
         25   -1    0    0    0    0  0.00000000000E+00  0.00000000000E+00  0.99999998245E-14  0.12500000000E+03  0.12500000000E+03 0.  0.
        -11    1    1    0    0    0  0.90631025630E+01 -0.11423296912E+02  0.46584624934E+01  0.15307933024E+02  0.51100000000E-03 0. -1.
         11    1    1    0    0    0  0.27323714256E+02 -0.35592263887E+02  0.14620830093E+02  0.47192830835E+02  0.51100000000E-03 0.  1.
         22    1    1    0    0    0 -0.36386816819E+02  0.47015560800E+02 -0.19279292586E+02  0.62499236141E+02  0.00000000000E+00 0.  1.
</event>
<event>
 4    1  0.1964735E-002  0.9118800E+02  0.7818608E-02  0.1130116E+00
         25   -1    0    0    0    0  0.00000000000E+00  0.00000000000E+00  0.99999998245E-14  0.12500000000E+03  0.12500000000E+03 0.  0.
        -11    1    1    0    0    0 -0.10063656917E+02 -0.52410773238E+02 -0.28479054123E+02  0.60491510694E+02  0.51100000000E-03 0. -1.
         11    1    1    0    0    0 -0.50420321397E+01  0.34350375036E+01  0.59538292713E+01  0.85246497876E+01  0.51100000000E-03 0.  1.
         22    1    1    0    0    0  0.15105689057E+02  0.48975735735E+02  0.22525224852E+02  0.55983839519E+02  0.00000000000E+00 0. -1.
</event>
<event>
 4    1  0.1964735E-002  0.9118800E+02  0.7818608E-02  0.1130116E+00
         25   -1    0    0    0    0  0.00000000000E+00  0.00000000000E+00  0.99999998245E-14  0.12500000000E+03  0.12500000000E+03 0.  0.
        -11    1    1    0    0    0 -0.30063978058E+00 -0.27222787467E+00 -0.47702929561E+00  0.62613856566E+00  0.51100000000E-03 0.  1.
         11    1    1    0    0    0 -0.59182328042E+02 -0.61490087238E+01 -0.17291483159E+02  0.61962518112E+02  0.51100000000E-03 0. -1.
         22    1    1    0    0    0  0.59482967822E+02  0.64212365985E+01  0.17768512454E+02  0.62411343322E+02  0.00000000000E+00 0. -1.
</event>
<event>
 4    1  0.1964735E-002  0.9118800E+02  0.7818608E-02  0.1130116E+00
         25   -1    0    0    0    0  0.00000000000E+00  0.00000000000E+00  0.99999998245E-14  0.12500000000E+03  0.12500000000E+03 0.  0.
        -11    1    1    0    0    0  0.50472553210E+02 -0.99242215002E+01  0.21104813297E+02  0.55600197342E+02  0.51100000000E-03 0. -1.
         11    1    1    0    0    0  0.62624072289E+01 -0.12363063480E+01  0.26193681462E+01  0.68998034343E+01  0.51100000000E-03 0.  1.
         22    1    1    0    0    0 -0.56734960439E+02  0.11160527848E+02 -0.23724181443E+02  0.62499999224E+02  0.00000000000E+00 0. -1.
</event>
<event>
 4    1  0.1964735E-002  0.9118800E+02  0.7818608E-02  0.1130116E+00
         25   -1    0    0    0    0  0.00000000000E+00  0.00000000000E+00  0.99999998245E-14  0.12500000000E+03  0.12500000000E+03 0.  0.
        -11    1    1    0    0    0  0.61933717453E+01 -0.43187917731E+02 -0.15742554134E+02  0.46382993677E+02  0.51100000000E-03 0. -1.
         11    1    1    0    0    0  0.23221315143E+01 -0.14779843114E+02 -0.60048112337E+01  0.16121222517E+02  0.51100000000E-03 0.  1.
         22    1    1    0    0    0 -0.85155032596E+01  0.57967760845E+02  0.21747365367E+02  0.62495783806E+02  0.00000000000E+00 0. -1.
</event>
<event>
 4    1  0.1964735E-002  0.9118800E+02  0.7818608E-02  0.1130116E+00
         25   -1    0    0    0    0  0.00000000000E+00  0.00000000000E+00  0.99999998245E-14  0.12500000000E+03  0.12500000000E+03 0.  0.
        -11    1    1    0    0    0 -0.22336510217E+00 -0.54640490613E+01 -0.92410090278E+01  0.10737875592E+02  0.51100000000E-03 0. -1.
         11    1    1    0    0    0  0.11522346647E+02 -0.45876087440E+02 -0.22997499952E+02  0.52595293282E+02  0.51100000000E-03 0.  1.
         22    1    1    0    0    0 -0.11298981545E+02  0.51340136501E+02  0.32238508980E+02  0.61666831127E+02  0.00000000000E+00 0.  1.
</event>
<event>
 4    1  0.1964735E-002  0.9118800E+02  0.7818608E-02  0.1130116E+00
         25   -1    0    0    0    0  0.00000000000E+00  0.00000000000E+00  0.99999998245E-14  0.12500000000E+03  0.12500000000E+03 0.  0.
        -11    1    1    0    0    0 -0.15886007041E+02  0.21437559658E+02  0.35896744081E+02  0.44727065851E+02  0.51100000000E-03 0. -1.
         11    1    1    0    0    0  0.15808497872E+02  0.18387137033E+02  0.32069376703E+01  0.24459760071E+02  0.51100000000E-03 0.  1.
         22    1    1    0    0    0  0.77509168983E-01 -0.39824696691E+02 -0.39103681751E+02  0.55813174078E+02  0.00000000000E+00 0. -1.
</event>
<event>
 4    1  0.1964735E-002  0.9118800E+02  0.7818608E-02  0.1130116E+00
         25   -1    0    0    0    0  0.00000000000E+00  0.00000000000E+00  0.99999998245E-14  0.12500000000E+03  0.12500000000E+03 0.  0.
        -11    1    1    0    0    0  0.22792200208E+02  0.94781170151E+01 -0.16034365220E+02  0.29435012498E+02  0.51100000000E-03 0.  1.
         11    1    1    0    0    0  0.25603380186E+02  0.10644714548E+02 -0.18012506076E+02  0.33064987527E+02  0.51100000000E-03 0. -1.
         22    1    1    0    0    0 -0.48395580394E+02 -0.20122831563E+02  0.34046871296E+02  0.62499999975E+02  0.00000000000E+00 0.  1.
</event>
<event>
 4    1  0.1964735E-002  0.9118800E+02  0.7818608E-02  0.1130116E+00
         25   -1    0    0    0    0  0.00000000000E+00  0.00000000000E+00  0.99999998245E-14  0.12500000000E+03  0.12500000000E+03 0.  0.
        -11    1    1    0    0    0  0.42682649671E+02  0.22300599768E+02  0.65780060431E+01  0.48604480212E+02  0.51100000000E-03 0.  1.
         11    1    1    0    0    0  0.12181670506E+02  0.64049453702E+01  0.19157335443E+01  0.13895555289E+02  0.51100000000E-03 0. -1.
         22    1    1    0    0    0 -0.54864320177E+02 -0.28705545138E+02 -0.84937395874E+01  0.62499964499E+02  0.00000000000E+00 0.  1.
</event>
<event>
 4    1  0.1964735E-002  0.9118800E+02  0.7818608E-02  0.1130116E+00
         25   -1    0    0    0    0  0.00000000000E+00  0.00000000000E+00  0.99999998245E-14  0.12500000000E+03  0.12500000000E+03 0.  0.
        -11    1    1    0    0    0 -0.16801268576E+01  0.50888250954E+01  0.99472600909E+01  0.11298980073E+02  0.51100000000E-03 0. -1.
         11    1    1    0    0    0 -0.76078827654E+01  0.23062626857E+02  0.45075268250E+02  0.51201019968E+02  0.51100000000E-03 0.  1.
         22    1    1    0    0    0  0.92880096230E+01 -0.28151451953E+02 -0.55022528341E+02  0.62499999959E+02  0.00000000000E+00 0.  1.
</event>
<event>
 4    1  0.1964735E-002  0.9118800E+02  0.7818608E-02  0.1130116E+00
         25   -1    0    0    0    0  0.00000000000E+00  0.00000000000E+00  0.99999998245E-14  0.12500000000E+03  0.12500000000E+03 0.  0.
        -11    1    1    0    0    0  0.20940488981E+02 -0.15832073038E+02 -0.52551770485E+02  0.58743911998E+02  0.51100000000E-03 0.  1.
         11    1    1    0    0    0  0.14194899430E+01 -0.97095000727E+00 -0.33398426174E+01  0.37566267561E+01  0.51100000000E-03 0. -1.
         22    1    1    0    0    0 -0.22359978924E+02  0.16803023045E+02  0.55891613102E+02  0.62499461246E+02  0.00000000000E+00 0.  1.
</event>
<event>
 4    1  0.1964735E-002  0.9118800E+02  0.7818608E-02  0.1130116E+00
         25   -1    0    0    0    0  0.00000000000E+00  0.00000000000E+00  0.99999998245E-14  0.12500000000E+03  0.12500000000E+03 0.  0.
        -11    1    1    0    0    0 -0.61178973063E+01 -0.22210649610E+02  0.26192706918E+02  0.34882653562E+02  0.51100000000E-03 0. -1.
         11    1    1    0    0    0 -0.39563454699E+01 -0.16972192898E+02  0.21435255973E+02  0.27625680084E+02  0.51100000000E-03 0.  1.
         22    1    1    0    0    0  0.10074242776E+02  0.39182842509E+02 -0.47627962891E+02  0.62491666354E+02  0.00000000000E+00 0.  1.
</event>
<event>
 4    1  0.1964735E-002  0.9118800E+02  0.7818608E-02  0.1130116E+00
         25   -1    0    0    0    0  0.00000000000E+00  0.00000000000E+00  0.99999998245E-14  0.12500000000E+03  0.12500000000E+03 0.  0.
        -11    1    1    0    0    0 -0.25388556664E+02 -0.18567355368E+01 -0.28071487678E+02  0.37895048450E+02  0.51100000000E-03 0. -1.
         11    1    1    0    0    0 -0.16485630838E+02 -0.12052216077E+01 -0.18225670306E+02  0.24604951567E+02  0.51100000000E-03 0. -1.
         22    1    1    0    0    0  0.41874187502E+02  0.30619571445E+01  0.46297157983E+02  0.62499999983E+02  0.00000000000E+00 0. -1.
</event>
<event>
 4    1  0.1964735E-002  0.9118800E+02  0.7818608E-02  0.1130116E+00
         25   -1    0    0    0    0  0.00000000000E+00  0.00000000000E+00  0.99999998245E-14  0.12500000000E+03  0.12500000000E+03 0.  0.
        -11    1    1    0    0    0 -0.79792420905E+01 -0.20584254706E+02  0.51072456884E+01  0.22659739736E+02  0.51100000000E-03 0. -1.
         11    1    1    0    0    0 -0.14029217691E+02 -0.36181237452E+02  0.90191877772E+01  0.39840264068E+02  0.51100000000E-03 0.  1.
         22    1    1    0    0    0  0.22008459782E+02  0.56765492158E+02 -0.14126433466E+02  0.62499996195E+02  0.00000000000E+00 0. -1.
</event>
<event>
 4    1  0.1964735E-002  0.9118800E+02  0.7818608E-02  0.1130116E+00
         25   -1    0    0    0    0  0.00000000000E+00  0.00000000000E+00  0.99999998245E-14  0.12500000000E+03  0.12500000000E+03 0.  0.
        -11    1    1    0    0    0  0.23570303975E+02 -0.14052599677E+02  0.58661111122E+01  0.28061469081E+02  0.51100000000E-03 0. -1.
         11    1    1    0    0    0 -0.45556295128E+02  0.31524677290E+02 -0.27155811074E+02  0.61697806925E+02  0.51100000000E-03 0.  1.
         22    1    1    0    0    0  0.21985991153E+02 -0.17472077613E+02  0.21289699962E+02  0.35240723993E+02  0.00000000000E+00 0.  1.
</event>
<event>
 4    1  0.1964735E-002  0.9118800E+02  0.7818608E-02  0.1130116E+00
         25   -1    0    0    0    0  0.00000000000E+00  0.00000000000E+00  0.99999998245E-14  0.12500000000E+03  0.12500000000E+03 0.  0.
        -11    1    1    0    0    0 -0.16868811133E+02  0.26990252545E+01 -0.42926563217E+02  0.46200988694E+02  0.51100000000E-03 0. -1.
         11    1    1    0    0    0 -0.59494937875E+01  0.96257502262E+00 -0.15143803464E+02  0.16299012566E+02  0.51100000000E-03 0.  1.
         22    1    1    0    0    0  0.22818304921E+02 -0.36616002771E+01  0.58070366681E+02  0.62499998740E+02  0.00000000000E+00 0. -1.
</event>
<event>
 4    1  0.1964735E-002  0.9118800E+02  0.7818608E-02  0.1130116E+00
         25   -1    0    0    0    0  0.00000000000E+00  0.00000000000E+00  0.99999998245E-14  0.12500000000E+03  0.12500000000E+03 0.  0.
        -11    1    1    0    0    0 -0.47587365103E+02 -0.15206510117E+02 -0.11615190375E+02  0.51290427129E+02  0.51100000000E-03 0.  1.
         11    1    1    0    0    0 -0.92972919374E+01 -0.49799359032E+01 -0.41344549647E+01  0.11328420768E+02  0.51100000000E-03 0. -1.
         22    1    1    0    0    0  0.56884657040E+02  0.20186446020E+02  0.15749645340E+02  0.62381152104E+02  0.00000000000E+00 0.  1.
</event>
<event>
 4    1  0.1964735E-002  0.9118800E+02  0.7818608E-02  0.1130116E+00
         25   -1    0    0    0    0  0.00000000000E+00  0.00000000000E+00  0.99999998245E-14  0.12500000000E+03  0.12500000000E+03 0.  0.
        -11    1    1    0    0    0 -0.40390963713E+01 -0.63588052972E+01 -0.61373436718E+01  0.97167737398E+01  0.51100000000E-03 0.  1.
         11    1    1    0    0    0 -0.21950860036E+02 -0.34514565526E+02 -0.33361258818E+02  0.52783227259E+02  0.51100000000E-03 0. -1.
         22    1    1    0    0    0  0.25989956408E+02  0.40873370823E+02  0.39498602489E+02  0.62499999001E+02  0.00000000000E+00 0. -1.
</event>
<event>
 4    1  0.1964735E-002  0.9118800E+02  0.7818608E-02  0.1130116E+00
         25   -1    0    0    0    0  0.00000000000E+00  0.00000000000E+00  0.99999998245E-14  0.12500000000E+03  0.12500000000E+03 0.  0.
        -11    1    1    0    0    0 -0.18926423262E+02 -0.76067279531E+00 -0.67493559129E+01  0.20108255173E+02  0.51100000000E-03 0. -1.
         11    1    1    0    0    0 -0.39806739664E+02 -0.48882208766E+00 -0.14576189699E+02  0.42394348398E+02  0.51100000000E-03 0.  1.
         22    1    1    0    0    0  0.58733162926E+02  0.12494948830E+01  0.21325545612E+02  0.62497396429E+02  0.00000000000E+00 0. -1.
</event>
<event>
 4    1  0.1964735E-002  0.9118800E+02  0.7818608E-02  0.1130116E+00
         25   -1    0    0    0    0  0.00000000000E+00  0.00000000000E+00  0.99999998245E-14  0.12500000000E+03  0.12500000000E+03 0.  0.
        -11    1    1    0    0    0  0.22830453035E+02 -0.23224510861E+02 -0.11770111756E+02  0.34628644524E+02  0.51100000000E-03 0. -1.
         11    1    1    0    0    0  0.17094458573E+02 -0.20020825559E+02 -0.92044576292E+01  0.27888635866E+02  0.51100000000E-03 0.  1.
         22    1    1    0    0    0 -0.39924911608E+02  0.43245336420E+02  0.20974569385E+02  0.62482719610E+02  0.00000000000E+00 0.  1.
</event>
<event>
 4    1  0.1964735E-002  0.9118800E+02  0.7818608E-02  0.1130116E+00
         25   -1    0    0    0    0  0.00000000000E+00  0.00000000000E+00  0.99999998245E-14  0.12500000000E+03  0.12500000000E+03 0.  0.
        -11    1    1    0    0    0 -0.50019475636E+02  0.17869653494E+02 -0.24811699826E+02  0.58625019466E+02  0.51100000000E-03 0.  1.
         11    1    1    0    0    0 -0.33051631588E+01  0.11813101828E+01 -0.16419132060E+01  0.38749808375E+01  0.51100000000E-03 0. -1.
         22    1    1    0    0    0  0.53324638795E+02 -0.19050963676E+02  0.26453613032E+02  0.62499999696E+02  0.00000000000E+00 0.  1.
</event>
<event>
 4    1  0.1964735E-002  0.9118800E+02  0.7818608E-02  0.1130116E+00
         25   -1    0    0    0    0  0.00000000000E+00  0.00000000000E+00  0.99999998245E-14  0.12500000000E+03  0.12500000000E+03 0.  0.
        -11    1    1    0    0    0  0.17373706225E+02  0.36402850613E+02 -0.31596527358E+02  0.51238205883E+02  0.51100000000E-03 0.  1.
         11    1    1    0    0    0 -0.44464736812E+01  0.98869029468E+01 -0.63167414227E+01  0.12546840261E+02  0.51100000000E-03 0. -1.
         22    1    1    0    0    0 -0.12927232544E+02 -0.46289753560E+02  0.37913268781E+02  0.61214953856E+02  0.00000000000E+00 0.  1.
</event>
<event>
 4    1  0.1964735E-002  0.9118800E+02  0.7818608E-02  0.1130116E+00
         25   -1    0    0    0    0  0.00000000000E+00  0.00000000000E+00  0.99999998245E-14  0.12500000000E+03  0.12500000000E+03 0.  0.
        -11    1    1    0    0    0 -0.89141423836E+01  0.21768819326E+01 -0.18899296881E+02  0.21009144967E+02  0.51100000000E-03 0. -1.
         11    1    1    0    0    0 -0.17266857017E+02  0.44326983094E+01 -0.37466297424E+02  0.41491163017E+02  0.51100000000E-03 0.  1.
         22    1    1    0    0    0  0.26180999401E+02 -0.66095802420E+01  0.56365594306E+02  0.62499692016E+02  0.00000000000E+00 0.  1.
</event>
<event>
 4    1  0.1964735E-002  0.9118800E+02  0.7818608E-02  0.1130116E+00
         25   -1    0    0    0    0  0.00000000000E+00  0.00000000000E+00  0.99999998245E-14  0.12500000000E+03  0.12500000000E+03 0.  0.
        -11    1    1    0    0    0 -0.36358305388E+01  0.72859148918E+01 -0.25989270466E+01  0.85474113960E+01  0.51100000000E-03 0.  1.
         11    1    1    0    0    0 -0.37806661119E+02  0.38924403358E+02  0.34867349406E+01  0.54374719517E+02  0.51100000000E-03 0. -1.
         22    1    1    0    0    0  0.41442491658E+02 -0.46210318250E+02 -0.88780789404E+00  0.62077869087E+02  0.00000000000E+00 0. -1.
</event>
<event>
 4    1  0.1964735E-002  0.9118800E+02  0.7818608E-02  0.1130116E+00
         25   -1    0    0    0    0  0.00000000000E+00  0.00000000000E+00  0.99999998245E-14  0.12500000000E+03  0.12500000000E+03 0.  0.
        -11    1    1    0    0    0  0.52554251693E+02  0.29216920529E+02  0.56852188072E+00  0.60132362614E+02  0.51100000000E-03 0.  1.
         11    1    1    0    0    0  0.20690649987E+01  0.11505634870E+01  0.30157152950E-01  0.23676435588E+01  0.51100000000E-03 0. -1.
         22    1    1    0    0    0 -0.54623316691E+02 -0.30367484016E+02 -0.59867903367E+00  0.62499993827E+02  0.00000000000E+00 0.  1.
</event>
<event>
 4    1  0.1964735E-002  0.9118800E+02  0.7818608E-02  0.1130116E+00
         25   -1    0    0    0    0  0.00000000000E+00  0.00000000000E+00  0.99999998245E-14  0.12500000000E+03  0.12500000000E+03 0.  0.
        -11    1    1    0    0    0 -0.13465800142E+02  0.16511586624E+02 -0.64361520898E+01  0.22257230742E+02  0.51100000000E-03 0.  1.
         11    1    1    0    0    0 -0.24332717643E+02  0.29866075596E+02 -0.11636877616E+02  0.40242770038E+02  0.51100000000E-03 0. -1.
         22    1    1    0    0    0  0.37798517785E+02 -0.46377662221E+02  0.18073029706E+02  0.62499999220E+02  0.00000000000E+00 0. -1.
</event>
<event>
 4    1  0.1964735E-002  0.9118800E+02  0.7818608E-02  0.1130116E+00
         25   -1    0    0    0    0  0.00000000000E+00  0.00000000000E+00  0.99999998245E-14  0.12500000000E+03  0.12500000000E+03 0.  0.
        -11    1    1    0    0    0 -0.82063656897E+01  0.73077870351E+01  0.46838368534E+02  0.48110092043E+02  0.51100000000E-03 0. -1.
         11    1    1    0    0    0 -0.77433172498E+01 -0.21526545591E+02  0.26072294647E+01  0.23024959780E+02  0.51100000000E-03 0.  1.
         22    1    1    0    0    0  0.15949682939E+02  0.14218758556E+02 -0.49445597999E+02  0.53864948178E+02  0.00000000000E+00 0. -1.
</event>
<event>
 4    1  0.1964735E-002  0.9118800E+02  0.7818608E-02  0.1130116E+00
         25   -1    0    0    0    0  0.00000000000E+00  0.00000000000E+00  0.99999998245E-14  0.12500000000E+03  0.12500000000E+03 0.  0.
        -11    1    1    0    0    0 -0.11790592789E+02 -0.10176304629E+02 -0.13845416658E+02  0.20839165456E+02  0.51100000000E-03 0.  1.
         11    1    1    0    0    0 -0.23890963039E+02 -0.20166528798E+02 -0.27535139157E+02  0.41661143615E+02  0.51100000000E-03 0. -1.
         22    1    1    0    0    0  0.35681555827E+02  0.30342833427E+02  0.41380555815E+02  0.62499690929E+02  0.00000000000E+00 0. -1.
</event>
<event>
 4    1  0.1964735E-002  0.9118800E+02  0.7818608E-02  0.1130116E+00
         25   -1    0    0    0    0  0.00000000000E+00  0.00000000000E+00  0.99999998245E-14  0.12500000000E+03  0.12500000000E+03 0.  0.
        -11    1    1    0    0    0 -0.50710408053E+02 -0.18491049032E+02 -0.13239261357E+02  0.55576455633E+02  0.51100000000E-03 0. -1.
         11    1    1    0    0    0 -0.63166200052E+01 -0.23072371840E+01 -0.16469497568E+01  0.69235450079E+01  0.51100000000E-03 0.  1.
         22    1    1    0    0    0  0.57027028058E+02  0.20798286216E+02  0.14886211114E+02  0.62499999359E+02  0.00000000000E+00 0. -1.
</event>
<event>
 4    1  0.1964735E-002  0.9118800E+02  0.7818608E-02  0.1130116E+00
         25   -1    0    0    0    0  0.00000000000E+00  0.00000000000E+00  0.99999998245E-14  0.12500000000E+03  0.12500000000E+03 0.  0.
        -11    1    1    0    0    0 -0.80928858455E+01 -0.77292478545E+01  0.12433761992E+02  0.16728254877E+02  0.51100000000E-03 0. -1.
         11    1    1    0    0    0 -0.22088061940E+02 -0.21285650170E+02  0.33971966621E+02  0.45771780605E+02  0.51100000000E-03 0.  1.
         22    1    1    0    0    0  0.30180947785E+02  0.29014898025E+02 -0.46405728613E+02  0.62499964518E+02  0.00000000000E+00 0. -1.
</event>
<event>
 4    1  0.1964735E-002  0.9118800E+02  0.7818608E-02  0.1130116E+00
         25   -1    0    0    0    0  0.00000000000E+00  0.00000000000E+00  0.99999998245E-14  0.12500000000E+03  0.12500000000E+03 0.  0.
        -11    1    1    0    0    0 -0.17965024712E+01 -0.21542872365E+02 -0.19621832820E+02  0.29194847051E+02  0.51100000000E-03 0. -1.
         11    1    1    0    0    0 -0.20444751929E+01 -0.24575753182E+02 -0.22384943500E+02  0.33305153041E+02  0.51100000000E-03 0. -1.
         22    1    1    0    0    0  0.38409776641E+01  0.46118625547E+02  0.42006776320E+02  0.62499999909E+02  0.00000000000E+00 0. -1.
</event>
<event>
 4    1  0.1964735E-002  0.9118800E+02  0.7818608E-02  0.1130116E+00
         25   -1    0    0    0    0  0.00000000000E+00  0.00000000000E+00  0.99999998245E-14  0.12500000000E+03  0.12500000000E+03 0.  0.
        -11    1    1    0    0    0 -0.16202745258E+02 -0.17668271495E+02 -0.64912516247E+01  0.24836125290E+02  0.51100000000E-03 0.  1.
         11    1    1    0    0    0 -0.24697582596E+02 -0.26656181378E+02 -0.99021446770E+01  0.37663975643E+02  0.51100000000E-03 0. -1.
         22    1    1    0    0    0  0.40900327854E+02  0.44324452873E+02  0.16393396302E+02  0.62499899067E+02  0.00000000000E+00 0. -1.
</event>
<event>
 4    1  0.1964735E-002  0.9118800E+02  0.7818608E-02  0.1130116E+00
         25   -1    0    0    0    0  0.00000000000E+00  0.00000000000E+00  0.99999998245E-14  0.12500000000E+03  0.12500000000E+03 0.  0.
        -11    1    1    0    0    0 -0.86244926819E+01 -0.15984761510E+02 -0.12897458393E+02  0.22276420444E+02  0.51100000000E-03 0. -1.
         11    1    1    0    0    0 -0.15655981437E+02 -0.28831039257E+02 -0.23272284633E+02  0.40223597697E+02  0.51100000000E-03 0.  1.
         22    1    1    0    0    0  0.24280474119E+02  0.44815800767E+02  0.36169743026E+02  0.62499981859E+02  0.00000000000E+00 0.  1.
</event>
<event>
 4    1  0.1964735E-002  0.9118800E+02  0.7818608E-02  0.1130116E+00
         25   -1    0    0    0    0  0.00000000000E+00  0.00000000000E+00  0.99999998245E-14  0.12500000000E+03  0.12500000000E+03 0.  0.
        -11    1    1    0    0    0  0.15977199184E+02  0.10613489046E+02 -0.32702243890E+01  0.19457939544E+02  0.51100000000E-03 0. -1.
         11    1    1    0    0    0  0.98059031680E+01  0.44008483934E+02  0.17404430795E+01  0.45121298047E+02  0.51100000000E-03 0.  1.
         22    1    1    0    0    0 -0.25783102352E+02 -0.54621972980E+02  0.15297813095E+01  0.60420762408E+02  0.00000000000E+00 0.  1.
</event>
<event>
 4    1  0.1964735E-002  0.9118800E+02  0.7818608E-02  0.1130116E+00
         25   -1    0    0    0    0  0.00000000000E+00  0.00000000000E+00  0.99999998245E-14  0.12500000000E+03  0.12500000000E+03 0.  0.
        -11    1    1    0    0    0 -0.11135530979E+02 -0.45689740060E+02 -0.14378871754E+02  0.49176257992E+02  0.51100000000E-03 0.  1.
         11    1    1    0    0    0 -0.32559178000E+01 -0.12034835193E+02 -0.47361197419E+01  0.13336757076E+02  0.51100000000E-03 0. -1.
         22    1    1    0    0    0  0.14391448779E+02  0.57724575252E+02  0.19114991496E+02  0.62486984932E+02  0.00000000000E+00 0. -1.
</event>
<event>
 4    1  0.1964735E-002  0.9118800E+02  0.7818608E-02  0.1130116E+00
         25   -1    0    0    0    0  0.00000000000E+00  0.00000000000E+00  0.99999998245E-14  0.12500000000E+03  0.12500000000E+03 0.  0.
        -11    1    1    0    0    0 -0.46997698006E+02  0.88500203622E+01 -0.17758849877E+01  0.47856663549E+02  0.51100000000E-03 0. -1.
         11    1    1    0    0    0 -0.14359080725E+02  0.27858140001E+01 -0.70407765776E+00  0.14643759235E+02  0.51100000000E-03 0.  1.
         22    1    1    0    0    0  0.61356778731E+02 -0.11635834362E+02  0.24799626455E+01  0.62499577217E+02  0.00000000000E+00 0. -1.
</event>
<event>
 4    1  0.1964735E-002  0.9118800E+02  0.7818608E-02  0.1130116E+00
         25   -1    0    0    0    0  0.00000000000E+00  0.00000000000E+00  0.99999998245E-14  0.12500000000E+03  0.12500000000E+03 0.  0.
        -11    1    1    0    0    0 -0.30207782068E+00  0.20528257314E+01 -0.31975047269E+02  0.32042300051E+02  0.51100000000E-03 0.  1.
         11    1    1    0    0    0  0.36373743471E+01  0.13967036422E+02 -0.27616392693E+02  0.31160451604E+02  0.51100000000E-03 0. -1.
         22    1    1    0    0    0 -0.33352965264E+01 -0.16019862153E+02  0.59591439961E+02  0.61797248345E+02  0.00000000000E+00 0. -1.
</event>
<event>
 4    1  0.1964735E-002  0.9118800E+02  0.7818608E-02  0.1130116E+00
         25   -1    0    0    0    0  0.00000000000E+00  0.00000000000E+00  0.99999998245E-14  0.12500000000E+03  0.12500000000E+03 0.  0.
        -11    1    1    0    0    0 -0.12384347849E+02  0.17205413247E+02  0.40974271503E+02  0.46133385331E+02  0.51100000000E-03 0. -1.
         11    1    1    0    0    0 -0.43947280566E+01  0.61049912091E+01  0.14535526288E+02  0.16366614710E+02  0.51100000000E-03 0.  1.
         22    1    1    0    0    0  0.16779075905E+02 -0.23310404456E+02 -0.55509797790E+02  0.62499999959E+02  0.00000000000E+00 0. -1.
</event>
<event>
 4    1  0.1964735E-002  0.9118800E+02  0.7818608E-02  0.1130116E+00
         25   -1    0    0    0    0  0.00000000000E+00  0.00000000000E+00  0.99999998245E-14  0.12500000000E+03  0.12500000000E+03 0.  0.
        -11    1    1    0    0    0  0.45421805060E+01 -0.34851374450E+02 -0.33722937172E+02  0.48708173817E+02  0.51100000000E-03 0. -1.
         11    1    1    0    0    0 -0.21313084101E+01 -0.39296872453E+01 -0.14031631463E+02  0.14726561009E+02  0.51100000000E-03 0.  1.
         22    1    1    0    0    0 -0.24108720959E+01  0.38781061696E+02  0.47754568634E+02  0.61565265174E+02  0.00000000000E+00 0. -1.
</event>
<event>
 4    1  0.1964735E-002  0.9118800E+02  0.7818608E-02  0.1130116E+00
         25   -1    0    0    0    0  0.00000000000E+00  0.00000000000E+00  0.99999998245E-14  0.12500000000E+03  0.12500000000E+03 0.  0.
        -11    1    1    0    0    0 -0.19449056574E+01 -0.41342252441E+01 -0.47590687745E+01  0.65972124603E+01  0.51100000000E-03 0.  1.
         11    1    1    0    0    0 -0.16519147063E+02 -0.35052066943E+02 -0.40293823303E+02  0.55902788958E+02  0.51100000000E-03 0. -1.
         22    1    1    0    0    0  0.18464052720E+02  0.39186292187E+02  0.45052892077E+02  0.62499998582E+02  0.00000000000E+00 0. -1.
</event>
<event>
 4    1  0.1964735E-002  0.9118800E+02  0.7818608E-02  0.1130116E+00
         25   -1    0    0    0    0  0.00000000000E+00  0.00000000000E+00  0.99999998245E-14  0.12500000000E+03  0.12500000000E+03 0.  0.
        -11    1    1    0    0    0 -0.18523105041E+02  0.69715786663E+00 -0.76068920935E+01  0.20036373350E+02  0.51100000000E-03 0.  1.
         11    1    1    0    0    0 -0.30805501501E+02 -0.19649163335E+02 -0.23690745013E+02  0.43546755815E+02  0.51100000000E-03 0. -1.
         22    1    1    0    0    0  0.49328606542E+02  0.18952005469E+02  0.31297637107E+02  0.61416870834E+02  0.00000000000E+00 0. -1.
</event>
<event>
 4    1  0.1964735E-002  0.9118800E+02  0.7818608E-02  0.1130116E+00
         25   -1    0    0    0    0  0.00000000000E+00  0.00000000000E+00  0.99999998245E-14  0.12500000000E+03  0.12500000000E+03 0.  0.
        -11    1    1    0    0    0  0.61178211188E+01  0.90541759264E+00  0.62178023191E+01  0.87697538278E+01  0.51100000000E-03 0.  1.
         11    1    1    0    0    0  0.37648390632E+02  0.57932919197E+01  0.37894390187E+02  0.53730329949E+02  0.51100000000E-03 0. -1.
         22    1    1    0    0    0 -0.43766211751E+02 -0.66987095123E+01 -0.44112192507E+02  0.62499916223E+02  0.00000000000E+00 0. -1.
</event>
<event>
 4    1  0.1964735E-002  0.9118800E+02  0.7818608E-02  0.1130116E+00
         25   -1    0    0    0    0  0.00000000000E+00  0.00000000000E+00  0.99999998245E-14  0.12500000000E+03  0.12500000000E+03 0.  0.
        -11    1    1    0    0    0 -0.41736946322E+02 -0.29428925127E+02 -0.25470718094E+02  0.57068308218E+02  0.51100000000E-03 0.  1.
         11    1    1    0    0    0 -0.39708914183E+01 -0.28023608806E+01 -0.24252984952E+01  0.54316920212E+01  0.51100000000E-03 0. -1.
         22    1    1    0    0    0  0.45707837740E+02  0.32231286007E+02  0.27896016589E+02  0.62499999761E+02  0.00000000000E+00 0.  1.
</event>
<event>
 4    1  0.1964735E-002  0.9118800E+02  0.7818608E-02  0.1130116E+00
         25   -1    0    0    0    0  0.00000000000E+00  0.00000000000E+00  0.99999998245E-14  0.12500000000E+03  0.12500000000E+03 0.  0.
        -11    1    1    0    0    0  0.87457993113E+01 -0.10165319786E+02  0.18006631410E+02  0.22451314147E+02  0.51100000000E-03 0. -1.
         11    1    1    0    0    0  0.15454064768E+02 -0.17945313026E+02  0.32296294122E+02  0.40048882528E+02  0.51100000000E-03 0.  1.
         22    1    1    0    0    0 -0.24199864079E+02  0.28110632811E+02 -0.50302925532E+02  0.62499803325E+02  0.00000000000E+00 0. -1.
</event>
<event>
 4    1  0.1964735E-002  0.9118800E+02  0.7818608E-02  0.1130116E+00
         25   -1    0    0    0    0  0.00000000000E+00  0.00000000000E+00  0.99999998245E-14  0.12500000000E+03  0.12500000000E+03 0.  0.
        -11    1    1    0    0    0 -0.30326028293E+01 -0.10408531270E+02 -0.61028653996E+01  0.12441027669E+02  0.51100000000E-03 0. -1.
         11    1    1    0    0    0 -0.12201769038E+02 -0.41880940041E+02 -0.24556148006E+02  0.50058972338E+02  0.51100000000E-03 0. -1.
         22    1    1    0    0    0  0.15234371867E+02  0.52289471311E+02  0.30659013406E+02  0.62499999993E+02  0.00000000000E+00 0. -1.
</event>
<event>
 4    1  0.1964735E-002  0.9118800E+02  0.7818608E-02  0.1130116E+00
         25   -1    0    0    0    0  0.00000000000E+00  0.00000000000E+00  0.99999998245E-14  0.12500000000E+03  0.12500000000E+03 0.  0.
        -11    1    1    0    0    0  0.75287188786E+01  0.16441796998E+01  0.26940537510E+02  0.28021018833E+02  0.51100000000E-03 0. -1.
         11    1    1    0    0    0  0.92189611453E+01  0.18889923026E+01  0.33169974134E+02  0.34479047562E+02  0.51100000000E-03 0.  1.
         22    1    1    0    0    0 -0.16747680024E+02 -0.35331720024E+01 -0.60110511644E+02  0.62499933605E+02  0.00000000000E+00 0. -1.
</event>
<event>
 4    1  0.1964735E-002  0.9118800E+02  0.7818608E-02  0.1130116E+00
         25   -1    0    0    0    0  0.00000000000E+00  0.00000000000E+00  0.99999998245E-14  0.12500000000E+03  0.12500000000E+03 0.  0.
        -11    1    1    0    0    0 -0.37174538337E+02  0.41541218460E+02  0.10371815617E+02  0.56702677989E+02  0.51100000000E-03 0. -1.
         11    1    1    0    0    0 -0.38065917903E+01  0.42403202497E+01  0.10670249515E+01  0.57973269173E+01  0.51100000000E-03 0.  1.
         22    1    1    0    0    0  0.40981130127E+02 -0.45781538709E+02 -0.11438840569E+02  0.62499995093E+02  0.00000000000E+00 0. -1.
</event>
<event>
 4    1  0.1964735E-002  0.9118800E+02  0.7818608E-02  0.1130116E+00
         25   -1    0    0    0    0  0.00000000000E+00  0.00000000000E+00  0.99999998245E-14  0.12500000000E+03  0.12500000000E+03 0.  0.
        -11    1    1    0    0    0 -0.34076757864E+02 -0.27279857895E+02  0.64262009010E+01  0.44121560847E+02  0.51100000000E-03 0.  1.
         11    1    1    0    0    0 -0.14602319259E+02 -0.10779136104E+02  0.29240853617E+01  0.18383899977E+02  0.51100000000E-03 0. -1.
         22    1    1    0    0    0  0.48679077123E+02  0.38058993999E+02 -0.93502862627E+01  0.62494539177E+02  0.00000000000E+00 0.  1.
</event>
<event>
 4    1  0.1964735E-002  0.9118800E+02  0.7818608E-02  0.1130116E+00
         25   -1    0    0    0    0  0.00000000000E+00  0.00000000000E+00  0.99999998245E-14  0.12500000000E+03  0.12500000000E+03 0.  0.
        -11    1    1    0    0    0  0.23430608174E+02  0.69981660713E+01  0.38512026349E+02  0.45619556131E+02  0.51100000000E-03 0. -1.
         11    1    1    0    0    0  0.86796189692E+01  0.25862428729E+01  0.14245174473E+02  0.16880445305E+02  0.51100000000E-03 0.  1.
         22    1    1    0    0    0 -0.32110227143E+02 -0.95844089442E+01 -0.52757200822E+02  0.62499998565E+02  0.00000000000E+00 0. -1.
</event>
<event>
 4    1  0.1964735E-002  0.9118800E+02  0.7818608E-02  0.1130116E+00
         25   -1    0    0    0    0  0.00000000000E+00  0.00000000000E+00  0.99999998245E-14  0.12500000000E+03  0.12500000000E+03 0.  0.
        -11    1    1    0    0    0  0.34013027135E+02  0.32962399747E+02 -0.26709912074E+02  0.54376697355E+02  0.51100000000E-03 0.  1.
         11    1    1    0    0    0  0.42567963479E+01  0.55994200641E+01 -0.41251231959E+01  0.81541683723E+01  0.51100000000E-03 0. -1.
         22    1    1    0    0    0 -0.38269823483E+02 -0.38561819811E+02  0.30835035270E+02  0.62469134272E+02  0.00000000000E+00 0.  1.
</event>
<event>
 4    1  0.1964735E-002  0.9118800E+02  0.7818608E-02  0.1130116E+00
         25   -1    0    0    0    0  0.00000000000E+00  0.00000000000E+00  0.99999998245E-14  0.12500000000E+03  0.12500000000E+03 0.  0.
        -11    1    1    0    0    0  0.33294624890E+01  0.23736203383E+01  0.30908617755E+01  0.51257019765E+01  0.51100000000E-03 0. -1.
         11    1    1    0    0    0  0.37274281137E+02  0.26490059407E+02  0.34651337200E+02  0.57374301317E+02  0.51100000000E-03 0.  1.
         22    1    1    0    0    0 -0.40603743626E+02 -0.28863679745E+02 -0.37742198975E+02  0.62499996707E+02  0.00000000000E+00 0.  1.
</event>
<event>
 4    1  0.1964735E-002  0.9118800E+02  0.7818608E-02  0.1130116E+00
         25   -1    0    0    0    0  0.00000000000E+00  0.00000000000E+00  0.99999998245E-14  0.12500000000E+03  0.12500000000E+03 0.  0.
        -11    1    1    0    0    0  0.90230525094E+01 -0.34174786837E+01 -0.11016945434E+02  0.14644716594E+02  0.51100000000E-03 0.  1.
         11    1    1    0    0    0  0.29810587030E+02 -0.11440201561E+02 -0.35645683154E+02  0.47855658376E+02  0.51100000000E-03 0. -1.
         22    1    1    0    0    0 -0.38833639540E+02  0.14857680245E+02  0.46662628588E+02  0.62499625030E+02  0.00000000000E+00 0. -1.
</event>
<event>
 4    1  0.1964735E-002  0.9118800E+02  0.7818608E-02  0.1130116E+00
         25   -1    0    0    0    0  0.00000000000E+00  0.00000000000E+00  0.99999998245E-14  0.12500000000E+03  0.12500000000E+03 0.  0.
        -11    1    1    0    0    0 -0.44480075511E-01 -0.48668997060E-01 -0.24712439008E+00  0.25576918049E+00  0.51100000000E-03 0. -1.
         11    1    1    0    0    0 -0.21848451520E+02 -0.34087548062E+01 -0.58187386293E+02  0.62247460727E+02  0.51100000000E-03 0.  1.
         22    1    1    0    0    0  0.21892931596E+02  0.34574238032E+01  0.58434510683E+02  0.62496770092E+02  0.00000000000E+00 0.  1.
</event>
<event>
 4    1  0.1964735E-002  0.9118800E+02  0.7818608E-02  0.1130116E+00
         25   -1    0    0    0    0  0.00000000000E+00  0.00000000000E+00  0.99999998245E-14  0.12500000000E+03  0.12500000000E+03 0.  0.
        -11    1    1    0    0    0  0.20737412180E+02  0.62413609982E+01  0.21033144809E+02  0.30189203896E+02  0.51100000000E-03 0.  1.
         11    1    1    0    0    0  0.21609481093E+02  0.39535693790E+01  0.23740918843E+02  0.32345503732E+02  0.51100000000E-03 0. -1.
         22    1    1    0    0    0 -0.42346893273E+02 -0.10194930377E+02 -0.44774063652E+02  0.62465292372E+02  0.00000000000E+00 0. -1.
</event>
<event>
 4    1  0.1964735E-002  0.9118800E+02  0.7818608E-02  0.1130116E+00
         25   -1    0    0    0    0  0.00000000000E+00  0.00000000000E+00  0.99999998245E-14  0.12500000000E+03  0.12500000000E+03 0.  0.
        -11    1    1    0    0    0  0.70738050340E+01 -0.67046751569E+01 -0.51181820459E+02  0.52101536756E+02  0.51100000000E-03 0. -1.
         11    1    1    0    0    0  0.14105555227E+01 -0.13383437203E+01 -0.10215048096E+02  0.10398463284E+02  0.51100000000E-03 0.  1.
         22    1    1    0    0    0 -0.84843605567E+01  0.80430188772E+01  0.61396868555E+02  0.62499999960E+02  0.00000000000E+00 0. -1.
</event>
<event>
 4    1  0.1964735E-002  0.9118800E+02  0.7818608E-02  0.1130116E+00
         25   -1    0    0    0    0  0.00000000000E+00  0.00000000000E+00  0.99999998245E-14  0.12500000000E+03  0.12500000000E+03 0.  0.
        -11    1    1    0    0    0 -0.22686900225E+02 -0.22112394831E+02  0.29676691179E+02  0.43409209237E+02  0.51100000000E-03 0.  1.
         11    1    1    0    0    0 -0.99913866957E+01 -0.97324760879E+01  0.13034936749E+02  0.19090795563E+02  0.51100000000E-03 0. -1.
         22    1    1    0    0    0  0.32678286921E+02  0.31844870919E+02 -0.42711627927E+02  0.62499995201E+02  0.00000000000E+00 0.  1.
</event>
<event>
 4    1  0.1964735E-002  0.9118800E+02  0.7818608E-02  0.1130116E+00
         25   -1    0    0    0    0  0.00000000000E+00  0.00000000000E+00  0.99999998245E-14  0.12500000000E+03  0.12500000000E+03 0.  0.
        -11    1    1    0    0    0  0.16179214322E+02  0.66215104588E+01 -0.38396103497E+01  0.17898435259E+02  0.51100000000E-03 0. -1.
         11    1    1    0    0    0  0.40183580939E+02  0.17382385289E+02 -0.85265106584E+01  0.44604583618E+02  0.51100000000E-03 0.  1.
         22    1    1    0    0    0 -0.56362795261E+02 -0.24003895748E+02  0.12366121008E+02  0.62496981123E+02  0.00000000000E+00 0.  1.
</event>
<event>
 4    1  0.1964735E-002  0.9118800E+02  0.7818608E-02  0.1130116E+00
         25   -1    0    0    0    0  0.00000000000E+00  0.00000000000E+00  0.99999998245E-14  0.12500000000E+03  0.12500000000E+03 0.  0.
        -11    1    1    0    0    0 -0.11983082577E+02 -0.55485224933E+02 -0.88553685463E+01  0.57451040080E+02  0.51100000000E-03 0. -1.
         11    1    1    0    0    0 -0.10467199398E+01 -0.48782026277E+01 -0.77429991302E+00  0.50489626782E+01  0.51100000000E-03 0.  1.
         22    1    1    0    0    0  0.13029802517E+02  0.60363427561E+02  0.96296684594E+01  0.62499997242E+02  0.00000000000E+00 0. -1.
</event>
<event>
 4    1  0.1964735E-002  0.9118800E+02  0.7818608E-02  0.1130116E+00
         25   -1    0    0    0    0  0.00000000000E+00  0.00000000000E+00  0.99999998245E-14  0.12500000000E+03  0.12500000000E+03 0.  0.
        -11    1    1    0    0    0 -0.53109721243E+01 -0.38175972562E+02 -0.87478128405E+01  0.39523860334E+02  0.51100000000E-03 0.  1.
         11    1    1    0    0    0 -0.30326504040E+01 -0.22192398686E+02 -0.51190598454E+01  0.22976168128E+02  0.51100000000E-03 0. -1.
         22    1    1    0    0    0  0.83436225283E+01  0.60368371248E+02  0.13866872686E+02  0.62499971537E+02  0.00000000000E+00 0.  1.
</event>
<event>
 4    1  0.1964735E-002  0.9118800E+02  0.7818608E-02  0.1130116E+00
         25   -1    0    0    0    0  0.00000000000E+00  0.00000000000E+00  0.99999998245E-14  0.12500000000E+03  0.12500000000E+03 0.  0.
        -11    1    1    0    0    0  0.34026574680E+01 -0.58571294733E+01 -0.30302379068E+02  0.31050253155E+02  0.51100000000E-03 0. -1.
         11    1    1    0    0    0  0.34461087587E+01 -0.59328129473E+01 -0.30692224449E+02  0.31449746850E+02  0.51100000000E-03 0. -1.
         22    1    1    0    0    0 -0.68487662267E+01  0.11789942421E+02  0.60994603518E+02  0.62499999995E+02  0.00000000000E+00 0. -1.
</event>
<event>
 4    1  0.1964735E-002  0.9118800E+02  0.7818608E-02  0.1130116E+00
         25   -1    0    0    0    0  0.00000000000E+00  0.00000000000E+00  0.99999998245E-14  0.12500000000E+03  0.12500000000E+03 0.  0.
        -11    1    1    0    0    0 -0.12896820661E+02  0.44269276424E+02 -0.16450895236E+02  0.48956396646E+02  0.51100000000E-03 0.  1.
         11    1    1    0    0    0 -0.35654267825E+01  0.12246305473E+02 -0.45546606163E+01  0.13543603636E+02  0.51100000000E-03 0. -1.
         22    1    1    0    0    0  0.16462247443E+02 -0.56515581897E+02  0.21005555852E+02  0.62499999717E+02  0.00000000000E+00 0.  1.
</event>
<event>
 4    1  0.1964735E-002  0.9118800E+02  0.7818608E-02  0.1130116E+00
         25   -1    0    0    0    0  0.00000000000E+00  0.00000000000E+00  0.99999998245E-14  0.12500000000E+03  0.12500000000E+03 0.  0.
        -11    1    1    0    0    0 -0.74772684936E+01 -0.85855523309E+00  0.52466348394E+01  0.91746301622E+01  0.51100000000E-03 0. -1.
         11    1    1    0    0    0 -0.40678257255E+02  0.26592473198E+02  0.23651966138E+02  0.54049012448E+02  0.51100000000E-03 0.  1.
         22    1    1    0    0    0  0.48155525749E+02 -0.25733917965E+02 -0.28898600977E+02  0.61776357390E+02  0.00000000000E+00 0. -1.
</event>
<event>
 4    1  0.1964735E-002  0.9118800E+02  0.7818608E-02  0.1130116E+00
         25   -1    0    0    0    0  0.00000000000E+00  0.00000000000E+00  0.99999998245E-14  0.12500000000E+03  0.12500000000E+03 0.  0.
        -11    1    1    0    0    0  0.49558390370E+02  0.36058299044E+02 -0.10790773093E+02  0.62230826527E+02  0.51100000000E-03 0. -1.
         11    1    1    0    0    0 -0.81165005470E+00 -0.14185753856E+01 -0.85546902473E+00  0.18447112103E+01  0.51100000000E-03 0.  1.
         22    1    1    0    0    0 -0.48746740316E+02 -0.34639723658E+02  0.11646242117E+02  0.60924462263E+02  0.00000000000E+00 0. -1.
</event>
<event>
 4    1  0.1964735E-002  0.9118800E+02  0.7818608E-02  0.1130116E+00
         25   -1    0    0    0    0  0.00000000000E+00  0.00000000000E+00  0.99999998245E-14  0.12500000000E+03  0.12500000000E+03 0.  0.
        -11    1    1    0    0    0 -0.79866417902E+00 -0.17132016671E+01 -0.21893108816E+00  0.19028545676E+01  0.51100000000E-03 0.  1.
         11    1    1    0    0    0 -0.25048291277E+02 -0.54785933044E+02 -0.65653830988E+01  0.60597191444E+02  0.51100000000E-03 0. -1.
         22    1    1    0    0    0  0.25846955456E+02  0.56499134712E+02  0.67843141869E+01  0.62499953988E+02  0.00000000000E+00 0. -1.
</event>
<event>
 4    1  0.1964735E-002  0.9118800E+02  0.7818608E-02  0.1130116E+00
         25   -1    0    0    0    0  0.00000000000E+00  0.00000000000E+00  0.99999998245E-14  0.12500000000E+03  0.12500000000E+03 0.  0.
        -11    1    1    0    0    0  0.71779377762E+01  0.13170965063E+02 -0.49523625139E+02  0.51745401328E+02  0.51100000000E-03 0.  1.
         11    1    1    0    0    0  0.15901732501E+01  0.27421607146E+01 -0.10277033212E+02  0.10754790014E+02  0.51100000000E-03 0. -1.
         22    1    1    0    0    0 -0.87681110263E+01 -0.15913125777E+02  0.59800658351E+02  0.62499808658E+02  0.00000000000E+00 0.  1.
</event>
<event>
 4    1  0.1964735E-002  0.9118800E+02  0.7818608E-02  0.1130116E+00
         25   -1    0    0    0    0  0.00000000000E+00  0.00000000000E+00  0.99999998245E-14  0.12500000000E+03  0.12500000000E+03 0.  0.
        -11    1    1    0    0    0  0.47966683658E+01 -0.11829296907E+02 -0.45497890073E+01  0.13551415904E+02  0.51100000000E-03 0. -1.
         11    1    1    0    0    0  0.17324813622E+02 -0.42728434226E+02 -0.16434586305E+02  0.48948584103E+02  0.51100000000E-03 0.  1.
         22    1    1    0    0    0 -0.22121481987E+02  0.54557731134E+02  0.20984375312E+02  0.62499999992E+02  0.00000000000E+00 0.  1.
</event>
<event>
 4    1  0.1964735E-002  0.9118800E+02  0.7818608E-02  0.1130116E+00
         25   -1    0    0    0    0  0.00000000000E+00  0.00000000000E+00  0.99999998245E-14  0.12500000000E+03  0.12500000000E+03 0.  0.
        -11    1    1    0    0    0 -0.23128310341E+00  0.12236010830E+01  0.19133666061E+01  0.22829068125E+01  0.51100000000E-03 0. -1.
         11    1    1    0    0    0  0.72348721562E+01  0.50103524765E+02  0.32835021079E+02  0.60339416458E+02  0.51100000000E-03 0.  1.
         22    1    1    0    0    0 -0.70035890528E+01 -0.51327125848E+02 -0.34748387685E+02  0.62377676729E+02  0.00000000000E+00 0.  1.
</event>
<event>
 4    1  0.1964735E-002  0.9118800E+02  0.7818608E-02  0.1130116E+00
         25   -1    0    0    0    0  0.00000000000E+00  0.00000000000E+00  0.99999998245E-14  0.12500000000E+03  0.12500000000E+03 0.  0.
        -11    1    1    0    0    0 -0.17000282449E+02 -0.11464263248E+02  0.61634561408E+00  0.20513868902E+02  0.51100000000E-03 0. -1.
         11    1    1    0    0    0 -0.30647654959E+02 -0.28647870467E+02  0.32810165783E+01  0.42080212770E+02  0.51100000000E-03 0.  1.
         22    1    1    0    0    0  0.47647937407E+02  0.40112133714E+02 -0.38973621924E+01  0.62405918328E+02  0.00000000000E+00 0.  1.
</event>
<event>
 4    1  0.1964735E-002  0.9118800E+02  0.7818608E-02  0.1130116E+00
         25   -1    0    0    0    0  0.00000000000E+00  0.00000000000E+00  0.99999998245E-14  0.12500000000E+03  0.12500000000E+03 0.  0.
        -11    1    1    0    0    0 -0.41722844828E+01  0.19831764152E+01 -0.29656283579E+01  0.54896173197E+01  0.51100000000E-03 0. -1.
         11    1    1    0    0    0 -0.43334262895E+02  0.20666114364E+02 -0.30744714300E+02  0.57010385731E+02  0.51100000000E-03 0.  1.
         22    1    1    0    0    0  0.47506547378E+02 -0.22649290779E+02  0.33710342658E+02  0.62499996949E+02  0.00000000000E+00 0.  1.
</event>
<event>
 4    1  0.1964735E-002  0.9118800E+02  0.7818608E-02  0.1130116E+00
         25   -1    0    0    0    0  0.00000000000E+00  0.00000000000E+00  0.99999998245E-14  0.12500000000E+03  0.12500000000E+03 0.  0.
        -11    1    1    0    0    0 -0.62968998190E+01 -0.19787496979E+01 -0.20241971512E+01  0.69038954269E+01  0.51100000000E-03 0.  1.
         11    1    1    0    0    0 -0.35433843565E+02 -0.43636341929E+02 -0.64201318859E+00  0.56214764857E+02  0.51100000000E-03 0. -1.
         22    1    1    0    0    0  0.41730743384E+02  0.45615091627E+02  0.26662103397E+01  0.61881339716E+02  0.00000000000E+00 0. -1.
</event>
<event>
 4    1  0.1964735E-002  0.9118800E+02  0.7818608E-02  0.1130116E+00
         25   -1    0    0    0    0  0.00000000000E+00  0.00000000000E+00  0.99999998245E-14  0.12500000000E+03  0.12500000000E+03 0.  0.
        -11    1    1    0    0    0  0.29799673829E+01 -0.72360625522E+01 -0.95656978000E+00  0.78838970609E+01  0.51100000000E-03 0.  1.
         11    1    1    0    0    0 -0.45910924654E+01 -0.54371734526E+02 -0.68550686197E+01  0.54994141610E+02  0.51100000000E-03 0. -1.
         22    1    1    0    0    0  0.16111250825E+01  0.61607797078E+02  0.78116383997E+01  0.62121961329E+02  0.00000000000E+00 0. -1.
</event>
<event>
 4    1  0.1964735E-002  0.9118800E+02  0.7818608E-02  0.1130116E+00
         25   -1    0    0    0    0  0.00000000000E+00  0.00000000000E+00  0.99999998245E-14  0.12500000000E+03  0.12500000000E+03 0.  0.
        -11    1    1    0    0    0 -0.13707298322E+02  0.50097318360E+01  0.23770567062E+02  0.27893140717E+02  0.51100000000E-03 0. -1.
         11    1    1    0    0    0 -0.17105754483E+02  0.59022735398E+01  0.29499409267E+02  0.34607207583E+02  0.51100000000E-03 0.  1.
         22    1    1    0    0    0  0.30813052804E+02 -0.10912005376E+02 -0.53269976329E+02  0.62499651699E+02  0.00000000000E+00 0.  1.
</event>
<event>
 4    1  0.1964735E-002  0.9118800E+02  0.7818608E-02  0.1130116E+00
         25   -1    0    0    0    0  0.00000000000E+00  0.00000000000E+00  0.99999998245E-14  0.12500000000E+03  0.12500000000E+03 0.  0.
        -11    1    1    0    0    0 -0.52486748824E+01 -0.11956691178E+02  0.81417297867E+01  0.15388268783E+02  0.51100000000E-03 0. -1.
         11    1    1    0    0    0 -0.14801317183E+02 -0.36018241804E+02  0.26526935353E+02  0.47117629742E+02  0.51100000000E-03 0.  1.
         22    1    1    0    0    0  0.20049992066E+02  0.47974932983E+02 -0.34668665140E+02  0.62494101475E+02  0.00000000000E+00 0. -1.
</event>
<event>
 4    1  0.1964735E-002  0.9118800E+02  0.7818608E-02  0.1130116E+00
         25   -1    0    0    0    0  0.00000000000E+00  0.00000000000E+00  0.99999998245E-14  0.12500000000E+03  0.12500000000E+03 0.  0.
        -11    1    1    0    0    0  0.30115589430E+02  0.29681432077E+01  0.16102731143E+02  0.34279097878E+02  0.51100000000E-03 0.  1.
         11    1    1    0    0    0  0.29149611479E+02 -0.60731917724E+01 -0.28415333402E+01  0.29910831143E+02  0.51100000000E-03 0. -1.
         22    1    1    0    0    0 -0.59265200909E+02  0.31050485647E+01 -0.13261197803E+02  0.60810070979E+02  0.00000000000E+00 0. -1.
</event>
<event>
 4    1  0.1964735E-002  0.9118800E+02  0.7818608E-02  0.1130116E+00
         25   -1    0    0    0    0  0.00000000000E+00  0.00000000000E+00  0.99999998245E-14  0.12500000000E+03  0.12500000000E+03 0.  0.
        -11    1    1    0    0    0 -0.44271936744E+01 -0.34510662265E+01  0.12325405337E+01  0.57470912955E+01  0.51100000000E-03 0.  1.
         11    1    1    0    0    0 -0.43704936424E+02 -0.34068536594E+02  0.12251787846E+02  0.56752911460E+02  0.51100000000E-03 0. -1.
         22    1    1    0    0    0  0.48132130099E+02  0.37519602821E+02 -0.13484328380E+02  0.62499997244E+02  0.00000000000E+00 0. -1.
</event>
<event>
 4    1  0.1964735E-002  0.9118800E+02  0.7818608E-02  0.1130116E+00
         25   -1    0    0    0    0  0.00000000000E+00  0.00000000000E+00  0.99999998245E-14  0.12500000000E+03  0.12500000000E+03 0.  0.
        -11    1    1    0    0    0 -0.38583316407E+02  0.27046099215E+02  0.18366169236E+02  0.50571533103E+02  0.51100000000E-03 0. -1.
         11    1    1    0    0    0 -0.90622842216E+01  0.63789897090E+01  0.44130566649E+01  0.11928603204E+02  0.51100000000E-03 0.  1.
         22    1    1    0    0    0  0.47645600629E+02 -0.33425088924E+02 -0.22779225901E+02  0.62499863692E+02  0.00000000000E+00 0. -1.
</event>
<event>
 4    1  0.1964735E-002  0.9118800E+02  0.7818608E-02  0.1130116E+00
         25   -1    0    0    0    0  0.00000000000E+00  0.00000000000E+00  0.99999998245E-14  0.12500000000E+03  0.12500000000E+03 0.  0.
        -11    1    1    0    0    0 -0.30450039285E+01  0.10180562811E+02  0.35969106749E+01  0.11218452422E+02  0.51100000000E-03 0. -1.
         11    1    1    0    0    0 -0.14121100372E+02  0.46498677989E+02  0.16378911441E+02  0.51281588028E+02  0.51100000000E-03 0.  1.
         22    1    1    0    0    0  0.17166104301E+02 -0.56679240800E+02 -0.19975822116E+02  0.62499959550E+02  0.00000000000E+00 0.  1.
</event>
<event>
 4    1  0.1964735E-002  0.9118800E+02  0.7818608E-02  0.1130116E+00
         25   -1    0    0    0    0  0.00000000000E+00  0.00000000000E+00  0.99999998245E-14  0.12500000000E+03  0.12500000000E+03 0.  0.
        -11    1    1    0    0    0 -0.16515226501E+02  0.55991526382E+01  0.94351386216E+01  0.19827381514E+02  0.51100000000E-03 0. -1.
         11    1    1    0    0    0 -0.35461672751E+02  0.11997693171E+02  0.20481305373E+02  0.42672693209E+02  0.51100000000E-03 0.  1.
         22    1    1    0    0    0  0.51976899252E+02 -0.17596845809E+02 -0.29916443994E+02  0.62499925276E+02  0.00000000000E+00 0.  1.
</event>
<event>
 4    1  0.1964735E-002  0.9118800E+02  0.7818608E-02  0.1130116E+00
         25   -1    0    0    0    0  0.00000000000E+00  0.00000000000E+00  0.99999998245E-14  0.12500000000E+03  0.12500000000E+03 0.  0.
        -11    1    1    0    0    0  0.16313653159E+02  0.99830560795E+00 -0.10067741242E+02  0.19196127408E+02  0.51100000000E-03 0.  1.
         11    1    1    0    0    0  0.36929122251E+02  0.31662175870E+01 -0.22396126805E+02  0.43305559691E+02  0.51100000000E-03 0. -1.
         22    1    1    0    0    0 -0.53242775410E+02 -0.41645231950E+01  0.32463868047E+02  0.62498312901E+02  0.00000000000E+00 0. -1.
</event>
<event>
 4    1  0.1964735E-002  0.9118800E+02  0.7818608E-02  0.1130116E+00
         25   -1    0    0    0    0  0.00000000000E+00  0.00000000000E+00  0.99999998245E-14  0.12500000000E+03  0.12500000000E+03 0.  0.
        -11    1    1    0    0    0  0.12708652065E+02 -0.62117011727E+01 -0.15019959913E+02  0.20632359652E+02  0.51100000000E-03 0. -1.
         11    1    1    0    0    0  0.24321066838E+02 -0.12003846812E+02 -0.31906809150E+02  0.41876617591E+02  0.51100000000E-03 0.  1.
         22    1    1    0    0    0 -0.37029718903E+02  0.18215547985E+02  0.46926769064E+02  0.62491022757E+02  0.00000000000E+00 0.  1.
</event>
<event>
 4    1  0.1964735E-002  0.9118800E+02  0.7818608E-02  0.1130116E+00
         25   -1    0    0    0    0  0.00000000000E+00  0.00000000000E+00  0.99999998245E-14  0.12500000000E+03  0.12500000000E+03 0.  0.
        -11    1    1    0    0    0 -0.32140523613E+01 -0.30344987026E+01  0.52433745526E+01  0.68579364183E+01  0.51100000000E-03 0. -1.
         11    1    1    0    0    0 -0.56088362421E+02 -0.94099540644E+01  0.32018922442E+01  0.56962301119E+02  0.51100000000E-03 0.  1.
         22    1    1    0    0    0  0.59302414782E+02  0.12444452767E+02 -0.84452667968E+01  0.61179762463E+02  0.00000000000E+00 0.  1.
</event>
<event>
 4    1  0.1964735E-002  0.9118800E+02  0.7818608E-02  0.1130116E+00
         25   -1    0    0    0    0  0.00000000000E+00  0.00000000000E+00  0.99999998245E-14  0.12500000000E+03  0.12500000000E+03 0.  0.
        -11    1    1    0    0    0 -0.12565425470E+02 -0.52075379300E+00 -0.45241265062E+02  0.46956715882E+02  0.51100000000E-03 0. -1.
         11    1    1    0    0    0 -0.45267804381E+01 -0.14417767513E+00 -0.14870652389E+02  0.15545058092E+02  0.51100000000E-03 0.  1.
         22    1    1    0    0    0  0.17092205908E+02  0.66493146813E+00  0.60111917451E+02  0.62498226026E+02  0.00000000000E+00 0. -1.
</event>
<event>
 4    1  0.1964735E-002  0.9118800E+02  0.7818608E-02  0.1130116E+00
         25   -1    0    0    0    0  0.00000000000E+00  0.00000000000E+00  0.99999998245E-14  0.12500000000E+03  0.12500000000E+03 0.  0.
        -11    1    1    0    0    0  0.95917119970E+01 -0.19146769188E+02  0.47436613516E+02  0.52046440911E+02  0.51100000000E-03 0.  1.
         11    1    1    0    0    0  0.19197386001E+01 -0.38644494499E+01  0.95214344632E+01  0.10453567828E+02  0.51100000000E-03 0. -1.
         22    1    1    0    0    0 -0.11511450597E+02  0.23011218638E+02 -0.56958047979E+02  0.62499991261E+02  0.00000000000E+00 0.  1.
</event>
<event>
 4    1  0.1964735E-002  0.9118800E+02  0.7818608E-02  0.1130116E+00
         25   -1    0    0    0    0  0.00000000000E+00  0.00000000000E+00  0.99999998245E-14  0.12500000000E+03  0.12500000000E+03 0.  0.
        -11    1    1    0    0    0  0.43239048056E+01  0.92915948000E+01  0.21334698830E+01  0.10468122119E+02  0.51100000000E-03 0.  1.
         11    1    1    0    0    0  0.21492416422E+02  0.46183749709E+02  0.10604414906E+02  0.52031877889E+02  0.51100000000E-03 0.  1.
         22    1    1    0    0    0 -0.25816321227E+02 -0.55475344509E+02 -0.12737884789E+02  0.62499999992E+02  0.00000000000E+00 0.  1.
</event>
<event>
 4    1  0.1964735E-002  0.9118800E+02  0.7818608E-02  0.1130116E+00
         25   -1    0    0    0    0  0.00000000000E+00  0.00000000000E+00  0.99999998245E-14  0.12500000000E+03  0.12500000000E+03 0.  0.
        -11    1    1    0    0    0 -0.23099465091E+02  0.30261152218E+02 -0.45794215063E+01  0.38344409275E+02  0.51100000000E-03 0.  1.
         11    1    1    0    0    0 -0.14181419431E+02  0.19524054659E+02 -0.14040108152E+01  0.24171731714E+02  0.51100000000E-03 0. -1.
         22    1    1    0    0    0  0.37280884522E+02 -0.49785206877E+02  0.59834323215E+01  0.62483859011E+02  0.00000000000E+00 0.  1.
</event>
<event>
 4    1  0.1964735E-002  0.9118800E+02  0.7818608E-02  0.1130116E+00
         25   -1    0    0    0    0  0.00000000000E+00  0.00000000000E+00  0.99999998245E-14  0.12500000000E+03  0.12500000000E+03 0.  0.
        -11    1    1    0    0    0  0.11483143933E+01  0.56330723198E+02 -0.13013919408E+02  0.57825868783E+02  0.51100000000E-03 0.  1.
         11    1    1    0    0    0  0.89694617555E-01  0.45511544661E+01 -0.10613661982E+01  0.46741363444E+01  0.51100000000E-03 0. -1.
         22    1    1    0    0    0 -0.12380090108E+01 -0.60881877664E+02  0.14075285606E+02  0.62499994872E+02  0.00000000000E+00 0.  1.
</event>
<event>
 4    1  0.1964735E-002  0.9118800E+02  0.7818608E-02  0.1130116E+00
         25   -1    0    0    0    0  0.00000000000E+00  0.00000000000E+00  0.99999998245E-14  0.12500000000E+03  0.12500000000E+03 0.  0.
        -11    1    1    0    0    0  0.75904264592E+01  0.16552198476E+02  0.39789272443E+02  0.43758154098E+02  0.51100000000E-03 0. -1.
         11    1    1    0    0    0  0.32850807256E+01  0.70550898889E+01  0.17049679703E+02  0.18741868289E+02  0.51100000000E-03 0.  1.
         22    1    1    0    0    0 -0.10875507185E+02 -0.23607288365E+02 -0.56838952147E+02  0.62499977613E+02  0.00000000000E+00 0. -1.
</event>
<event>
 4    1  0.1964735E-002  0.9118800E+02  0.7818608E-02  0.1130116E+00
         25   -1    0    0    0    0  0.00000000000E+00  0.00000000000E+00  0.99999998245E-14  0.12500000000E+03  0.12500000000E+03 0.  0.
        -11    1    1    0    0    0 -0.92796399122E+01 -0.12437699111E+02 -0.31856404757E-01  0.15518024719E+02  0.51100000000E-03 0. -1.
         11    1    1    0    0    0 -0.28246455916E+02 -0.37542071858E+02 -0.20624054676E+00  0.46982038766E+02  0.51100000000E-03 0.  1.
         22    1    1    0    0    0  0.37526095829E+02  0.49979770969E+02  0.23809695152E+00  0.62499936515E+02  0.00000000000E+00 0.  1.
</event>
<event>
 4    1  0.1964735E-002  0.9118800E+02  0.7818608E-02  0.1130116E+00
         25   -1    0    0    0    0  0.00000000000E+00  0.00000000000E+00  0.99999998245E-14  0.12500000000E+03  0.12500000000E+03 0.  0.
        -11    1    1    0    0    0  0.29925942571E+02  0.35103978913E+02 -0.37242903959E+01  0.46278739325E+02  0.51100000000E-03 0.  1.
         11    1    1    0    0    0  0.10689898046E+02  0.12047688822E+02 -0.19788305206E+01  0.16227646061E+02  0.51100000000E-03 0. -1.
         22    1    1    0    0    0 -0.40615840617E+02 -0.47151667736E+02  0.57031209165E+01  0.62493614614E+02  0.00000000000E+00 0.  1.
</event>
<event>
 4    1  0.1964735E-002  0.9118800E+02  0.7818608E-02  0.1130116E+00
         25   -1    0    0    0    0  0.00000000000E+00  0.00000000000E+00  0.99999998245E-14  0.12500000000E+03  0.12500000000E+03 0.  0.
        -11    1    1    0    0    0 -0.18505113997E+02  0.14725873499E+02  0.14412297738E+02  0.27694853686E+02  0.51100000000E-03 0. -1.
         11    1    1    0    0    0 -0.23242165322E+02  0.18523803769E+02  0.18112668598E+02  0.34805147880E+02  0.51100000000E-03 0.  1.
         22    1    1    0    0    0  0.41747279320E+02 -0.33249677269E+02 -0.32524966336E+02  0.62499998434E+02  0.00000000000E+00 0. -1.
</event>
<event>
 4    1  0.1964735E-002  0.9118800E+02  0.7818608E-02  0.1130116E+00
         25   -1    0    0    0    0  0.00000000000E+00  0.00000000000E+00  0.99999998245E-14  0.12500000000E+03  0.12500000000E+03 0.  0.
        -11    1    1    0    0    0  0.69796775195E+01 -0.31574306687E+02  0.22709683038E+02  0.39514332146E+02  0.51100000000E-03 0.  1.
         11    1    1    0    0    0  0.40610663641E+01 -0.18368439166E+02  0.13207918537E+02  0.22985667920E+02  0.51100000000E-03 0. -1.
         22    1    1    0    0    0 -0.11040743884E+02  0.49942745852E+02 -0.35917601575E+02  0.62499999933E+02  0.00000000000E+00 0.  1.
</event>
<event>
 4    1  0.1964735E-002  0.9118800E+02  0.7818608E-02  0.1130116E+00
         25   -1    0    0    0    0  0.00000000000E+00  0.00000000000E+00  0.99999998245E-14  0.12500000000E+03  0.12500000000E+03 0.  0.
        -11    1    1    0    0    0 -0.32453886170E+02  0.14419553904E+02 -0.24582197611E+02  0.43191002558E+02  0.51100000000E-03 0.  1.
         11    1    1    0    0    0 -0.14518745531E+02  0.64409249562E+01 -0.10979889515E+02  0.19308999459E+02  0.51100000000E-03 0. -1.
         22    1    1    0    0    0  0.46972631701E+02 -0.20860478860E+02  0.35562087126E+02  0.62499997983E+02  0.00000000000E+00 0.  1.
</event>
<event>
 4    1  0.1964735E-002  0.9118800E+02  0.7818608E-02  0.1130116E+00
         25   -1    0    0    0    0  0.00000000000E+00  0.00000000000E+00  0.99999998245E-14  0.12500000000E+03  0.12500000000E+03 0.  0.
        -11    1    1    0    0    0 -0.48669462428E+01 -0.83011473529E+00 -0.11509875256E+02  0.12524116132E+02  0.51100000000E-03 0. -1.
         11    1    1    0    0    0 -0.19646233087E+02 -0.37512726004E+01 -0.45799219490E+02  0.49976144577E+02  0.51100000000E-03 0.  1.
         22    1    1    0    0    0  0.24513179330E+02  0.45813873357E+01  0.57309094746E+02  0.62499739291E+02  0.00000000000E+00 0.  1.
</event>
<event>
 4    1  0.1964735E-002  0.9118800E+02  0.7818608E-02  0.1130116E+00
         25   -1    0    0    0    0  0.00000000000E+00  0.00000000000E+00  0.99999998245E-14  0.12500000000E+03  0.12500000000E+03 0.  0.
        -11    1    1    0    0    0  0.46845383904E+01 -0.36070699738E+02 -0.98815080031E+01  0.37691968378E+02  0.51100000000E-03 0. -1.
         11    1    1    0    0    0  0.31229168319E+01 -0.23610472082E+02 -0.69496020840E+01  0.24809352488E+02  0.51100000000E-03 0.  1.
         22    1    1    0    0    0 -0.78074552223E+01  0.59681171820E+02  0.16831110087E+02  0.62498679135E+02  0.00000000000E+00 0. -1.
</event>
<event>
 4    1  0.1964735E-002  0.9118800E+02  0.7818608E-02  0.1130116E+00
         25   -1    0    0    0    0  0.00000000000E+00  0.00000000000E+00  0.99999998245E-14  0.12500000000E+03  0.12500000000E+03 0.  0.
        -11    1    1    0    0    0  0.67986880708E+01 -0.10162329455E+02 -0.16849401375E+02  0.20818199403E+02  0.51100000000E-03 0. -1.
         11    1    1    0    0    0 -0.39822156487E+02 -0.14719146071E+02 -0.21675104736E+02  0.47668307857E+02  0.51100000000E-03 0.  1.
         22    1    1    0    0    0  0.33023468416E+02  0.24881475526E+02  0.38524506111E+02  0.56513492740E+02  0.00000000000E+00 0.  1.
</event>
<event>
 4    1  0.1964735E-002  0.9118800E+02  0.7818608E-02  0.1130116E+00
         25   -1    0    0    0    0  0.00000000000E+00  0.00000000000E+00  0.99999998245E-14  0.12500000000E+03  0.12500000000E+03 0.  0.
        -11    1    1    0    0    0  0.77339929991E+00 -0.21794059062E+01 -0.96170252832E+01  0.98911643470E+01  0.51100000000E-03 0.  1.
         11    1    1    0    0    0  0.65996652485E+01 -0.10464277440E+02 -0.51139247375E+02  0.52614440091E+02  0.51100000000E-03 0. -1.
         22    1    1    0    0    0 -0.73730645484E+01  0.12643683346E+02  0.60756272658E+02  0.62494395562E+02  0.00000000000E+00 0. -1.
</event>
<event>
 4    1  0.1964735E-002  0.9118800E+02  0.7818608E-02  0.1130116E+00
         25   -1    0    0    0    0  0.00000000000E+00  0.00000000000E+00  0.99999998245E-14  0.12500000000E+03  0.12500000000E+03 0.  0.
        -11    1    1    0    0    0 -0.56184460078E+02  0.43983951664E+01  0.25471605708E+02  0.61845308083E+02  0.51100000000E-03 0.  1.
         11    1    1    0    0    0 -0.59910351037E+00  0.78407821699E-01  0.25335934438E+00  0.65518243348E+00  0.51100000000E-03 0. -1.
         22    1    1    0    0    0  0.56783563588E+02 -0.44768029881E+01 -0.25724965052E+02  0.62499509484E+02  0.00000000000E+00 0.  1.
</event>
<event>
 4    1  0.1964735E-002  0.9118800E+02  0.7818608E-02  0.1130116E+00
         25   -1    0    0    0    0  0.00000000000E+00  0.00000000000E+00  0.99999998245E-14  0.12500000000E+03  0.12500000000E+03 0.  0.
        -11    1    1    0    0    0  0.80281344972E+01  0.49784069973E+02 -0.13780588192E+01  0.50446046554E+02  0.51100000000E-03 0. -1.
         11    1    1    0    0    0  0.19169583068E+01  0.11896707630E+02 -0.30281323430E+00  0.12053965227E+02  0.51100000000E-03 0.  1.
         22    1    1    0    0    0 -0.99450928040E+01 -0.61680777602E+02  0.16808720535E+01  0.62499988219E+02  0.00000000000E+00 0. -1.
</event>
<event>
 4    1  0.1964735E-002  0.9118800E+02  0.7818608E-02  0.1130116E+00
         25   -1    0    0    0    0  0.00000000000E+00  0.00000000000E+00  0.99999998245E-14  0.12500000000E+03  0.12500000000E+03 0.  0.
        -11    1    1    0    0    0  0.34515979468E+02 -0.46398295329E+01  0.26582987819E+02  0.43812510751E+02  0.51100000000E-03 0. -1.
         11    1    1    0    0    0  0.16176664549E+02 -0.27413796950E+01  0.90958280044E+01  0.18759896746E+02  0.51100000000E-03 0.  1.
         22    1    1    0    0    0 -0.50692644017E+02  0.73812092279E+01 -0.35678815823E+02  0.62427592502E+02  0.00000000000E+00 0. -1.
</event>
<event>
 4    1  0.1964735E-002  0.9118800E+02  0.7818608E-02  0.1130116E+00
         25   -1    0    0    0    0  0.00000000000E+00  0.00000000000E+00  0.99999998245E-14  0.12500000000E+03  0.12500000000E+03 0.  0.
        -11    1    1    0    0    0  0.36427150455E+01  0.17421358307E+02  0.72191816685E+01  0.19206501045E+02  0.51100000000E-03 0.  1.
         11    1    1    0    0    0  0.82065288201E+01  0.39269575121E+02  0.16275147017E+02  0.43293499006E+02  0.51100000000E-03 0.  1.
         22    1    1    0    0    0 -0.11849243866E+02 -0.56690933429E+02 -0.23494328685E+02  0.62499999949E+02  0.00000000000E+00 0.  1.
</event>
<event>
 4    1  0.1964735E-002  0.9118800E+02  0.7818608E-02  0.1130116E+00
         25   -1    0    0    0    0  0.00000000000E+00  0.00000000000E+00  0.99999998245E-14  0.12500000000E+03  0.12500000000E+03 0.  0.
        -11    1    1    0    0    0  0.10656754138E+00 -0.26959587025E+00  0.84380662883E+00  0.89221547964E+00  0.51100000000E-03 0. -1.
         11    1    1    0    0    0  0.75868319798E+01 -0.18701623695E+02  0.58208322617E+02  0.61607788229E+02  0.51100000000E-03 0.  1.
         22    1    1    0    0    0 -0.76933995212E+01  0.18971219565E+02 -0.59052129246E+02  0.62499996292E+02  0.00000000000E+00 0.  1.
</event>
<event>
 4    1  0.1964735E-002  0.9118800E+02  0.7818608E-02  0.1130116E+00
         25   -1    0    0    0    0  0.00000000000E+00  0.00000000000E+00  0.99999998245E-14  0.12500000000E+03  0.12500000000E+03 0.  0.
        -11    1    1    0    0    0  0.36293019619E+02  0.26435447441E+02 -0.61548705581E+01  0.45319957925E+02  0.51100000000E-03 0.  1.
         11    1    1    0    0    0  0.13758026498E+02  0.10021020305E+02 -0.23344603517E+01  0.17180042098E+02  0.51100000000E-03 0. -1.
         22    1    1    0    0    0 -0.50051046117E+02 -0.36456467746E+02  0.84893309098E+01  0.62499999978E+02  0.00000000000E+00 0.  1.
</event>
<event>
 4    1  0.1964735E-002  0.9118800E+02  0.7818608E-02  0.1130116E+00
         25   -1    0    0    0    0  0.00000000000E+00  0.00000000000E+00  0.99999998245E-14  0.12500000000E+03  0.12500000000E+03 0.  0.
        -11    1    1    0    0    0 -0.70572038472E+01  0.31272943458E+02 -0.54065591186E+00  0.32063896016E+02  0.51100000000E-03 0.  1.
         11    1    1    0    0    0 -0.61744963769E+01  0.29798704036E+02 -0.58694170697E+00  0.30437340037E+02  0.51100000000E-03 0. -1.
         22    1    1    0    0    0  0.13231700224E+02 -0.61071647494E+02  0.11275976188E+01  0.62498763946E+02  0.00000000000E+00 0. -1.
</event>
<event>
 4    1  0.1964735E-002  0.9118800E+02  0.7818608E-02  0.1130116E+00
         25   -1    0    0    0    0  0.00000000000E+00  0.00000000000E+00  0.99999998245E-14  0.12500000000E+03  0.12500000000E+03 0.  0.
        -11    1    1    0    0    0  0.21698807016E+02 -0.39740426404E+02  0.35780544997E+02  0.57709506299E+02  0.51100000000E-03 0. -1.
         11    1    1    0    0    0  0.21044835018E+01 -0.33252668620E+01  0.27439055953E+01  0.47974231301E+01  0.51100000000E-03 0.  1.
         22    1    1    0    0    0 -0.23803290518E+02  0.43065693266E+02 -0.38524450593E+02  0.62493070571E+02  0.00000000000E+00 0. -1.
</event>
<event>
 4    1  0.1964735E-002  0.9118800E+02  0.7818608E-02  0.1130116E+00
         25   -1    0    0    0    0  0.00000000000E+00  0.00000000000E+00  0.99999998245E-14  0.12500000000E+03  0.12500000000E+03 0.  0.
        -11    1    1    0    0    0  0.13033414059E+01 -0.49078091851E+01 -0.52705930757E+01  0.73187732202E+01  0.51100000000E-03 0. -1.
         11    1    1    0    0    0  0.98345359101E+01 -0.37027542746E+02 -0.39714113919E+02  0.55181227451E+02  0.51100000000E-03 0.  1.
         22    1    1    0    0    0 -0.11137877316E+02  0.41935351931E+02  0.44984706995E+02  0.62499999329E+02  0.00000000000E+00 0.  1.
</event>
<event>
 4    1  0.1964735E-002  0.9118800E+02  0.7818608E-02  0.1130116E+00
         25   -1    0    0    0    0  0.00000000000E+00  0.00000000000E+00  0.99999998245E-14  0.12500000000E+03  0.12500000000E+03 0.  0.
        -11    1    1    0    0    0  0.20065896476E+01 -0.22913577332E+02 -0.34740166731E+02  0.41664584637E+02  0.51100000000E-03 0.  1.
         11    1    1    0    0    0  0.25744991236E+02 -0.66877820947E+01 -0.43973185907E+01  0.26960478745E+02  0.51100000000E-03 0. -1.
         22    1    1    0    0    0 -0.27751580884E+02  0.29601359427E+02  0.39137485322E+02  0.56374936619E+02  0.00000000000E+00 0.  1.
</event>
<event>
 4    1  0.1964735E-002  0.9118800E+02  0.7818608E-02  0.1130116E+00
         25   -1    0    0    0    0  0.00000000000E+00  0.00000000000E+00  0.99999998245E-14  0.12500000000E+03  0.12500000000E+03 0.  0.
        -11    1    1    0    0    0 -0.23666983417E+01 -0.30133101356E+01  0.13328402711E+01  0.40568167894E+01  0.51100000000E-03 0. -1.
         11    1    1    0    0    0 -0.34090823430E+02 -0.43411100636E+02  0.19206711498E+02  0.58443183242E+02  0.51100000000E-03 0.  1.
         22    1    1    0    0    0  0.36457521772E+02  0.46424410772E+02 -0.20539551769E+02  0.62499999969E+02  0.00000000000E+00 0.  1.
</event>
<event>
 4    1  0.1964735E-002  0.9118800E+02  0.7818608E-02  0.1130116E+00
         25   -1    0    0    0    0  0.00000000000E+00  0.00000000000E+00  0.99999998245E-14  0.12500000000E+03  0.12500000000E+03 0.  0.
        -11    1    1    0    0    0 -0.43313214009E+02 -0.17379857408E+02 -0.27557562604E+02  0.54198830322E+02  0.51100000000E-03 0.  1.
         11    1    1    0    0    0 -0.66338055262E+01 -0.26613904882E+01 -0.42212608387E+01  0.83011697018E+01  0.51100000000E-03 0. -1.
         22    1    1    0    0    0  0.49947019535E+02  0.20041247896E+02  0.31778823443E+02  0.62499999977E+02  0.00000000000E+00 0.  1.
</event>
<event>
 4    1  0.1964735E-002  0.9118800E+02  0.7818608E-02  0.1130116E+00
         25   -1    0    0    0    0  0.00000000000E+00  0.00000000000E+00  0.99999998245E-14  0.12500000000E+03  0.12500000000E+03 0.  0.
        -11    1    1    0    0    0  0.11307421731E+02 -0.38673606408E+02  0.84954357908E+01  0.41178611539E+02  0.51100000000E-03 0.  1.
         11    1    1    0    0    0  0.61708633753E+01 -0.20000883538E+02  0.40688651798E+01  0.21323005445E+02  0.51100000000E-03 0. -1.
         22    1    1    0    0    0 -0.17478285107E+02  0.58674489946E+02 -0.12564300971E+02  0.62498383015E+02  0.00000000000E+00 0.  1.
</event>
<event>
 4    1  0.1964735E-002  0.9118800E+02  0.7818608E-02  0.1130116E+00
         25   -1    0    0    0    0  0.00000000000E+00  0.00000000000E+00  0.99999998245E-14  0.12500000000E+03  0.12500000000E+03 0.  0.
        -11    1    1    0    0    0 -0.24556056265E+01  0.19386243500E+02 -0.11049422848E+02  0.22448745657E+02  0.51100000000E-03 0.  1.
         11    1    1    0    0    0 -0.43802993974E+01  0.34586491032E+02 -0.19715237523E+02  0.40051254357E+02  0.51100000000E-03 0. -1.
         22    1    1    0    0    0  0.68359050238E+01 -0.53972734533E+02  0.30764660371E+02  0.62499999985E+02  0.00000000000E+00 0. -1.
</event>
<event>
 4    1  0.1964735E-002  0.9118800E+02  0.7818608E-02  0.1130116E+00
         25   -1    0    0    0    0  0.00000000000E+00  0.00000000000E+00  0.99999998245E-14  0.12500000000E+03  0.12500000000E+03 0.  0.
        -11    1    1    0    0    0  0.10056293238E+02 -0.38651932272E+02 -0.10890956336E+02  0.41397026853E+02  0.51100000000E-03 0. -1.
         11    1    1    0    0    0  0.18473566536E+01 -0.19808325926E+02 -0.73628589056E+01  0.21213066589E+02  0.51100000000E-03 0.  1.
         22    1    1    0    0    0 -0.11903649892E+02  0.58460258199E+02  0.18253815242E+02  0.62389906558E+02  0.00000000000E+00 0. -1.
</event>
<event>
 4    1  0.1964735E-002  0.9118800E+02  0.7818608E-02  0.1130116E+00
         25   -1    0    0    0    0  0.00000000000E+00  0.00000000000E+00  0.99999998245E-14  0.12500000000E+03  0.12500000000E+03 0.  0.
        -11    1    1    0    0    0 -0.65844110528E-01  0.62017387990E+00 -0.53272212974E+00  0.82020986146E+00  0.51100000000E-03 0.  1.
         11    1    1    0    0    0  0.61709261873E+02 -0.70913006172E+01  0.25106732918E+01  0.62166092253E+02  0.51100000000E-03 0. -1.
         22    1    1    0    0    0 -0.61643417762E+02  0.64711267373E+01 -0.19779511620E+01  0.62013697886E+02  0.00000000000E+00 0. -1.
</event>
<event>
 4    1  0.1964735E-002  0.9118800E+02  0.7818608E-02  0.1130116E+00
         25   -1    0    0    0    0  0.00000000000E+00  0.00000000000E+00  0.99999998245E-14  0.12500000000E+03  0.12500000000E+03 0.  0.
        -11    1    1    0    0    0  0.48724217213E+01  0.10003699859E+02 -0.20137532265E+02  0.23007275160E+02  0.51100000000E-03 0.  1.
         11    1    1    0    0    0  0.83601375883E+01  0.17171400155E+02 -0.34567707967E+02  0.39492724876E+02  0.51100000000E-03 0. -1.
         22    1    1    0    0    0 -0.13232559310E+02 -0.27175100015E+02  0.54705240232E+02  0.62499999964E+02  0.00000000000E+00 0. -1.
</event>
<event>
 4    1  0.1964735E-002  0.9118800E+02  0.7818608E-02  0.1130116E+00
         25   -1    0    0    0    0  0.00000000000E+00  0.00000000000E+00  0.99999998245E-14  0.12500000000E+03  0.12500000000E+03 0.  0.
        -11    1    1    0    0    0 -0.20454608168E+02 -0.28685494925E+02  0.12904083263E+02  0.37520180964E+02  0.51100000000E-03 0. -1.
         11    1    1    0    0    0 -0.23392205552E+02 -0.98284447805E+01  0.61141693654E+01  0.26099361576E+02  0.51100000000E-03 0.  1.
         22    1    1    0    0    0  0.43846813720E+02  0.38513939705E+02 -0.19018252629E+02  0.61380457461E+02  0.00000000000E+00 0. -1.
</event>
<event>
 4    1  0.1964735E-002  0.9118800E+02  0.7818608E-02  0.1130116E+00
         25   -1    0    0    0    0  0.00000000000E+00  0.00000000000E+00  0.99999998245E-14  0.12500000000E+03  0.12500000000E+03 0.  0.
        -11    1    1    0    0    0 -0.52414022777E+02  0.21683347431E+02  0.64391374391E+01  0.57086424224E+02  0.51100000000E-03 0. -1.
         11    1    1    0    0    0 -0.49728386671E+01  0.20528775742E+01  0.60283276442E+00  0.54135790699E+01  0.51100000000E-03 0.  1.
         22    1    1    0    0    0  0.57386861444E+02 -0.23736225005E+02 -0.70419702036E+01  0.62499996706E+02  0.00000000000E+00 0. -1.
</event>
<event>
 4    1  0.1964735E-002  0.9118800E+02  0.7818608E-02  0.1130116E+00
         25   -1    0    0    0    0  0.00000000000E+00  0.00000000000E+00  0.99999998245E-14  0.12500000000E+03  0.12500000000E+03 0.  0.
        -11    1    1    0    0    0  0.49433294815E+02  0.24977067970E+02  0.22936089617E+02  0.59946382442E+02  0.51100000000E-03 0.  1.
         11    1    1    0    0    0  0.21056816070E+01  0.10661684573E+01  0.97486248747E+00  0.25536184797E+01  0.51100000000E-03 0. -1.
         22    1    1    0    0    0 -0.51538976422E+02 -0.26043236428E+02 -0.23910952105E+02  0.62499999078E+02  0.00000000000E+00 0.  1.
</event>
<event>
 4    1  0.1964735E-002  0.9118800E+02  0.7818608E-02  0.1130116E+00
         25   -1    0    0    0    0  0.00000000000E+00  0.00000000000E+00  0.99999998245E-14  0.12500000000E+03  0.12500000000E+03 0.  0.
        -11    1    1    0    0    0  0.82927388334E+01  0.11833579327E+02  0.50233163166E+01  0.15298262127E+02  0.51100000000E-03 0.  1.
         11    1    1    0    0    0  0.25602481114E+02  0.36503914671E+02  0.15491329134E+02  0.47201738359E+02  0.51100000000E-03 0. -1.
         22    1    1    0    0    0 -0.33895219948E+02 -0.48337493997E+02 -0.20514645451E+02  0.62499999514E+02  0.00000000000E+00 0. -1.
</event>
<event>
 4    1  0.1964735E-002  0.9118800E+02  0.7818608E-02  0.1130116E+00
         25   -1    0    0    0    0  0.00000000000E+00  0.00000000000E+00  0.99999998245E-14  0.12500000000E+03  0.12500000000E+03 0.  0.
        -11    1    1    0    0    0  0.85778597645E+01 -0.20182852359E+02  0.19436491845E+02  0.29303658867E+02  0.51100000000E-03 0. -1.
         11    1    1    0    0    0  0.97233903089E+01 -0.22864508681E+02  0.22015153861E+02  0.33196341306E+02  0.51100000000E-03 0.  1.
         22    1    1    0    0    0 -0.18301250073E+02  0.43047361039E+02 -0.41451645706E+02  0.62499999828E+02  0.00000000000E+00 0. -1.
</event>
<event>
 4    1  0.1964735E-002  0.9118800E+02  0.7818608E-02  0.1130116E+00
         25   -1    0    0    0    0  0.00000000000E+00  0.00000000000E+00  0.99999998245E-14  0.12500000000E+03  0.12500000000E+03 0.  0.
        -11    1    1    0    0    0 -0.51408305146E+02  0.17772638314E+02 -0.19354121116E+02  0.57734413612E+02  0.51100000000E-03 0.  1.
         11    1    1    0    0    0  0.56019737730E+01  0.85052029434E+01  0.86968545953E+01  0.13392380945E+02  0.51100000000E-03 0. -1.
         22    1    1    0    0    0  0.45806331373E+02 -0.26277841258E+02  0.10657266521E+02  0.53873205443E+02  0.00000000000E+00 0.  1.
</event>
<event>
 4    1  0.1964735E-002  0.9118800E+02  0.7818608E-02  0.1130116E+00
         25   -1    0    0    0    0  0.00000000000E+00  0.00000000000E+00  0.99999998245E-14  0.12500000000E+03  0.12500000000E+03 0.  0.
        -11    1    1    0    0    0 -0.48923076595E+02 -0.23395791796E+02  0.28817940830E+02  0.61410945370E+02  0.51100000000E-03 0. -1.
         11    1    1    0    0    0 -0.75007809176E+00 -0.52008328535E+00  0.60812516482E+00  0.10967772083E+01  0.51100000000E-03 0.  1.
         22    1    1    0    0    0  0.49673154687E+02  0.23915875081E+02 -0.29426065995E+02  0.62492277422E+02  0.00000000000E+00 0. -1.
</event>
<event>
 4    1  0.1964735E-002  0.9118800E+02  0.7818608E-02  0.1130116E+00
         25   -1    0    0    0    0  0.00000000000E+00  0.00000000000E+00  0.99999998245E-14  0.12500000000E+03  0.12500000000E+03 0.  0.
        -11    1    1    0    0    0  0.55144694161E+01  0.11773943517E+01  0.60101576394E+01  0.82412150507E+01  0.51100000000E-03 0. -1.
         11    1    1    0    0    0  0.37320873063E+02  0.74465592742E+01  0.38676137321E+02  0.54259952170E+02  0.51100000000E-03 0.  1.
         22    1    1    0    0    0 -0.42835342479E+02 -0.86239536259E+01 -0.44686294961E+02  0.62498832779E+02  0.00000000000E+00 0.  1.
</event>
<event>
 4    1  0.1964735E-002  0.9118800E+02  0.7818608E-02  0.1130116E+00
         25   -1    0    0    0    0  0.00000000000E+00  0.00000000000E+00  0.99999998245E-14  0.12500000000E+03  0.12500000000E+03 0.  0.
        -11    1    1    0    0    0  0.35597574179E+02 -0.13393204986E+02  0.47296864730E+02  0.60692327693E+02  0.51100000000E-03 0. -1.
         11    1    1    0    0    0  0.97241748483E+00 -0.35081473967E+00  0.14855126085E+01  0.18098106855E+01  0.51100000000E-03 0.  1.
         22    1    1    0    0    0 -0.36569991664E+02  0.13744019726E+02 -0.48782377338E+02  0.62497861622E+02  0.00000000000E+00 0. -1.
</event>
<event>
 4    1  0.1964735E-002  0.9118800E+02  0.7818608E-02  0.1130116E+00
         25   -1    0    0    0    0  0.00000000000E+00  0.00000000000E+00  0.99999998245E-14  0.12500000000E+03  0.12500000000E+03 0.  0.
        -11    1    1    0    0    0  0.77138762934E+00  0.12260903391E+01 -0.11561002044E+01  0.18533494916E+01  0.51100000000E-03 0.  1.
         11    1    1    0    0    0  0.25171245177E+02  0.40322117940E+02 -0.37663676541E+02  0.60646659511E+02  0.51100000000E-03 0. -1.
         22    1    1    0    0    0 -0.25942632806E+02 -0.41548208279E+02  0.38819776746E+02  0.62499990998E+02  0.00000000000E+00 0. -1.
</event>
<event>
 4    1  0.1964735E-002  0.9118800E+02  0.7818608E-02  0.1130116E+00
         25   -1    0    0    0    0  0.00000000000E+00  0.00000000000E+00  0.99999998245E-14  0.12500000000E+03  0.12500000000E+03 0.  0.
        -11    1    1    0    0    0  0.89013189692E+01 -0.47013376647E+01 -0.19425472464E+01  0.10252294636E+02  0.51100000000E-03 0. -1.
         11    1    1    0    0    0  0.45356232185E+02 -0.23970467985E+02 -0.99021006875E+01  0.52247705516E+02  0.51100000000E-03 0.  1.
         22    1    1    0    0    0 -0.54257551154E+02  0.28671805649E+02  0.11844647934E+02  0.62499999849E+02  0.00000000000E+00 0.  1.
</event>
<event>
 4    1  0.1964735E-002  0.9118800E+02  0.7818608E-02  0.1130116E+00
         25   -1    0    0    0    0  0.00000000000E+00  0.00000000000E+00  0.99999998245E-14  0.12500000000E+03  0.12500000000E+03 0.  0.
        -11    1    1    0    0    0  0.30934818040E+02  0.44265568295E+02  0.23987799101E+02  0.59091606930E+02  0.51100000000E-03 0. -1.
         11    1    1    0    0    0  0.18521316159E+01  0.26316347969E+01  0.11379269146E+01  0.34133225970E+01  0.51100000000E-03 0.  1.
         22    1    1    0    0    0 -0.32786949656E+02 -0.46897203092E+02 -0.25125726015E+02  0.62495070473E+02  0.00000000000E+00 0. -1.
</event>
<event>
 4    1  0.1964735E-002  0.9118800E+02  0.7818608E-02  0.1130116E+00
         25   -1    0    0    0    0  0.00000000000E+00  0.00000000000E+00  0.99999998245E-14  0.12500000000E+03  0.12500000000E+03 0.  0.
        -11    1    1    0    0    0 -0.44014882501E+02  0.12892028216E+02  0.21184161854E+02  0.50520124573E+02  0.51100000000E-03 0. -1.
         11    1    1    0    0    0 -0.10437576730E+02  0.30572784463E+01  0.50226940884E+01  0.11979875445E+02  0.51100000000E-03 0. -1.
         22    1    1    0    0    0  0.54452459232E+02 -0.15949306662E+02 -0.26206855943E+02  0.62499999982E+02  0.00000000000E+00 0. -1.
</event>
<event>
 4    1  0.1964735E-002  0.9118800E+02  0.7818608E-02  0.1130116E+00
         25   -1    0    0    0    0  0.00000000000E+00  0.00000000000E+00  0.99999998245E-14  0.12500000000E+03  0.12500000000E+03 0.  0.
        -11    1    1    0    0    0  0.18135505013E+01 -0.10890113761E+01 -0.50480882734E+01  0.54733999191E+01  0.51100000000E-03 0.  1.
         11    1    1    0    0    0  0.18959254848E+02 -0.11324754830E+02 -0.52576895276E+02  0.57026601981E+02  0.51100000000E-03 0. -1.
         22    1    1    0    0    0 -0.20772805350E+02  0.12413766206E+02  0.57624983549E+02  0.62499998100E+02  0.00000000000E+00 0. -1.
</event>
<event>
 4    1  0.1964735E-002  0.9118800E+02  0.7818608E-02  0.1130116E+00
         25   -1    0    0    0    0  0.00000000000E+00  0.00000000000E+00  0.99999998245E-14  0.12500000000E+03  0.12500000000E+03 0.  0.
        -11    1    1    0    0    0 -0.53904931502E+02 -0.10417058899E+02  0.14464524927E+01  0.54921298067E+02  0.51100000000E-03 0.  1.
         11    1    1    0    0    0 -0.74381635459E+01 -0.14389932439E+01  0.19936264504E+00  0.75787020140E+01  0.51100000000E-03 0. -1.
         22    1    1    0    0    0  0.61343095047E+02  0.11856052143E+02 -0.16458151377E+01  0.62499999919E+02  0.00000000000E+00 0.  1.
</event>
<event>
 4    1  0.1964735E-002  0.9118800E+02  0.7818608E-02  0.1130116E+00
         25   -1    0    0    0    0  0.00000000000E+00  0.00000000000E+00  0.99999998245E-14  0.12500000000E+03  0.12500000000E+03 0.  0.
        -11    1    1    0    0    0 -0.67980834312E+01  0.19041772781E+02 -0.21469536143E+02  0.29491423014E+02  0.51100000000E-03 0. -1.
         11    1    1    0    0    0 -0.76057125888E+01  0.21307237651E+02 -0.24035826004E+02  0.33008577252E+02  0.51100000000E-03 0.  1.
         22    1    1    0    0    0  0.14403796020E+02 -0.40349010431E+02  0.45505362146E+02  0.62499999733E+02  0.00000000000E+00 0.  1.
</event>
<event>
 4    1  0.1964735E-002  0.9118800E+02  0.7818608E-02  0.1130116E+00
         25   -1    0    0    0    0  0.00000000000E+00  0.00000000000E+00  0.99999998245E-14  0.12500000000E+03  0.12500000000E+03 0.  0.
        -11    1    1    0    0    0  0.25042027309E+02 -0.25880712052E+02  0.41297743097E+02  0.54794324280E+02  0.51100000000E-03 0.  1.
         11    1    1    0    0    0  0.35236502733E+01 -0.36408196165E+01  0.58056665134E+01  0.77056760025E+01  0.51100000000E-03 0. -1.
         22    1    1    0    0    0 -0.28565677582E+02  0.29521531668E+02 -0.47103409611E+02  0.62499999718E+02  0.00000000000E+00 0.  1.
</event>
<event>
 4    1  0.1964735E-002  0.9118800E+02  0.7818608E-02  0.1130116E+00
         25   -1    0    0    0    0  0.00000000000E+00  0.00000000000E+00  0.99999998245E-14  0.12500000000E+03  0.12500000000E+03 0.  0.
        -11    1    1    0    0    0  0.22524767777E+02  0.21683921877E+02 -0.22206847191E+02  0.38349728732E+02  0.51100000000E-03 0.  1.
         11    1    1    0    0    0  0.14529181614E+02  0.13258100063E+02 -0.14015932161E+02  0.24152032839E+02  0.51100000000E-03 0. -1.
         22    1    1    0    0    0 -0.37053949391E+02 -0.34942021940E+02  0.36222779352E+02  0.62498238429E+02  0.00000000000E+00 0.  1.
</event>
<event>
 4    1  0.1964735E-002  0.9118800E+02  0.7818608E-02  0.1130116E+00
         25   -1    0    0    0    0  0.00000000000E+00  0.00000000000E+00  0.99999998245E-14  0.12500000000E+03  0.12500000000E+03 0.  0.
        -11    1    1    0    0    0 -0.28470613856E+01 -0.37369765859E+02  0.14682537731E+02  0.40251485357E+02  0.51100000000E-03 0.  1.
         11    1    1    0    0    0 -0.16269240535E+01 -0.20643010045E+02  0.81373690791E+01  0.22248539758E+02  0.51100000000E-03 0. -1.
         22    1    1    0    0    0  0.44739854391E+01  0.58012775904E+02 -0.22819906810E+02  0.62499974885E+02  0.00000000000E+00 0.  1.
</event>
<event>
 4    1  0.1964735E-002  0.9118800E+02  0.7818608E-02  0.1130116E+00
         25   -1    0    0    0    0  0.00000000000E+00  0.00000000000E+00  0.99999998245E-14  0.12500000000E+03  0.12500000000E+03 0.  0.
        -11    1    1    0    0    0 -0.52410396637E+01  0.42012253751E+01 -0.37268521113E+01  0.76816806969E+01  0.51100000000E-03 0.  1.
         11    1    1    0    0    0 -0.37474844078E+02  0.29965519663E+02 -0.26509481860E+02  0.54818326644E+02  0.51100000000E-03 0. -1.
         22    1    1    0    0    0  0.42715883741E+02 -0.34166745038E+02  0.30236333972E+02  0.62499992659E+02  0.00000000000E+00 0.  1.
</event>
<event>
 4    1  0.1964735E-002  0.9118800E+02  0.7818608E-02  0.1130116E+00
         25   -1    0    0    0    0  0.00000000000E+00  0.00000000000E+00  0.99999998245E-14  0.12500000000E+03  0.12500000000E+03 0.  0.
        -11    1    1    0    0    0 -0.65112076519E+00  0.36203467281E+01 -0.34209349634E-01  0.36785920165E+01  0.51100000000E-03 0.  1.
         11    1    1    0    0    0 -0.10376969182E+02  0.57896087156E+02 -0.56540958101E+00  0.58821408395E+02  0.51100000000E-03 0. -1.
         22    1    1    0    0    0  0.11028089947E+02 -0.61516433884E+02  0.59961893064E+00  0.62499999588E+02  0.00000000000E+00 0. -1.
</event>
<event>
 4    1  0.1964735E-002  0.9118800E+02  0.7818608E-02  0.1130116E+00
         25   -1    0    0    0    0  0.00000000000E+00  0.00000000000E+00  0.99999998245E-14  0.12500000000E+03  0.12500000000E+03 0.  0.
        -11    1    1    0    0    0 -0.97322041761E+00  0.26985296243E+02  0.13833059579E+02  0.30339856771E+02  0.51100000000E-03 0.  1.
         11    1    1    0    0    0 -0.92204331250E+00  0.28634426539E+02  0.14611572162E+02  0.32160201933E+02  0.51100000000E-03 0. -1.
         22    1    1    0    0    0  0.18952637301E+01 -0.55619722783E+02 -0.28444631741E+02  0.62499941295E+02  0.00000000000E+00 0. -1.
</event>
<event>
 4    1  0.1964735E-002  0.9118800E+02  0.7818608E-02  0.1130116E+00
         25   -1    0    0    0    0  0.00000000000E+00  0.00000000000E+00  0.99999998245E-14  0.12500000000E+03  0.12500000000E+03 0.  0.
        -11    1    1    0    0    0  0.39924158541E+02  0.40156144838E+01 -0.16823621377E+02  0.43509744097E+02  0.51100000000E-03 0. -1.
         11    1    1    0    0    0  0.17746289240E+02  0.13688803047E+01 -0.66396157027E+01  0.18997081671E+02  0.51100000000E-03 0.  1.
         22    1    1    0    0    0 -0.57670447781E+02 -0.53844947885E+01  0.23463237080E+02  0.62493174232E+02  0.00000000000E+00 0.  1.
</event>
<event>
 4    1  0.1964735E-002  0.9118800E+02  0.7818608E-02  0.1130116E+00
         25   -1    0    0    0    0  0.00000000000E+00  0.00000000000E+00  0.99999998245E-14  0.12500000000E+03  0.12500000000E+03 0.  0.
        -11    1    1    0    0    0 -0.32783842928E+01  0.55291538111E-01 -0.12817068256E+01  0.35204592561E+01  0.51100000000E-03 0.  1.
         11    1    1    0    0    0 -0.54920955500E+02  0.92320911233E+00 -0.21480748651E+02  0.58979540783E+02  0.51100000000E-03 0.  1.
         22    1    1    0    0    0  0.58199339792E+02 -0.97850065044E+00  0.22762455477E+02  0.62499999961E+02  0.00000000000E+00 0.  1.
</event>
<event>
 4    1  0.1964735E-002  0.9118800E+02  0.7818608E-02  0.1130116E+00
         25   -1    0    0    0    0  0.00000000000E+00  0.00000000000E+00  0.99999998245E-14  0.12500000000E+03  0.12500000000E+03 0.  0.
        -11    1    1    0    0    0 -0.58973327747E+01  0.10728118605E+02 -0.84088610399E+00  0.12271028986E+02  0.51100000000E-03 0.  1.
         11    1    1    0    0    0 -0.23866625653E+02  0.44106187810E+02 -0.28328940426E+01  0.50229442681E+02  0.51100000000E-03 0. -1.
         22    1    1    0    0    0  0.29763958427E+02 -0.54834306415E+02  0.36737801466E+01  0.62499528333E+02  0.00000000000E+00 0. -1.
</event>
<event>
 4    1  0.1964735E-002  0.9118800E+02  0.7818608E-02  0.1130116E+00
         25   -1    0    0    0    0  0.00000000000E+00  0.00000000000E+00  0.99999998245E-14  0.12500000000E+03  0.12500000000E+03 0.  0.
        -11    1    1    0    0    0 -0.65999334922E+01 -0.79224202053E+01 -0.18487159090E+02  0.21168347018E+02  0.51100000000E-03 0.  1.
         11    1    1    0    0    0 -0.12886127615E+02 -0.15469152196E+02 -0.36096517613E+02  0.41331652987E+02  0.51100000000E-03 0.  1.
         22    1    1    0    0    0  0.19486061107E+02  0.23391572401E+02  0.54583676703E+02  0.62499999995E+02  0.00000000000E+00 0.  1.
</event>
<event>
 4    1  0.1964735E-002  0.9118800E+02  0.7818608E-02  0.1130116E+00
         25   -1    0    0    0    0  0.00000000000E+00  0.00000000000E+00  0.99999998245E-14  0.12500000000E+03  0.12500000000E+03 0.  0.
        -11    1    1    0    0    0  0.66071830310E+01  0.34804625857E+01 -0.74996895130E+01  0.10583658652E+02  0.51100000000E-03 0. -1.
         11    1    1    0    0    0  0.32365508093E+02  0.17071176174E+02 -0.36828733859E+02  0.51916344325E+02  0.51100000000E-03 0.  1.
         22    1    1    0    0    0 -0.38972691124E+02 -0.20551638760E+02  0.44328423372E+02  0.62499997023E+02  0.00000000000E+00 0.  1.
</event>
<event>
 4    1  0.1964735E-002  0.9118800E+02  0.7818608E-02  0.1130116E+00
         25   -1    0    0    0    0  0.00000000000E+00  0.00000000000E+00  0.99999998245E-14  0.12500000000E+03  0.12500000000E+03 0.  0.
        -11    1    1    0    0    0  0.13200019509E+01  0.87290177727E+01  0.10798458660E+02  0.13947934116E+02  0.51100000000E-03 0.  1.
         11    1    1    0    0    0  0.45451297314E+01  0.30400186862E+02  0.37582892933E+02  0.48552069029E+02  0.51100000000E-03 0. -1.
         22    1    1    0    0    0 -0.58651316823E+01 -0.39129204635E+02 -0.48381351592E+02  0.62499996855E+02  0.00000000000E+00 0. -1.
</event>
<event>
 4    1  0.1964735E-002  0.9118800E+02  0.7818608E-02  0.1130116E+00
         25   -1    0    0    0    0  0.00000000000E+00  0.00000000000E+00  0.99999998245E-14  0.12500000000E+03  0.12500000000E+03 0.  0.
        -11    1    1    0    0    0  0.15028645656E+02 -0.23327899517E+02  0.11268351538E+02  0.29950406221E+02  0.51100000000E-03 0. -1.
         11    1    1    0    0    0  0.16334319424E+02 -0.25353166010E+02  0.12242672958E+02  0.32549593841E+02  0.51100000000E-03 0. -1.
         22    1    1    0    0    0 -0.31362965080E+02  0.48681065527E+02 -0.23511024497E+02  0.62499999939E+02  0.00000000000E+00 0. -1.
</event>
<event>
 4    1  0.1964735E-002  0.9118800E+02  0.7818608E-02  0.1130116E+00
         25   -1    0    0    0    0  0.00000000000E+00  0.00000000000E+00  0.99999998245E-14  0.12500000000E+03  0.12500000000E+03 0.  0.
        -11    1    1    0    0    0 -0.56404521971E+01 -0.31383854931E+01  0.66459025822E+00  0.64889016762E+01  0.51100000000E-03 0. -1.
         11    1    1    0    0    0 -0.49189421245E+02 -0.26431936028E+02  0.43736407137E+01  0.56012276672E+02  0.51100000000E-03 0.  1.
         22    1    1    0    0    0  0.54829873442E+02  0.29570321521E+02 -0.50382309719E+01  0.62498821652E+02  0.00000000000E+00 0.  1.
</event>
<event>
 4    1  0.1964735E-002  0.9118800E+02  0.7818608E-02  0.1130116E+00
         25   -1    0    0    0    0  0.00000000000E+00  0.00000000000E+00  0.99999998245E-14  0.12500000000E+03  0.12500000000E+03 0.  0.
        -11    1    1    0    0    0  0.29009585685E+01 -0.14131177030E+02  0.42742125325E+02  0.45110918882E+02  0.51100000000E-03 0. -1.
         11    1    1    0    0    0  0.14494130545E+02 -0.21953539641E+02 -0.99688349979E+01  0.28132106116E+02  0.51100000000E-03 0.  1.
         22    1    1    0    0    0 -0.17395089113E+02  0.36084716671E+02 -0.32773290327E+02  0.51756975002E+02  0.00000000000E+00 0. -1.
</event>
<event>
 4    1  0.1964735E-002  0.9118800E+02  0.7818608E-02  0.1130116E+00
         25   -1    0    0    0    0  0.00000000000E+00  0.00000000000E+00  0.99999998245E-14  0.12500000000E+03  0.12500000000E+03 0.  0.
        -11    1    1    0    0    0 -0.35422746593E+01  0.27312160464E+02  0.20846725747E+02  0.34541102958E+02  0.51100000000E-03 0.  1.
         11    1    1    0    0    0 -0.31502853825E+01  0.22109297618E+02  0.16821934333E+02  0.27959306395E+02  0.51100000000E-03 0. -1.
         22    1    1    0    0    0  0.66925600418E+01 -0.49421458082E+02 -0.37668660079E+02  0.62499590647E+02  0.00000000000E+00 0. -1.
</event>
<event>
 4    1  0.1964735E-002  0.9118800E+02  0.7818608E-02  0.1130116E+00
         25   -1    0    0    0    0  0.00000000000E+00  0.00000000000E+00  0.99999998245E-14  0.12500000000E+03  0.12500000000E+03 0.  0.
        -11    1    1    0    0    0  0.12546107274E+02 -0.69308921334E+01 -0.86725557366E+01  0.16752769823E+02  0.51100000000E-03 0. -1.
         11    1    1    0    0    0  0.34263670363E+02 -0.18926022121E+02 -0.23677323629E+02  0.45747230240E+02  0.51100000000E-03 0.  1.
         22    1    1    0    0    0 -0.46809777637E+02  0.25856914255E+02  0.32349879366E+02  0.62499999937E+02  0.00000000000E+00 0.  1.
</event>
<event>
 4    1  0.1964735E-002  0.9118800E+02  0.7818608E-02  0.1130116E+00
         25   -1    0    0    0    0  0.00000000000E+00  0.00000000000E+00  0.99999998245E-14  0.12500000000E+03  0.12500000000E+03 0.  0.
        -11    1    1    0    0    0 -0.18137234086E+02 -0.12730704448E+02 -0.18071201033E+02  0.28593677677E+02  0.51100000000E-03 0. -1.
         11    1    1    0    0    0 -0.37587298928E+02  0.82563518985E+01  0.11210661488E+02  0.40083055255E+02  0.51100000000E-03 0.  1.
         22    1    1    0    0    0  0.55724533014E+02  0.44743525499E+01  0.68605395448E+01  0.56323267068E+02  0.00000000000E+00 0.  1.
</event>
<event>
 4    1  0.1964735E-002  0.9118800E+02  0.7818608E-02  0.1130116E+00
         25   -1    0    0    0    0  0.00000000000E+00  0.00000000000E+00  0.99999998245E-14  0.12500000000E+03  0.12500000000E+03 0.  0.
        -11    1    1    0    0    0  0.46508016173E+02  0.77697442230E+01 -0.18122744210E+02  0.50515327888E+02  0.51100000000E-03 0. -1.
         11    1    1    0    0    0  0.11033745210E+02  0.18089980459E+01 -0.43147338354E+01  0.11984695892E+02  0.51100000000E-03 0.  1.
         22    1    1    0    0    0 -0.57541761383E+02 -0.95787422689E+01  0.22437478046E+02  0.62499976220E+02  0.00000000000E+00 0. -1.
</event>
<event>
 4    1  0.1964735E-002  0.9118800E+02  0.7818608E-02  0.1130116E+00
         25   -1    0    0    0    0  0.00000000000E+00  0.00000000000E+00  0.99999998245E-14  0.12500000000E+03  0.12500000000E+03 0.  0.
        -11    1    1    0    0    0 -0.16497818091E+02 -0.27627940817E+02  0.69596394769E+00  0.32186417658E+02  0.51100000000E-03 0. -1.
         11    1    1    0    0    0 -0.15537923694E+02 -0.26020316226E+02  0.65524440096E+00  0.30313582347E+02  0.51100000000E-03 0. -1.
         22    1    1    0    0    0  0.32035741784E+02  0.53648257043E+02 -0.13512083486E+01  0.62499999996E+02  0.00000000000E+00 0. -1.
</event>
<event>
 4    1  0.1964735E-002  0.9118800E+02  0.7818608E-02  0.1130116E+00
         25   -1    0    0    0    0  0.00000000000E+00  0.00000000000E+00  0.99999998245E-14  0.12500000000E+03  0.12500000000E+03 0.  0.
        -11    1    1    0    0    0  0.61685268501E+00  0.10937457897E+02 -0.82054940273E+01  0.13687170086E+02  0.51100000000E-03 0. -1.
         11    1    1    0    0    0  0.22008884905E+01  0.39004981802E+02 -0.29265335292E+02  0.48812829928E+02  0.51100000000E-03 0. -1.
         22    1    1    0    0    0 -0.28177411755E+01 -0.49942439699E+02  0.37470829319E+02  0.62499999986E+02  0.00000000000E+00 0. -1.
</event>
<event>
 4    1  0.1964735E-002  0.9118800E+02  0.7818608E-02  0.1130116E+00
         25   -1    0    0    0    0  0.00000000000E+00  0.00000000000E+00  0.99999998245E-14  0.12500000000E+03  0.12500000000E+03 0.  0.
        -11    1    1    0    0    0  0.21666509468E+02 -0.67749862839E+01  0.14069055544E+02  0.26707234897E+02  0.51100000000E-03 0.  1.
         11    1    1    0    0    0  0.29037978420E+02 -0.90812410985E+01  0.18853352606E+02  0.35792765126E+02  0.51100000000E-03 0. -1.
         22    1    1    0    0    0 -0.50704487888E+02  0.15856227382E+02 -0.32922408150E+02  0.62499999977E+02  0.00000000000E+00 0.  1.
</event>
<event>
 4    1  0.1964735E-002  0.9118800E+02  0.7818608E-02  0.1130116E+00
         25   -1    0    0    0    0  0.00000000000E+00  0.00000000000E+00  0.99999998245E-14  0.12500000000E+03  0.12500000000E+03 0.  0.
        -11    1    1    0    0    0  0.74061525262E+00 -0.22802585999E+01 -0.32334973456E+01  0.40253689992E+01  0.51100000000E-03 0.  1.
         11    1    1    0    0    0 -0.14226616101E+02 -0.26303863190E+02 -0.50468025311E+02  0.58662691751E+02  0.51100000000E-03 0. -1.
         22    1    1    0    0    0  0.13486000848E+02  0.28584121790E+02  0.53701522657E+02  0.62311939250E+02  0.00000000000E+00 0. -1.
</event>
<event>
 4    1  0.1964735E-002  0.9118800E+02  0.7818608E-02  0.1130116E+00
         25   -1    0    0    0    0  0.00000000000E+00  0.00000000000E+00  0.99999998245E-14  0.12500000000E+03  0.12500000000E+03 0.  0.
        -11    1    1    0    0    0 -0.22906254343E+02  0.51313991794E+02 -0.24869711034E+02  0.61451808509E+02  0.51100000000E-03 0.  1.
         11    1    1    0    0    0 -0.37717934814E+00  0.88267995091E+00 -0.42123452703E+00  0.10482494666E+01  0.51100000000E-03 0. -1.
         22    1    1    0    0    0  0.23283433691E+02 -0.52196671745E+02  0.25290945561E+02  0.62499942024E+02  0.00000000000E+00 0.  1.
</event>
<event>
 4    1  0.1964735E-002  0.9118800E+02  0.7818608E-02  0.1130116E+00
         25   -1    0    0    0    0  0.00000000000E+00  0.00000000000E+00  0.99999998245E-14  0.12500000000E+03  0.12500000000E+03 0.  0.
        -11    1    1    0    0    0 -0.39611405970E+02 -0.47475627749E+01  0.13666130103E+01  0.39918297392E+02  0.51100000000E-03 0. -1.
         11    1    1    0    0    0 -0.22467664155E+02 -0.20701465887E+01  0.99483263664E+00  0.22584754409E+02  0.51100000000E-03 0.  1.
         22    1    1    0    0    0  0.62079070126E+02  0.68177093635E+01 -0.23614456469E+01  0.62496948199E+02  0.00000000000E+00 0. -1.
</event>
<event>
 4    1  0.1964735E-002  0.9118800E+02  0.7818608E-02  0.1130116E+00
         25   -1    0    0    0    0  0.00000000000E+00  0.00000000000E+00  0.99999998245E-14  0.12500000000E+03  0.12500000000E+03 0.  0.
        -11    1    1    0    0    0 -0.24590387854E+02 -0.38540867690E+02 -0.82204801896E+01  0.46450639952E+02  0.51100000000E-03 0. -1.
         11    1    1    0    0    0 -0.84982831732E+01 -0.13317928381E+02 -0.28273643203E+01  0.16049362059E+02  0.51100000000E-03 0.  1.
         22    1    1    0    0    0  0.33088671027E+02  0.51858796071E+02  0.11047844510E+02  0.62499997989E+02  0.00000000000E+00 0. -1.
</event>
<event>
 4    1  0.1964735E-002  0.9118800E+02  0.7818608E-02  0.1130116E+00
         25   -1    0    0    0    0  0.00000000000E+00  0.00000000000E+00  0.99999998245E-14  0.12500000000E+03  0.12500000000E+03 0.  0.
        -11    1    1    0    0    0  0.29752365423E+02  0.86001698891E+01  0.20748569627E+02  0.37278268632E+02  0.51100000000E-03 0.  1.
         11    1    1    0    0    0  0.20129728638E+02  0.58185962930E+01  0.14038293889E+02  0.25221731372E+02  0.51100000000E-03 0.  1.
         22    1    1    0    0    0 -0.49882094061E+02 -0.14418766182E+02 -0.34786863516E+02  0.62499999995E+02  0.00000000000E+00 0.  1.
</event>
<event>
 4    1  0.1964735E-002  0.9118800E+02  0.7818608E-02  0.1130116E+00
         25   -1    0    0    0    0  0.00000000000E+00  0.00000000000E+00  0.99999998245E-14  0.12500000000E+03  0.12500000000E+03 0.  0.
        -11    1    1    0    0    0 -0.44538067734E+01 -0.39542976185E+02 -0.12327465734E+02  0.41658729841E+02  0.51100000000E-03 0.  1.
         11    1    1    0    0    0 -0.22276700371E+01 -0.19782865957E+02 -0.61671908183E+01  0.20841270165E+02  0.51100000000E-03 0.  1.
         22    1    1    0    0    0  0.66814768105E+01  0.59325842142E+02  0.18494656552E+02  0.62499999993E+02  0.00000000000E+00 0.  1.
</event>
<event>
 4    1  0.1964735E-002  0.9118800E+02  0.7818608E-02  0.1130116E+00
         25   -1    0    0    0    0  0.00000000000E+00  0.00000000000E+00  0.99999998245E-14  0.12500000000E+03  0.12500000000E+03 0.  0.
        -11    1    1    0    0    0  0.23020945000E+01  0.31113735631E+01 -0.13547524107E+01  0.41006876120E+01  0.51100000000E-03 0. -1.
         11    1    1    0    0    0  0.32777564321E+02  0.44319314572E+02 -0.19284950844E+02  0.58399312464E+02  0.51100000000E-03 0. -1.
         22    1    1    0    0    0 -0.35079658821E+02 -0.47430688135E+02  0.20639703255E+02  0.62499999924E+02  0.00000000000E+00 0. -1.
</event>
<event>
 4    1  0.1964735E-002  0.9118800E+02  0.7818608E-02  0.1130116E+00
         25   -1    0    0    0    0  0.00000000000E+00  0.00000000000E+00  0.99999998245E-14  0.12500000000E+03  0.12500000000E+03 0.  0.
        -11    1    1    0    0    0  0.18058923965E+01 -0.28522265508E+02  0.66620612846E+01  0.29345594863E+02  0.51100000000E-03 0.  1.
         11    1    1    0    0    0 -0.20329930507E+02  0.33863179196E+02 -0.40587673450E+02  0.56633737437E+02  0.51100000000E-03 0. -1.
         22    1    1    0    0    0  0.18524038111E+02 -0.53409136879E+01  0.33925612165E+02  0.39020667700E+02  0.00000000000E+00 0. -1.
</event>
<event>
 4    1  0.1964735E-002  0.9118800E+02  0.7818608E-02  0.1130116E+00
         25   -1    0    0    0    0  0.00000000000E+00  0.00000000000E+00  0.99999998245E-14  0.12500000000E+03  0.12500000000E+03 0.  0.
        -11    1    1    0    0    0 -0.11193489469E+02 -0.17617132174E+02  0.40834956679E+02  0.45860126905E+02  0.51100000000E-03 0.  1.
         11    1    1    0    0    0 -0.39685090106E+01 -0.63962727672E+01  0.14840060143E+02  0.16639974591E+02  0.51100000000E-03 0. -1.
         22    1    1    0    0    0  0.15161998480E+02  0.24013404941E+02 -0.55675016822E+02  0.62499898503E+02  0.00000000000E+00 0. -1.
</event>
<event>
 4    1  0.1964735E-002  0.9118800E+02  0.7818608E-02  0.1130116E+00
         25   -1    0    0    0    0  0.00000000000E+00  0.00000000000E+00  0.99999998245E-14  0.12500000000E+03  0.12500000000E+03 0.  0.
        -11    1    1    0    0    0  0.14845751376E+02 -0.13365153905E+02  0.26209859789E+02  0.32954217079E+02  0.51100000000E-03 0.  1.
         11    1    1    0    0    0  0.12205200529E+02 -0.14037606080E+02  0.22987745105E+02  0.29571231454E+02  0.51100000000E-03 0. -1.
         22    1    1    0    0    0 -0.27050951905E+02  0.27402759985E+02 -0.49197604894E+02  0.62474551468E+02  0.00000000000E+00 0.  1.
</event>
<event>
 4    1  0.1964735E-002  0.9118800E+02  0.7818608E-02  0.1130116E+00
         25   -1    0    0    0    0  0.00000000000E+00  0.00000000000E+00  0.99999998245E-14  0.12500000000E+03  0.12500000000E+03 0.  0.
        -11    1    1    0    0    0 -0.38833864994E+00 -0.20313700664E+00  0.39504314629E+00  0.59002618506E+00  0.51100000000E-03 0.  1.
         11    1    1    0    0    0 -0.40432872996E+02 -0.22122037613E+02  0.41335780033E+02  0.61910003053E+02  0.51100000000E-03 0. -1.
         22    1    1    0    0    0  0.40821211646E+02  0.22325174620E+02 -0.41730823179E+02  0.62499970762E+02  0.00000000000E+00 0. -1.
</event>
<event>
 4    1  0.1964735E-002  0.9118800E+02  0.7818608E-02  0.1130116E+00
         25   -1    0    0    0    0  0.00000000000E+00  0.00000000000E+00  0.99999998245E-14  0.12500000000E+03  0.12500000000E+03 0.  0.
        -11    1    1    0    0    0 -0.53966100124E+02 -0.90779950057E+01 -0.33309441882E+01  0.54825588418E+02  0.51100000000E-03 0. -1.
         11    1    1    0    0    0 -0.75701733132E+01 -0.11660610619E+01 -0.48417925890E+00  0.76747411818E+01  0.51100000000E-03 0.  1.
         22    1    1    0    0    0  0.61536273437E+02  0.10244056068E+02  0.38151234471E+01  0.62499670400E+02  0.00000000000E+00 0. -1.
</event>
<event>
 4    1  0.1964735E-002  0.9118800E+02  0.7818608E-02  0.1130116E+00
         25   -1    0    0    0    0  0.00000000000E+00  0.00000000000E+00  0.99999998245E-14  0.12500000000E+03  0.12500000000E+03 0.  0.
        -11    1    1    0    0    0 -0.58624151042E+01  0.43068927287E+01 -0.64368657657E-01  0.72747082014E+01  0.51100000000E-03 0.  1.
         11    1    1    0    0    0 -0.45530626887E+02  0.30053486652E+02  0.88983657615E+01  0.55275952802E+02  0.51100000000E-03 0. -1.
         22    1    1    0    0    0  0.51393041991E+02 -0.34360379381E+02 -0.88339971039E+01  0.62449338997E+02  0.00000000000E+00 0. -1.
</event>
<event>
 4    1  0.1964735E-002  0.9118800E+02  0.7818608E-02  0.1130116E+00
         25   -1    0    0    0    0  0.00000000000E+00  0.00000000000E+00  0.99999998245E-14  0.12500000000E+03  0.12500000000E+03 0.  0.
        -11    1    1    0    0    0 -0.11746077231E+02  0.55416650916E+02 -0.12915208682E+02  0.58101447010E+02  0.51100000000E-03 0.  1.
         11    1    1    0    0    0 -0.90830078453E+00  0.41895403671E+01 -0.98499663256E+00  0.43985767505E+01  0.51100000000E-03 0. -1.
         22    1    1    0    0    0  0.12654378016E+02 -0.59606191283E+02  0.13900205314E+02  0.62499976240E+02  0.00000000000E+00 0.  1.
</event>
<event>
 4    1  0.1964735E-002  0.9118800E+02  0.7818608E-02  0.1130116E+00
         25   -1    0    0    0    0  0.00000000000E+00  0.00000000000E+00  0.99999998245E-14  0.12500000000E+03  0.12500000000E+03 0.  0.
        -11    1    1    0    0    0 -0.46373163211E+02  0.35577578232E+02 -0.45701225894E+01  0.58626959326E+02  0.51100000000E-03 0.  1.
         11    1    1    0    0    0 -0.30690743512E+01  0.23426724436E+01 -0.30522049284E+00  0.38730467802E+01  0.51100000000E-03 0. -1.
         22    1    1    0    0    0  0.49442237563E+02 -0.37920250676E+02  0.48753430822E+01  0.62499993894E+02  0.00000000000E+00 0.  1.
</event>
<event>
 4    1  0.1964735E-002  0.9118800E+02  0.7818608E-02  0.1130116E+00
         25   -1    0    0    0    0  0.00000000000E+00  0.00000000000E+00  0.99999998245E-14  0.12500000000E+03  0.12500000000E+03 0.  0.
        -11    1    1    0    0    0 -0.37242555156E+01 -0.32526091829E+02  0.74158022515E+01  0.33568003398E+02  0.51100000000E-03 0. -1.
         11    1    1    0    0    0 -0.32099692355E+01 -0.28033812504E+02  0.63923298980E+01  0.28931996609E+02  0.51100000000E-03 0. -1.
         22    1    1    0    0    0  0.69342247512E+01  0.60559904333E+02 -0.13808132149E+02  0.62499999993E+02  0.00000000000E+00 0. -1.
</event>
<event>
 4    1  0.1964735E-002  0.9118800E+02  0.7818608E-02  0.1130116E+00
         25   -1    0    0    0    0  0.00000000000E+00  0.00000000000E+00  0.99999998245E-14  0.12500000000E+03  0.12500000000E+03 0.  0.
        -11    1    1    0    0    0  0.19794050053E+02 -0.25128533253E+02  0.12549549298E+02  0.34361879878E+02  0.51100000000E-03 0.  1.
         11    1    1    0    0    0  0.16138970768E+02 -0.20349422768E+02  0.10829968686E+02  0.28139893505E+02  0.51100000000E-03 0. -1.
         22    1    1    0    0    0 -0.35933020821E+02  0.45477956020E+02 -0.23379517984E+02  0.62498226617E+02  0.00000000000E+00 0.  1.
</event>
<event>
 4    1  0.1964735E-002  0.9118800E+02  0.7818608E-02  0.1130116E+00
         25   -1    0    0    0    0  0.00000000000E+00  0.00000000000E+00  0.99999998245E-14  0.12500000000E+03  0.12500000000E+03 0.  0.
        -11    1    1    0    0    0  0.18203488607E+01  0.32230746528E+02  0.31282064483E+02  0.44952221862E+02  0.51100000000E-03 0. -1.
         11    1    1    0    0    0  0.71199320701E+00  0.12581394134E+02  0.12211720009E+02  0.17547778165E+02  0.51100000000E-03 0. -1.
         22    1    1    0    0    0 -0.25323420677E+01 -0.44812140662E+02 -0.43493784493E+02  0.62499999973E+02  0.00000000000E+00 0. -1.
</event>
<event>
 4    1  0.1964735E-002  0.9118800E+02  0.7818608E-02  0.1130116E+00
         25   -1    0    0    0    0  0.00000000000E+00  0.00000000000E+00  0.99999998245E-14  0.12500000000E+03  0.12500000000E+03 0.  0.
        -11    1    1    0    0    0 -0.83899623683E+00 -0.59959860161E+00  0.41397015485E+01  0.42662117083E+01  0.51100000000E-03 0.  1.
         11    1    1    0    0    0 -0.11615891246E+02 -0.78677192226E+01  0.56518567822E+02  0.58233825601E+02  0.51100000000E-03 0. -1.
         22    1    1    0    0    0  0.12454887482E+02  0.84673178242E+01 -0.60658269370E+02  0.62499962691E+02  0.00000000000E+00 0. -1.
</event>
<event>
 4    1  0.1964735E-002  0.9118800E+02  0.7818608E-02  0.1130116E+00
         25   -1    0    0    0    0  0.00000000000E+00  0.00000000000E+00  0.99999998245E-14  0.12500000000E+03  0.12500000000E+03 0.  0.
        -11    1    1    0    0    0  0.59687831598E+02  0.11600390029E+02  0.12545040256E+02  0.62085298783E+02  0.51100000000E-03 0. -1.
         11    1    1    0    0    0  0.39724243079E+00  0.76713447696E-01  0.91209112906E-01  0.41473589822E+00  0.51100000000E-03 0.  1.
         22    1    1    0    0    0 -0.60085074029E+02 -0.11677103477E+02 -0.12636249369E+02  0.62499965318E+02  0.00000000000E+00 0. -1.
</event>
<event>
 4    1  0.1964735E-002  0.9118800E+02  0.7818608E-02  0.1130116E+00
         25   -1    0    0    0    0  0.00000000000E+00  0.00000000000E+00  0.99999998245E-14  0.12500000000E+03  0.12500000000E+03 0.  0.
        -11    1    1    0    0    0 -0.32480239564E+00 -0.57543421882E+01 -0.26783483135E+02  0.27396585913E+02  0.51100000000E-03 0. -1.
         11    1    1    0    0    0  0.35404406659E+00 -0.79168655245E+01 -0.34200079691E+02  0.35106232468E+02  0.51100000000E-03 0.  1.
         22    1    1    0    0    0 -0.29241670953E-01  0.13671207713E+02  0.60983562826E+02  0.62497181619E+02  0.00000000000E+00 0. -1.
</event>
<event>
 4    1  0.1964735E-002  0.9118800E+02  0.7818608E-02  0.1130116E+00
         25   -1    0    0    0    0  0.00000000000E+00  0.00000000000E+00  0.99999998245E-14  0.12500000000E+03  0.12500000000E+03 0.  0.
        -11    1    1    0    0    0  0.18349014835E+01 -0.77915702453E+01 -0.29973211271E+01  0.85474770863E+01  0.51100000000E-03 0. -1.
         11    1    1    0    0    0  0.92636999237E+01 -0.49298547682E+02 -0.19878207778E+02  0.53956520315E+02  0.51100000000E-03 0.  1.
         22    1    1    0    0    0 -0.11098601407E+02  0.57090117927E+02  0.22875528905E+02  0.62496002599E+02  0.00000000000E+00 0.  1.
</event>
<event>
 4    1  0.1964735E-002  0.9118800E+02  0.7818608E-02  0.1130116E+00
         25   -1    0    0    0    0  0.00000000000E+00  0.00000000000E+00  0.99999998245E-14  0.12500000000E+03  0.12500000000E+03 0.  0.
        -11    1    1    0    0    0 -0.48398880465E+02 -0.91843284280E+00  0.37383707452E+02  0.61162380041E+02  0.51100000000E-03 0. -1.
         11    1    1    0    0    0 -0.10582243777E+01  0.32266006267E-01  0.81834503021E+00  0.13381213615E+01  0.51100000000E-03 0.  1.
         22    1    1    0    0    0  0.49457104843E+02  0.88616683654E+00 -0.38202052482E+02  0.62499498597E+02  0.00000000000E+00 0. -1.
</event>
<event>
 4    1  0.1964735E-002  0.9118800E+02  0.7818608E-02  0.1130116E+00
         25   -1    0    0    0    0  0.00000000000E+00  0.00000000000E+00  0.99999998245E-14  0.12500000000E+03  0.12500000000E+03 0.  0.
        -11    1    1    0    0    0 -0.13326052223E+02  0.35952717813E+02 -0.41124217977E+01  0.38562852582E+02  0.51100000000E-03 0. -1.
         11    1    1    0    0    0 -0.15420919585E+02  0.14022945680E+02  0.17538732950E+02  0.27240685016E+02  0.51100000000E-03 0.  1.
         22    1    1    0    0    0  0.28746971809E+02 -0.49975663493E+02 -0.13426311152E+02  0.59196462402E+02  0.00000000000E+00 0.  1.
</event>
<event>
 4    1  0.1964735E-002  0.9118800E+02  0.7818608E-02  0.1130116E+00
         25   -1    0    0    0    0  0.00000000000E+00  0.00000000000E+00  0.99999998245E-14  0.12500000000E+03  0.12500000000E+03 0.  0.
        -11    1    1    0    0    0 -0.26088867714E+02  0.69777647291E+01  0.55588804795E+02  0.61801565012E+02  0.51100000000E-03 0.  1.
         11    1    1    0    0    0 -0.29365678466E+00  0.77215965935E-01  0.62898091769E+00  0.69843673193E+00  0.51100000000E-03 0. -1.
         22    1    1    0    0    0  0.26382524499E+02 -0.70549806950E+01 -0.56217785712E+02  0.62499998256E+02  0.00000000000E+00 0.  1.
</event>
<event>
 4    1  0.1964735E-002  0.9118800E+02  0.7818608E-02  0.1130116E+00
         25   -1    0    0    0    0  0.00000000000E+00  0.00000000000E+00  0.99999998245E-14  0.12500000000E+03  0.12500000000E+03 0.  0.
        -11    1    1    0    0    0 -0.87448974364E+01 -0.51919953400E+01  0.10498335373E+02  0.14616603321E+02  0.51100000000E-03 0. -1.
         11    1    1    0    0    0 -0.30501921863E+02 -0.18608789608E+02  0.31899737591E+02  0.47898304214E+02  0.51100000000E-03 0.  1.
         22    1    1    0    0    0  0.39246819299E+02  0.23800784948E+02 -0.42398072964E+02  0.62485092464E+02  0.00000000000E+00 0.  1.
</event>
<event>
 4    1  0.1964735E-002  0.9118800E+02  0.7818608E-02  0.1130116E+00
         25   -1    0    0    0    0  0.00000000000E+00  0.00000000000E+00  0.99999998245E-14  0.12500000000E+03  0.12500000000E+03 0.  0.
        -11    1    1    0    0    0 -0.19252688142E+02  0.12642585751E+02  0.53926219637E+02  0.58639049615E+02  0.51100000000E-03 0.  1.
         11    1    1    0    0    0 -0.27063340292E+00 -0.45306430953E+00  0.39973879657E+01  0.40320739721E+01  0.51100000000E-03 0. -1.
         22    1    1    0    0    0  0.19523321545E+02 -0.12189521442E+02 -0.57923607603E+02  0.62328876413E+02  0.00000000000E+00 0.  1.
</event>
<event>
 4    1  0.1964735E-002  0.9118800E+02  0.7818608E-02  0.1130116E+00
         25   -1    0    0    0    0  0.00000000000E+00  0.00000000000E+00  0.99999998245E-14  0.12500000000E+03  0.12500000000E+03 0.  0.
        -11    1    1    0    0    0 -0.17576483196E+02 -0.36520094167E+01 -0.13299873074E+02  0.22341811886E+02  0.51100000000E-03 0.  1.
         11    1    1    0    0    0 -0.30009083316E+02 -0.92917435219E+01 -0.25056205633E+02  0.40183267912E+02  0.51100000000E-03 0. -1.
         22    1    1    0    0    0  0.47585566512E+02  0.12943752939E+02  0.38356078706E+02  0.62474920201E+02  0.00000000000E+00 0. -1.
</event>
<event>
 4    1  0.1964735E-002  0.9118800E+02  0.7818608E-02  0.1130116E+00
         25   -1    0    0    0    0  0.00000000000E+00  0.00000000000E+00  0.99999998245E-14  0.12500000000E+03  0.12500000000E+03 0.  0.
        -11    1    1    0    0    0  0.11000079984E+02 -0.45235408555E+02 -0.10190126364E+02  0.47655877102E+02  0.51100000000E-03 0. -1.
         11    1    1    0    0    0  0.34301406340E+01 -0.14088935202E+02 -0.31755364032E+01  0.14844123134E+02  0.51100000000E-03 0.  1.
         22    1    1    0    0    0 -0.14430220618E+02  0.59324343757E+02  0.13365662767E+02  0.62499999764E+02  0.00000000000E+00 0. -1.
</event>
<event>
 4    1  0.1964735E-002  0.9118800E+02  0.7818608E-02  0.1130116E+00
         25   -1    0    0    0    0  0.00000000000E+00  0.00000000000E+00  0.99999998245E-14  0.12500000000E+03  0.12500000000E+03 0.  0.
        -11    1    1    0    0    0 -0.11416115184E+02 -0.19303641509E+02  0.44855522249E+02  0.50149537763E+02  0.51100000000E-03 0. -1.
         11    1    1    0    0    0 -0.29373633366E+01 -0.69220214610E+01  0.99196213494E+01  0.12447544836E+02  0.51100000000E-03 0.  1.
         22    1    1    0    0    0  0.14353478521E+02  0.26225662970E+02 -0.54775143598E+02  0.62402917400E+02  0.00000000000E+00 0. -1.
</event>
<event>
 4    1  0.1964735E-002  0.9118800E+02  0.7818608E-02  0.1130116E+00
         25   -1    0    0    0    0  0.00000000000E+00  0.00000000000E+00  0.99999998245E-14  0.12500000000E+03  0.12500000000E+03 0.  0.
        -11    1    1    0    0    0  0.55815887331E+02  0.26420909074E+02  0.21292686098E+01  0.61790059879E+02  0.51100000000E-03 0. -1.
         11    1    1    0    0    0  0.59722728141E+00  0.16799573371E+00 -0.54326784598E+00  0.82464732207E+00  0.51100000000E-03 0.  1.
         22    1    1    0    0    0 -0.56413114612E+02 -0.26588904807E+02 -0.15860007638E+01  0.62385292799E+02  0.00000000000E+00 0. -1.
</event>
<event>
 4    1  0.1964735E-002  0.9118800E+02  0.7818608E-02  0.1130116E+00
         25   -1    0    0    0    0  0.00000000000E+00  0.00000000000E+00  0.99999998245E-14  0.12500000000E+03  0.12500000000E+03 0.  0.
        -11    1    1    0    0    0  0.22008371953E+02 -0.13901306702E+02 -0.25204541695E+02  0.36233736854E+02  0.51100000000E-03 0. -1.
         11    1    1    0    0    0  0.15956087863E+02 -0.10070519219E+02 -0.18273053868E+02  0.26266263441E+02  0.51100000000E-03 0.  1.
         22    1    1    0    0    0 -0.37964459816E+02  0.23971825922E+02  0.43477595563E+02  0.62499999705E+02  0.00000000000E+00 0. -1.
</event>
<event>
 4    1  0.1964735E-002  0.9118800E+02  0.7818608E-02  0.1130116E+00
         25   -1    0    0    0    0  0.00000000000E+00  0.00000000000E+00  0.99999998245E-14  0.12500000000E+03  0.12500000000E+03 0.  0.
        -11    1    1    0    0    0 -0.19773271317E+01  0.57777684868E+01  0.60193162308E+02  0.60502142278E+02  0.51100000000E-03 0.  1.
         11    1    1    0    0    0 -0.64285867258E-01  0.19235722997E+00  0.19875369341E+01  0.19978581787E+01  0.51100000000E-03 0. -1.
         22    1    1    0    0    0  0.20416129990E+01 -0.59701257168E+01 -0.62180699242E+02  0.62499999544E+02  0.00000000000E+00 0.  1.
</event>
<event>
 4    1  0.1964735E-002  0.9118800E+02  0.7818608E-02  0.1130116E+00
         25   -1    0    0    0    0  0.00000000000E+00  0.00000000000E+00  0.99999998245E-14  0.12500000000E+03  0.12500000000E+03 0.  0.
        -11    1    1    0    0    0 -0.20398107517E+01 -0.15414227844E+01 -0.58778792323E+00  0.26234151419E+01  0.51100000000E-03 0. -1.
         11    1    1    0    0    0 -0.44344786402E+02 -0.38355454119E+02 -0.12163531492E+02  0.59879482633E+02  0.51100000000E-03 0.  1.
         22    1    1    0    0    0  0.46384597153E+02  0.39896876904E+02  0.12751319415E+02  0.62497102226E+02  0.00000000000E+00 0.  1.
</event>
<event>
 4    1  0.1964735E-002  0.9118800E+02  0.7818608E-02  0.1130116E+00
         25   -1    0    0    0    0  0.00000000000E+00  0.00000000000E+00  0.99999998245E-14  0.12500000000E+03  0.12500000000E+03 0.  0.
        -11    1    1    0    0    0  0.41536608887E+02  0.41901161798E+02 -0.15715889514E+02  0.61057238894E+02  0.51100000000E-03 0. -1.
         11    1    1    0    0    0  0.98162931242E+00  0.99158148021E+00 -0.36706894015E+00  0.14427646401E+01  0.51100000000E-03 0.  1.
         22    1    1    0    0    0 -0.42518238200E+02 -0.42892743278E+02  0.16082958454E+02  0.62499996466E+02  0.00000000000E+00 0. -1.
</event>
<event>
 4    1  0.1964735E-002  0.9118800E+02  0.7818608E-02  0.1130116E+00
         25   -1    0    0    0    0  0.00000000000E+00  0.00000000000E+00  0.99999998245E-14  0.12500000000E+03  0.12500000000E+03 0.  0.
        -11    1    1    0    0    0 -0.12297653604E+02  0.23028417122E+01 -0.54859639192E+02  0.56268244833E+02  0.51100000000E-03 0.  1.
         11    1    1    0    0    0 -0.13551744332E+01  0.26748225367E+00 -0.60767440934E+01  0.62317624744E+01  0.51100000000E-03 0. -1.
         22    1    1    0    0    0  0.13652828037E+02 -0.25703239659E+01  0.60936383285E+02  0.62499992692E+02  0.00000000000E+00 0.  1.
</event>
<event>
 4    1  0.1964735E-002  0.9118800E+02  0.7818608E-02  0.1130116E+00
         25   -1    0    0    0    0  0.00000000000E+00  0.00000000000E+00  0.99999998245E-14  0.12500000000E+03  0.12500000000E+03 0.  0.
        -11    1    1    0    0    0  0.40588942124E+02 -0.36546121354E+02  0.20864493885E+02  0.58467155858E+02  0.51100000000E-03 0.  1.
         11    1    1    0    0    0  0.27997622080E+01 -0.25209763770E+01  0.14386943907E+01  0.40328441733E+01  0.51100000000E-03 0.  1.
         22    1    1    0    0    0 -0.43388704332E+02  0.39067097731E+02 -0.22303188276E+02  0.62499999968E+02  0.00000000000E+00 0.  1.
</event>
<event>
 4    1  0.1964735E-002  0.9118800E+02  0.7818608E-02  0.1130116E+00
         25   -1    0    0    0    0  0.00000000000E+00  0.00000000000E+00  0.99999998245E-14  0.12500000000E+03  0.12500000000E+03 0.  0.
        -11    1    1    0    0    0  0.29456285226E+02 -0.46044217739E+02 -0.24183871611E+02  0.59771250387E+02  0.51100000000E-03 0. -1.
         11    1    1    0    0    0  0.87080090558E+00 -0.20623181119E+01 -0.16369539936E+01  0.27732776367E+01  0.51100000000E-03 0.  1.
         22    1    1    0    0    0 -0.30327086132E+02  0.48106535851E+02  0.25820825604E+02  0.62455471976E+02  0.00000000000E+00 0. -1.
</event>
<event>
 4    1  0.1964735E-002  0.9118800E+02  0.7818608E-02  0.1130116E+00
         25   -1    0    0    0    0  0.00000000000E+00  0.00000000000E+00  0.99999998245E-14  0.12500000000E+03  0.12500000000E+03 0.  0.
        -11    1    1    0    0    0  0.34077786512E+02  0.29739780758E+02  0.17788059210E+02  0.48602110487E+02  0.51100000000E-03 0. -1.
         11    1    1    0    0    0  0.97644781245E+01  0.84993681668E+01  0.50564369901E+01  0.13897908029E+02  0.51100000000E-03 0.  1.
         22    1    1    0    0    0 -0.43842264636E+02 -0.38239148925E+02 -0.22844496200E+02  0.62499981484E+02  0.00000000000E+00 0. -1.
</event>
<event>
 4    1  0.1964735E-002  0.9118800E+02  0.7818608E-02  0.1130116E+00
         25   -1    0    0    0    0  0.00000000000E+00  0.00000000000E+00  0.99999998245E-14  0.12500000000E+03  0.12500000000E+03 0.  0.
        -11    1    1    0    0    0 -0.28963219266E+02 -0.75723045291E+01 -0.21261636246E+02  0.36718728767E+02  0.51100000000E-03 0.  1.
         11    1    1    0    0    0 -0.20115346004E+02 -0.47138749684E+01 -0.15427914226E+02  0.25785040231E+02  0.51100000000E-03 0. -1.
         22    1    1    0    0    0  0.49078565270E+02  0.12286179497E+02  0.36689550472E+02  0.62496231002E+02  0.00000000000E+00 0.  1.
</event>
<event>
 4    1  0.1964735E-002  0.9118800E+02  0.7818608E-02  0.1130116E+00
         25   -1    0    0    0    0  0.00000000000E+00  0.00000000000E+00  0.99999998245E-14  0.12500000000E+03  0.12500000000E+03 0.  0.
        -11    1    1    0    0    0  0.26592635209E+01 -0.44218895776E+00  0.27918877322E+01  0.38809600511E+01  0.51100000000E-03 0. -1.
         11    1    1    0    0    0  0.40116463006E+02 -0.67802968902E+01  0.42200583436E+02  0.58619043600E+02  0.51100000000E-03 0.  1.
         22    1    1    0    0    0 -0.42775726527E+02  0.72224858480E+01 -0.44992471168E+02  0.62499996348E+02  0.00000000000E+00 0.  1.
</event>
<event>
 4    1  0.1964735E-002  0.9118800E+02  0.7818608E-02  0.1130116E+00
         25   -1    0    0    0    0  0.00000000000E+00  0.00000000000E+00  0.99999998245E-14  0.12500000000E+03  0.12500000000E+03 0.  0.
        -11    1    1    0    0    0 -0.12995310020E+02 -0.31489619855E+02 -0.40023068267E+01  0.34300039377E+02  0.51100000000E-03 0.  1.
         11    1    1    0    0    0 -0.10726674331E+02 -0.25912347713E+02 -0.29592607709E+01  0.28200505860E+02  0.51100000000E-03 0. -1.
         22    1    1    0    0    0  0.23721984351E+02  0.57401967568E+02  0.69615675976E+01  0.62499454762E+02  0.00000000000E+00 0.  1.
</event>
<event>
 4    1  0.1964735E-002  0.9118800E+02  0.7818608E-02  0.1130116E+00
         25   -1    0    0    0    0  0.00000000000E+00  0.00000000000E+00  0.99999998245E-14  0.12500000000E+03  0.12500000000E+03 0.  0.
        -11    1    1    0    0    0  0.36349060871E+02  0.81670267955E+01  0.34503836303E+02  0.50778630080E+02  0.51100000000E-03 0. -1.
         11    1    1    0    0    0  0.83907078358E+01  0.18841391051E+01  0.79647068390E+01  0.11721369947E+02  0.51100000000E-03 0. -1.
         22    1    1    0    0    0 -0.44739768707E+02 -0.10051165901E+02 -0.42468543142E+02  0.62499999972E+02  0.00000000000E+00 0. -1.
</event>
<event>
 4    1  0.1964735E-002  0.9118800E+02  0.7818608E-02  0.1130116E+00
         25   -1    0    0    0    0  0.00000000000E+00  0.00000000000E+00  0.99999998245E-14  0.12500000000E+03  0.12500000000E+03 0.  0.
        -11    1    1    0    0    0  0.24902595937E+02  0.59819266889E+01  0.20152343366E+01  0.25690151829E+02  0.51100000000E-03 0. -1.
         11    1    1    0    0    0  0.35035464020E+02 -0.47916569930E+01 -0.14248910077E+02  0.38124469235E+02  0.51100000000E-03 0.  1.
         22    1    1    0    0    0 -0.59938059957E+02 -0.11902696959E+01  0.12233675740E+02  0.61185378935E+02  0.00000000000E+00 0.  1.
</event>
<event>
 4    1  0.1964735E-002  0.9118800E+02  0.7818608E-02  0.1130116E+00
         25   -1    0    0    0    0  0.00000000000E+00  0.00000000000E+00  0.99999998245E-14  0.12500000000E+03  0.12500000000E+03 0.  0.
        -11    1    1    0    0    0  0.18101438499E+01 -0.11540894010E+01 -0.13531583205E+01  0.25376329136E+01  0.51100000000E-03 0.  1.
         11    1    1    0    0    0  0.13498366452E+02 -0.40258995886E+02  0.43950370249E+02  0.61111600305E+02  0.51100000000E-03 0. -1.
         22    1    1    0    0    0 -0.15308510302E+02  0.41413085287E+02 -0.42597211928E+02  0.61350766781E+02  0.00000000000E+00 0. -1.
</event>
<event>
 4    1  0.1964735E-002  0.9118800E+02  0.7818608E-02  0.1130116E+00
         25   -1    0    0    0    0  0.00000000000E+00  0.00000000000E+00  0.99999998245E-14  0.12500000000E+03  0.12500000000E+03 0.  0.
        -11    1    1    0    0    0  0.13024169315E+02 -0.25940221429E+02  0.51010784923E+02  0.58690921383E+02  0.51100000000E-03 0.  1.
         11    1    1    0    0    0  0.98771971157E+00 -0.20241679194E+01  0.30860949245E+01  0.38205795553E+01  0.51100000000E-03 0. -1.
         22    1    1    0    0    0 -0.14011889026E+02  0.27964389348E+02 -0.54096879848E+02  0.62488499061E+02  0.00000000000E+00 0.  1.
</event>
<event>
 4    1  0.1964735E-002  0.9118800E+02  0.7818608E-02  0.1130116E+00
         25   -1    0    0    0    0  0.00000000000E+00  0.00000000000E+00  0.99999998245E-14  0.12500000000E+03  0.12500000000E+03 0.  0.
        -11    1    1    0    0    0  0.13264703973E+02  0.58387916104E+02 -0.96426943002E+01  0.60647198387E+02  0.51100000000E-03 0.  1.
         11    1    1    0    0    0  0.71728641162E+00 -0.44351210373E+01 -0.50043881410E+01  0.67252285715E+01  0.51100000000E-03 0. -1.
         22    1    1    0    0    0 -0.13981990385E+02 -0.53952795067E+02  0.14647082441E+02  0.57627573042E+02  0.00000000000E+00 0.  1.
</event>
<event>
 4    1  0.1964735E-002  0.9118800E+02  0.7818608E-02  0.1130116E+00
         25   -1    0    0    0    0  0.00000000000E+00  0.00000000000E+00  0.99999998245E-14  0.12500000000E+03  0.12500000000E+03 0.  0.
        -11    1    1    0    0    0 -0.16578029973E+01 -0.59050563960E+01 -0.97563049961E+01  0.11524039624E+02  0.51100000000E-03 0. -1.
         11    1    1    0    0    0 -0.15727054275E+02 -0.27746716511E+02 -0.39863172060E+02  0.51051865786E+02  0.51100000000E-03 0.  1.
         22    1    1    0    0    0  0.17384857272E+02  0.33651772907E+02  0.49619477056E+02  0.62424094590E+02  0.00000000000E+00 0.  1.
</event>
<event>
 4    1  0.1964735E-002  0.9118800E+02  0.7818608E-02  0.1130116E+00
         25   -1    0    0    0    0  0.00000000000E+00  0.00000000000E+00  0.99999998245E-14  0.12500000000E+03  0.12500000000E+03 0.  0.
        -11    1    1    0    0    0 -0.36349053053E+02 -0.38861376016E+02 -0.17764585043E+02  0.56098490940E+02  0.51100000000E-03 0.  1.
         11    1    1    0    0    0 -0.41467319779E+01 -0.44359293882E+01 -0.20264412538E+01  0.64015092010E+01  0.51100000000E-03 0. -1.
         22    1    1    0    0    0  0.40495785031E+02  0.43297305404E+02  0.19791026296E+02  0.62499999859E+02  0.00000000000E+00 0.  1.
</event>
<event>
 4    1  0.1964735E-002  0.9118800E+02  0.7818608E-02  0.1130116E+00
         25   -1    0    0    0    0  0.00000000000E+00  0.00000000000E+00  0.99999998245E-14  0.12500000000E+03  0.12500000000E+03 0.  0.
        -11    1    1    0    0    0  0.29021700216E+02  0.18930589704E+02 -0.31187472090E+02  0.46618501966E+02  0.51100000000E-03 0. -1.
         11    1    1    0    0    0 -0.38614472215E+01 -0.10457664675E+02 -0.18756796165E+02  0.21819507963E+02  0.51100000000E-03 0.  1.
         22    1    1    0    0    0 -0.25160252995E+02 -0.84729250294E+01  0.49944268255E+02  0.56561990071E+02  0.00000000000E+00 0. -1.
</event>
<event>
 4    1  0.1964735E-002  0.9118800E+02  0.7818608E-02  0.1130116E+00
         25   -1    0    0    0    0  0.00000000000E+00  0.00000000000E+00  0.99999998245E-14  0.12500000000E+03  0.12500000000E+03 0.  0.
        -11    1    1    0    0    0  0.20668834581E+01 -0.91685350096E+01  0.54550245733E+02  0.55353982253E+02  0.51100000000E-03 0. -1.
         11    1    1    0    0    0 -0.20331399312E+02  0.67609901709E+01 -0.15426200660E+02  0.26401599443E+02  0.51100000000E-03 0.  1.
         22    1    1    0    0    0  0.18264515854E+02  0.24075448387E+01 -0.39124045073E+02  0.43244418304E+02  0.00000000000E+00 0. -1.
</event>
<event>
 4    1  0.1964735E-002  0.9118800E+02  0.7818608E-02  0.1130116E+00
         25   -1    0    0    0    0  0.00000000000E+00  0.00000000000E+00  0.99999998245E-14  0.12500000000E+03  0.12500000000E+03 0.  0.
        -11    1    1    0    0    0  0.10213246873E+01  0.30692978033E+02 -0.32177557040E+02  0.44480301055E+02  0.51100000000E-03 0. -1.
         11    1    1    0    0    0 -0.32503909650E+00  0.12632883475E+02 -0.12854343411E+02  0.18025802065E+02  0.51100000000E-03 0.  1.
         22    1    1    0    0    0 -0.69628559084E+00 -0.43325861507E+02  0.45031900451E+02  0.62493896880E+02  0.00000000000E+00 0. -1.
</event>
<event>
 4    1  0.1964735E-002  0.9118800E+02  0.7818608E-02  0.1130116E+00
         25   -1    0    0    0    0  0.00000000000E+00  0.00000000000E+00  0.99999998245E-14  0.12500000000E+03  0.12500000000E+03 0.  0.
        -11    1    1    0    0    0 -0.36671528460E+01 -0.15920815175E+02 -0.27871219481E+02  0.32306736781E+02  0.51100000000E-03 0. -1.
         11    1    1    0    0    0 -0.34274284206E+01 -0.14879718442E+02 -0.26047645909E+02  0.30193263225E+02  0.51100000000E-03 0. -1.
         22    1    1    0    0    0  0.70945812666E+01  0.30800533617E+02  0.53918865390E+02  0.62499999995E+02  0.00000000000E+00 0. -1.
</event>
<event>
 4    1  0.1964735E-002  0.9118800E+02  0.7818608E-02  0.1130116E+00
         25   -1    0    0    0    0  0.00000000000E+00  0.00000000000E+00  0.99999998245E-14  0.12500000000E+03  0.12500000000E+03 0.  0.
        -11    1    1    0    0    0  0.40178700163E+01 -0.37857534298E+01 -0.81378140150E+01  0.98335764451E+01  0.51100000000E-03 0. -1.
         11    1    1    0    0    0  0.14157235132E+02 -0.25598828945E+02 -0.43869433203E+02  0.52728118872E+02  0.51100000000E-03 0.  1.
         22    1    1    0    0    0 -0.18175105149E+02  0.29384582375E+02  0.52007247218E+02  0.62438304683E+02  0.00000000000E+00 0.  1.
</event>
<event>
 4    1  0.1964735E-002  0.9118800E+02  0.7818608E-02  0.1130116E+00
         25   -1    0    0    0    0  0.00000000000E+00  0.00000000000E+00  0.99999998245E-14  0.12500000000E+03  0.12500000000E+03 0.  0.
        -11    1    1    0    0    0  0.37871851838E+01 -0.11624648221E+02  0.22745541818E+02  0.25823146414E+02  0.51100000000E-03 0.  1.
         11    1    1    0    0    0  0.66053030235E+01 -0.17907336762E+02  0.31333654033E+02  0.36689243837E+02  0.51100000000E-03 0. -1.
         22    1    1    0    0    0 -0.10392488207E+02  0.29531984983E+02 -0.54079195852E+02  0.62487609749E+02  0.00000000000E+00 0. -1.
</event>
<event>
 4    1  0.1964735E-002  0.9118800E+02  0.7818608E-02  0.1130116E+00
         25   -1    0    0    0    0  0.00000000000E+00  0.00000000000E+00  0.99999998245E-14  0.12500000000E+03  0.12500000000E+03 0.  0.
        -11    1    1    0    0    0  0.14776241608E+02 -0.58921148828E+02 -0.69340037691E+01  0.61140162773E+02  0.51100000000E-03 0. -1.
         11    1    1    0    0    0  0.32878787233E+00 -0.13104733664E+01 -0.15399767285E+00  0.13598372893E+01  0.51100000000E-03 0. -1.
         22    1    1    0    0    0 -0.15105029481E+02  0.60231622195E+02  0.70880014420E+01  0.62499999938E+02  0.00000000000E+00 0. -1.
</event>
<event>
 4    1  0.1964735E-002  0.9118800E+02  0.7818608E-02  0.1130116E+00
         25   -1    0    0    0    0  0.00000000000E+00  0.00000000000E+00  0.99999998245E-14  0.12500000000E+03  0.12500000000E+03 0.  0.
        -11    1    1    0    0    0 -0.26171887862E+01  0.53932326901E+00 -0.15306260168E+01  0.30795069403E+01  0.51100000000E-03 0.  1.
         11    1    1    0    0    0 -0.50967482971E+02  0.79440960285E+01 -0.29498420532E+02  0.59421795633E+02  0.51100000000E-03 0. -1.
         22    1    1    0    0    0  0.53584671757E+02 -0.84834192975E+01  0.31029046549E+02  0.62498697427E+02  0.00000000000E+00 0. -1.
</event>
<event>
 4    1  0.1964735E-002  0.9118800E+02  0.7818608E-02  0.1130116E+00
         25   -1    0    0    0    0  0.00000000000E+00  0.00000000000E+00  0.99999998245E-14  0.12500000000E+03  0.12500000000E+03 0.  0.
        -11    1    1    0    0    0  0.37239346632E+02 -0.14448095663E+02 -0.77217742405E+01  0.40683438935E+02  0.51100000000E-03 0.  1.
         11    1    1    0    0    0  0.19971313662E+02 -0.76139383386E+01 -0.43773222505E+01  0.21817112017E+02  0.51100000000E-03 0. -1.
         22    1    1    0    0    0 -0.57210660294E+02  0.22062034001E+02  0.12099096491E+02  0.62499449049E+02  0.00000000000E+00 0. -1.
</event>
<event>
 4    1  0.1964735E-002  0.9118800E+02  0.7818608E-02  0.1130116E+00
         25   -1    0    0    0    0  0.00000000000E+00  0.00000000000E+00  0.99999998245E-14  0.12500000000E+03  0.12500000000E+03 0.  0.
        -11    1    1    0    0    0 -0.18658418905E+00  0.29513999654E+01  0.25570313825E+02  0.25740756103E+02  0.51100000000E-03 0.  1.
         11    1    1    0    0    0 -0.21766938941E+00  0.42112722106E+01  0.36516575839E+02  0.36759250603E+02  0.51100000000E-03 0. -1.
         22    1    1    0    0    0  0.40425357846E+00 -0.71626721760E+01 -0.62086889664E+02  0.62499993294E+02  0.00000000000E+00 0. -1.
</event>
<event>
 4    1  0.1964735E-002  0.9118800E+02  0.7818608E-02  0.1130116E+00
         25   -1    0    0    0    0  0.00000000000E+00  0.00000000000E+00  0.99999998245E-14  0.12500000000E+03  0.12500000000E+03 0.  0.
        -11    1    1    0    0    0 -0.36676058016E+02 -0.32436444319E+02 -0.35406887402E+02  0.60422709534E+02  0.51100000000E-03 0.  1.
         11    1    1    0    0    0  0.19392242304E+01 -0.23414840914E+01 -0.12215077775E+01  0.32764645393E+01  0.51100000000E-03 0. -1.
         22    1    1    0    0    0  0.34736833786E+02  0.34777928410E+02  0.36628395179E+02  0.61300825927E+02  0.00000000000E+00 0.  1.
</event>
<event>
 4    1  0.1964735E-002  0.9118800E+02  0.7818608E-02  0.1130116E+00
         25   -1    0    0    0    0  0.00000000000E+00  0.00000000000E+00  0.99999998245E-14  0.12500000000E+03  0.12500000000E+03 0.  0.
        -11    1    1    0    0    0  0.52176364079E+01 -0.78277642053E+01 -0.87306289532E+01  0.12834387571E+02  0.51100000000E-03 0. -1.
         11    1    1    0    0    0  0.32840606989E+01  0.10857984730E+02 -0.50750901109E+02  0.52003219619E+02  0.51100000000E-03 0.  1.
         22    1    1    0    0    0 -0.85016971069E+01 -0.30302205243E+01  0.59481530062E+02  0.60162392810E+02  0.00000000000E+00 0.  1.
</event>
<event>
 4    1  0.1964735E-002  0.9118800E+02  0.7818608E-02  0.1130116E+00
         25   -1    0    0    0    0  0.00000000000E+00  0.00000000000E+00  0.99999998245E-14  0.12500000000E+03  0.12500000000E+03 0.  0.
        -11    1    1    0    0    0 -0.20660364764E+02 -0.96105033347E+01  0.44367341497E+02  0.49876582064E+02  0.51100000000E-03 0. -1.
         11    1    1    0    0    0 -0.51722107439E+01 -0.24192377686E+01  0.11258236971E+02  0.12623485070E+02  0.51100000000E-03 0.  1.
         22    1    1    0    0    0  0.25832575508E+02  0.12029741103E+02 -0.55625578468E+02  0.62499932866E+02  0.00000000000E+00 0. -1.
</event>
<event>
 4    1  0.1964735E-002  0.9118800E+02  0.7818608E-02  0.1130116E+00
         25   -1    0    0    0    0  0.00000000000E+00  0.00000000000E+00  0.99999998245E-14  0.12500000000E+03  0.12500000000E+03 0.  0.
        -11    1    1    0    0    0  0.59161924136E+01 -0.12132120007E+01  0.10068137292E+02  0.11740553855E+02  0.51100000000E-03 0.  1.
         11    1    1    0    0    0  0.26540081655E+02 -0.10460396273E+02  0.42018827651E+02  0.50787574287E+02  0.51100000000E-03 0. -1.
         22    1    1    0    0    0 -0.32456274069E+02  0.11673608273E+02 -0.52086964943E+02  0.62471871859E+02  0.00000000000E+00 0. -1.
</event>
<event>
 4    1  0.1964735E-002  0.9118800E+02  0.7818608E-02  0.1130116E+00
         25   -1    0    0    0    0  0.00000000000E+00  0.00000000000E+00  0.99999998245E-14  0.12500000000E+03  0.12500000000E+03 0.  0.
        -11    1    1    0    0    0  0.44715896546E+02 -0.21284532102E+02 -0.11517001957E+02  0.50844705182E+02  0.51100000000E-03 0. -1.
         11    1    1    0    0    0  0.10258062218E+02 -0.48796047871E+01 -0.26092002362E+01  0.11655312500E+02  0.51100000000E-03 0.  1.
         22    1    1    0    0    0 -0.54973958764E+02  0.26164136889E+02  0.14126202193E+02  0.62499982318E+02  0.00000000000E+00 0. -1.
</event>
<event>
 4    1  0.1964735E-002  0.9118800E+02  0.7818608E-02  0.1130116E+00
         25   -1    0    0    0    0  0.00000000000E+00  0.00000000000E+00  0.99999998245E-14  0.12500000000E+03  0.12500000000E+03 0.  0.
        -11    1    1    0    0    0  0.11101648109E+02 -0.36416196451E+02 -0.17981417411E+02  0.42103649807E+02  0.51100000000E-03 0. -1.
         11    1    1    0    0    0  0.53778050810E+01 -0.17641188107E+02 -0.87108435791E+01  0.20396350199E+02  0.51100000000E-03 0. -1.
         22    1    1    0    0    0 -0.16479453190E+02  0.54057384557E+02  0.26692260990E+02  0.62499999995E+02  0.00000000000E+00 0. -1.
</event>
<event>
 4    1  0.1964735E-002  0.9118800E+02  0.7818608E-02  0.1130116E+00
         25   -1    0    0    0    0  0.00000000000E+00  0.00000000000E+00  0.99999998245E-14  0.12500000000E+03  0.12500000000E+03 0.  0.
        -11    1    1    0    0    0  0.16975928363E+02  0.99150915429E+01 -0.19528991358E+02  0.27710515834E+02  0.51100000000E-03 0. -1.
         11    1    1    0    0    0  0.21315451052E+02  0.12445479541E+02 -0.24516724852E+02  0.34789484220E+02  0.51100000000E-03 0.  1.
         22    1    1    0    0    0 -0.38291379415E+02 -0.22360571084E+02  0.44045716210E+02  0.62499999945E+02  0.00000000000E+00 0.  1.
</event>
<event>
 4    1  0.1964735E-002  0.9118800E+02  0.7818608E-02  0.1130116E+00
         25   -1    0    0    0    0  0.00000000000E+00  0.00000000000E+00  0.99999998245E-14  0.12500000000E+03  0.12500000000E+03 0.  0.
        -11    1    1    0    0    0  0.17751378384E+02  0.85547827541E+00  0.17477198873E+02  0.24925805069E+02  0.51100000000E-03 0. -1.
         11    1    1    0    0    0  0.26783168478E+02  0.13375658164E+01  0.26319073801E+02  0.37574204477E+02  0.51100000000E-03 0.  1.
         22    1    1    0    0    0 -0.44534546862E+02 -0.21930440918E+01 -0.43796272674E+02  0.62499990454E+02  0.00000000000E+00 0. -1.
</event>
<event>
 4    1  0.1964735E-002  0.9118800E+02  0.7818608E-02  0.1130116E+00
         25   -1    0    0    0    0  0.00000000000E+00  0.00000000000E+00  0.99999998245E-14  0.12500000000E+03  0.12500000000E+03 0.  0.
        -11    1    1    0    0    0 -0.80900297638E+01  0.40393932950E+01 -0.60402258566E+01  0.10874263581E+02  0.51100000000E-03 0.  1.
         11    1    1    0    0    0 -0.38000894338E+02  0.20922159214E+02 -0.27995206542E+02  0.51628832122E+02  0.51100000000E-03 0. -1.
         22    1    1    0    0    0  0.46090924102E+02 -0.24961552509E+02  0.34035432398E+02  0.62496904297E+02  0.00000000000E+00 0. -1.
</event>
<event>
 4    1  0.1964735E-002  0.9118800E+02  0.7818608E-02  0.1130116E+00
         25   -1    0    0    0    0  0.00000000000E+00  0.00000000000E+00  0.99999998245E-14  0.12500000000E+03  0.12500000000E+03 0.  0.
        -11    1    1    0    0    0 -0.51133949762E+01  0.82978763292E+01 -0.21565821685E+02  0.23666140897E+02  0.51100000000E-03 0. -1.
         11    1    1    0    0    0  0.40494197754E+01  0.26139091425E+02 -0.29570082006E+02  0.39674168563E+02  0.51100000000E-03 0.  1.
         22    1    1    0    0    0  0.10639752008E+01 -0.34436967754E+02  0.51135903690E+02  0.61659690541E+02  0.00000000000E+00 0.  1.
</event>
<event>
 4    1  0.1964735E-002  0.9118800E+02  0.7818608E-02  0.1130116E+00
         25   -1    0    0    0    0  0.00000000000E+00  0.00000000000E+00  0.99999998245E-14  0.12500000000E+03  0.12500000000E+03 0.  0.
        -11    1    1    0    0    0 -0.23568137500E+02  0.76300553085E+01 -0.33278208443E+02  0.41486311075E+02  0.51100000000E-03 0. -1.
         11    1    1    0    0    0 -0.11959929388E+02  0.38596665231E+01 -0.16841568442E+02  0.21013694689E+02  0.51100000000E-03 0.  1.
         22    1    1    0    0    0  0.35528066888E+02 -0.11489721832E+02  0.50119776885E+02  0.62499994236E+02  0.00000000000E+00 0. -1.
</event>
<event>
 4    1  0.1964735E-002  0.9118800E+02  0.7818608E-02  0.1130116E+00
         25   -1    0    0    0    0  0.00000000000E+00  0.00000000000E+00  0.99999998245E-14  0.12500000000E+03  0.12500000000E+03 0.  0.
        -11    1    1    0    0    0  0.11164167834E+02  0.24693842710E+02 -0.42004411172E+02  0.49987949242E+02  0.51100000000E-03 0.  1.
         11    1    1    0    0    0  0.37291224549E+01  0.95481726805E+01 -0.77168846475E+01  0.12830598768E+02  0.51100000000E-03 0. -1.
         22    1    1    0    0    0 -0.14893290289E+02 -0.34242015391E+02  0.49721295820E+02  0.62181451990E+02  0.00000000000E+00 0.  1.
</event>
<event>
 4    1  0.1964735E-002  0.9118800E+02  0.7818608E-02  0.1130116E+00
         25   -1    0    0    0    0  0.00000000000E+00  0.00000000000E+00  0.99999998245E-14  0.12500000000E+03  0.12500000000E+03 0.  0.
        -11    1    1    0    0    0  0.55289360524E+02  0.80978154871E+01 -0.23550627909E+02  0.60639261853E+02  0.51100000000E-03 0. -1.
         11    1    1    0    0    0  0.16970165037E+01  0.24800754069E+00 -0.72178538936E+00  0.18607383383E+01  0.51100000000E-03 0.  1.
         22    1    1    0    0    0 -0.56986377028E+02 -0.83458230277E+01  0.24272413299E+02  0.62499999809E+02  0.00000000000E+00 0. -1.
</event>
<event>
 4    1  0.1964735E-002  0.9118800E+02  0.7818608E-02  0.1130116E+00
         25   -1    0    0    0    0  0.00000000000E+00  0.00000000000E+00  0.99999998245E-14  0.12500000000E+03  0.12500000000E+03 0.  0.
        -11    1    1    0    0    0 -0.31652937980E+02 -0.28426362558E+02 -0.43587893575E+02  0.60908710687E+02  0.51100000000E-03 0. -1.
         11    1    1    0    0    0 -0.82902276230E+00 -0.74025561238E+00 -0.11388368351E+01  0.15912908943E+01  0.51100000000E-03 0.  1.
         22    1    1    0    0    0  0.32481960742E+02  0.29166618170E+02  0.44726730410E+02  0.62499998418E+02  0.00000000000E+00 0. -1.
</event>
<event>
 4    1  0.1964735E-002  0.9118800E+02  0.7818608E-02  0.1130116E+00
         25   -1    0    0    0    0  0.00000000000E+00  0.00000000000E+00  0.99999998245E-14  0.12500000000E+03  0.12500000000E+03 0.  0.
        -11    1    1    0    0    0 -0.87586107086E+01  0.96525556020E+01 -0.60748580335E+01  0.14380159651E+02  0.51100000000E-03 0. -1.
         11    1    1    0    0    0 -0.29269944723E+02  0.32421116965E+02 -0.20190705211E+02  0.48119882237E+02  0.51100000000E-03 0.  1.
         22    1    1    0    0    0  0.38028555431E+02 -0.42073672567E+02  0.26265563244E+02  0.62499958112E+02  0.00000000000E+00 0.  1.
</event>
<event>
 4    1  0.1964735E-002  0.9118800E+02  0.7818608E-02  0.1130116E+00
         25   -1    0    0    0    0  0.00000000000E+00  0.00000000000E+00  0.99999998245E-14  0.12500000000E+03  0.12500000000E+03 0.  0.
        -11    1    1    0    0    0 -0.25053640193E+02  0.19242267101E+02  0.37761095223E+02  0.49232611578E+02  0.51100000000E-03 0.  1.
         11    1    1    0    0    0 -0.68967272659E+01  0.48879641298E+01  0.10227941295E+02  0.13269055117E+02  0.51100000000E-03 0. -1.
         22    1    1    0    0    0  0.31950367458E+02 -0.24130231231E+02 -0.47989036518E+02  0.62498333305E+02  0.00000000000E+00 0.  1.
</event>
<event>
 4    1  0.1964735E-002  0.9118800E+02  0.7818608E-02  0.1130116E+00
         25   -1    0    0    0    0  0.00000000000E+00  0.00000000000E+00  0.99999998245E-14  0.12500000000E+03  0.12500000000E+03 0.  0.
        -11    1    1    0    0    0 -0.49152610941E+02  0.37147608252E+02  0.97773664707E+01  0.62382055565E+02  0.51100000000E-03 0.  1.
         11    1    1    0    0    0  0.70181194962E-01 -0.14599464372E-01  0.25007573760E+00  0.26014742002E+00  0.51100000000E-03 0. -1.
         22    1    1    0    0    0  0.49082429746E+02 -0.37133008787E+02 -0.10027442208E+02  0.62357797015E+02  0.00000000000E+00 0.  1.
</event>
<event>
 4    1  0.1964735E-002  0.9118800E+02  0.7818608E-02  0.1130116E+00
         25   -1    0    0    0    0  0.00000000000E+00  0.00000000000E+00  0.99999998245E-14  0.12500000000E+03  0.12500000000E+03 0.  0.
        -11    1    1    0    0    0 -0.32559084687E+02 -0.55914549876E+01  0.51375189713E+01  0.33432805236E+02  0.51100000000E-03 0. -1.
         11    1    1    0    0    0 -0.29179248674E+02  0.48358622782E+01  0.36522067024E+00  0.29579511551E+02  0.51100000000E-03 0.  1.
         22    1    1    0    0    0  0.61738333361E+02  0.75559270949E+00 -0.55027396416E+01  0.61987683213E+02  0.00000000000E+00 0.  1.
</event>
<event>
 4    1  0.1964735E-002  0.9118800E+02  0.7818608E-02  0.1130116E+00
         25   -1    0    0    0    0  0.00000000000E+00  0.00000000000E+00  0.99999998245E-14  0.12500000000E+03  0.12500000000E+03 0.  0.
        -11    1    1    0    0    0 -0.35230689866E+01  0.15510172775E+02 -0.84858587666E+01  0.18027403414E+02  0.51100000000E-03 0.  1.
         11    1    1    0    0    0 -0.28300564413E+02 -0.11406379396E+02 -0.39089167894E+02  0.49588209122E+02  0.51100000000E-03 0. -1.
         22    1    1    0    0    0  0.31823633400E+02 -0.41037933786E+01  0.47575026661E+02  0.57384387464E+02  0.00000000000E+00 0. -1.
</event>
<event>
 4    1  0.1964735E-002  0.9118800E+02  0.7818608E-02  0.1130116E+00
         25   -1    0    0    0    0  0.00000000000E+00  0.00000000000E+00  0.99999998245E-14  0.12500000000E+03  0.12500000000E+03 0.  0.
        -11    1    1    0    0    0  0.20032220942E+02 -0.13687006699E+01 -0.25098466008E+02  0.32141814100E+02  0.51100000000E-03 0.  1.
         11    1    1    0    0    0  0.18968559382E+02 -0.12472003274E+01 -0.23669794129E+02  0.30358209895E+02  0.51100000000E-03 0. -1.
         22    1    1    0    0    0 -0.39000780324E+02  0.26159009973E+01  0.48768260137E+02  0.62499976005E+02  0.00000000000E+00 0.  1.
</event>
<event>
 4    1  0.1964735E-002  0.9118800E+02  0.7818608E-02  0.1130116E+00
         25   -1    0    0    0    0  0.00000000000E+00  0.00000000000E+00  0.99999998245E-14  0.12500000000E+03  0.12500000000E+03 0.  0.
        -11    1    1    0    0    0  0.73141420434E+00 -0.13880356851E+01 -0.14269456479E+01  0.21207979500E+01  0.51100000000E-03 0.  1.
         11    1    1    0    0    0  0.19786982528E+02 -0.38256820358E+02 -0.42315868717E+02  0.60379977865E+02  0.51100000000E-03 0. -1.
         22    1    1    0    0    0 -0.20518396732E+02  0.39644856043E+02  0.43742814365E+02  0.62499224185E+02  0.00000000000E+00 0. -1.
</event>
<event>
 4    1  0.1964735E-002  0.9118800E+02  0.7818608E-02  0.1130116E+00
         25   -1    0    0    0    0  0.00000000000E+00  0.00000000000E+00  0.99999998245E-14  0.12500000000E+03  0.12500000000E+03 0.  0.
        -11    1    1    0    0    0  0.32833680557E+02  0.31899166854E+02  0.15428171469E+02  0.48307720915E+02  0.51100000000E-03 0. -1.
         11    1    1    0    0    0  0.96465924595E+01  0.94433670993E+01  0.43815147366E+01  0.14192660071E+02  0.51100000000E-03 0.  1.
         22    1    1    0    0    0 -0.42480273017E+02 -0.41342533953E+02 -0.19809686206E+02  0.62499619013E+02  0.00000000000E+00 0. -1.
</event>
<event>
 4    1  0.1964735E-002  0.9118800E+02  0.7818608E-02  0.1130116E+00
         25   -1    0    0    0    0  0.00000000000E+00  0.00000000000E+00  0.99999998245E-14  0.12500000000E+03  0.12500000000E+03 0.  0.
        -11    1    1    0    0    0  0.45315112826E+02  0.24400074261E+02  0.21283448224E+02  0.55693879762E+02  0.51100000000E-03 0. -1.
         11    1    1    0    0    0 -0.13504300483E+02  0.11679107069E+02 -0.60496944869E+01  0.18851166465E+02  0.51100000000E-03 0.  1.
         22    1    1    0    0    0 -0.31810812343E+02 -0.36079181330E+02 -0.15233753737E+02  0.50454953773E+02  0.00000000000E+00 0. -1.
</event>
<event>
 4    1  0.1964735E-002  0.9118800E+02  0.7818608E-02  0.1130116E+00
         25   -1    0    0    0    0  0.00000000000E+00  0.00000000000E+00  0.99999998245E-14  0.12500000000E+03  0.12500000000E+03 0.  0.
        -11    1    1    0    0    0  0.30356238634E+02  0.98736396340E+01  0.11175640148E+02  0.33821367752E+02  0.51100000000E-03 0. -1.
         11    1    1    0    0    0  0.78292681971E+01  0.32367269554E+02 -0.87542581162E+00  0.33312219222E+02  0.51100000000E-03 0.  1.
         22    1    1    0    0    0 -0.38185506832E+02 -0.42240909188E+02 -0.10300214336E+02  0.57866413025E+02  0.00000000000E+00 0. -1.
</event>
<event>
 4    1  0.1964735E-002  0.9118800E+02  0.7818608E-02  0.1130116E+00
         25   -1    0    0    0    0  0.00000000000E+00  0.00000000000E+00  0.99999998245E-14  0.12500000000E+03  0.12500000000E+03 0.  0.
        -11    1    1    0    0    0  0.15406802110E+02  0.13951014194E+01  0.10481440452E+02  0.18686263763E+02  0.51100000000E-03 0. -1.
         11    1    1    0    0    0  0.36196921003E+02  0.32256319078E+01  0.24474973122E+02  0.43813766112E+02  0.51100000000E-03 0.  1.
         22    1    1    0    0    0 -0.51603723113E+02 -0.46207333271E+01 -0.34956413575E+02  0.62499970125E+02  0.00000000000E+00 0.  1.
</event>
<event>
 4    1  0.1964735E-002  0.9118800E+02  0.7818608E-02  0.1130116E+00
         25   -1    0    0    0    0  0.00000000000E+00  0.00000000000E+00  0.99999998245E-14  0.12500000000E+03  0.12500000000E+03 0.  0.
        -11    1    1    0    0    0 -0.31023458517E+02  0.14930881480E+02  0.85250720916E+01  0.35469184577E+02  0.51100000000E-03 0. -1.
         11    1    1    0    0    0 -0.23613108604E+02  0.11392598818E+02  0.65800488373E+01  0.27030857343E+02  0.51100000000E-03 0.  1.
         22    1    1    0    0    0  0.54636567121E+02 -0.26323480297E+02 -0.15105120929E+02  0.62499958080E+02  0.00000000000E+00 0.  1.
</event>
<event>
 4    1  0.1964735E-002  0.9118800E+02  0.7818608E-02  0.1130116E+00
         25   -1    0    0    0    0  0.00000000000E+00  0.00000000000E+00  0.99999998245E-14  0.12500000000E+03  0.12500000000E+03 0.  0.
        -11    1    1    0    0    0  0.43234288134E+01 -0.38597787833E+01 -0.22144418192E+01  0.62043276664E+01  0.51100000000E-03 0.  1.
         11    1    1    0    0    0  0.99367615143E+01 -0.53446702973E+02  0.18691141828E+02  0.57486068496E+02  0.51100000000E-03 0. -1.
         22    1    1    0    0    0 -0.14260190328E+02  0.57306481756E+02 -0.16476700009E+02  0.61309603837E+02  0.00000000000E+00 0. -1.
</event>
<event>
 4    1  0.1964735E-002  0.9118800E+02  0.7818608E-02  0.1130116E+00
         25   -1    0    0    0    0  0.00000000000E+00  0.00000000000E+00  0.99999998245E-14  0.12500000000E+03  0.12500000000E+03 0.  0.
        -11    1    1    0    0    0  0.22614381961E+01 -0.41415698938E+02 -0.42661855510E+01  0.41696217582E+02  0.51100000000E-03 0. -1.
         11    1    1    0    0    0  0.25366458390E+02 -0.74582173936E+01  0.60876066149E+01  0.27131921651E+02  0.51100000000E-03 0.  1.
         22    1    1    0    0    0 -0.27627896586E+02  0.48873916331E+02 -0.18214210639E+01  0.56171860767E+02  0.00000000000E+00 0. -1.
</event>
<event>
 4    1  0.1964735E-002  0.9118800E+02  0.7818608E-02  0.1130116E+00
         25   -1    0    0    0    0  0.00000000000E+00  0.00000000000E+00  0.99999998245E-14  0.12500000000E+03  0.12500000000E+03 0.  0.
        -11    1    1    0    0    0  0.10425194642E+02 -0.66539440908E+01  0.92926178010E+01  0.15469725309E+02  0.51100000000E-03 0.  1.
         11    1    1    0    0    0  0.31636664461E+02 -0.20176933317E+02  0.28352452819E+02  0.47030296166E+02  0.51100000000E-03 0. -1.
         22    1    1    0    0    0 -0.42061859103E+02  0.26830877408E+02 -0.37645070620E+02  0.62499978525E+02  0.00000000000E+00 0. -1.
</event>
<event>
 4    1  0.1964735E-002  0.9118800E+02  0.7818608E-02  0.1130116E+00
         25   -1    0    0    0    0  0.00000000000E+00  0.00000000000E+00  0.99999998245E-14  0.12500000000E+03  0.12500000000E+03 0.  0.
        -11    1    1    0    0    0  0.52170353647E+02  0.16831952259E+02 -0.28013059054E+02  0.61561285678E+02  0.51100000000E-03 0. -1.
         11    1    1    0    0    0  0.80317165370E+00  0.22180795399E+00 -0.43306505406E+00  0.93905754665E+00  0.51100000000E-03 0.  1.
         22    1    1    0    0    0 -0.52973525301E+02 -0.17053760213E+02  0.28446124108E+02  0.62499656775E+02  0.00000000000E+00 0. -1.
</event>
<event>
 4    1  0.1964735E-002  0.9118800E+02  0.7818608E-02  0.1130116E+00
         25   -1    0    0    0    0  0.00000000000E+00  0.00000000000E+00  0.99999998245E-14  0.12500000000E+03  0.12500000000E+03 0.  0.
        -11    1    1    0    0    0  0.12913121840E+02 -0.41218621484E+01 -0.51789111758E+01  0.14510671399E+02  0.51100000000E-03 0.  1.
         11    1    1    0    0    0  0.42708322047E+02 -0.13758357694E+02 -0.17020155199E+02  0.47989361964E+02  0.51100000000E-03 0. -1.
         22    1    1    0    0    0 -0.55621443887E+02  0.17880219843E+02  0.22199066374E+02  0.62499966637E+02  0.00000000000E+00 0. -1.
</event>
<event>
 4    1  0.1964735E-002  0.9118800E+02  0.7818608E-02  0.1130116E+00
         25   -1    0    0    0    0  0.00000000000E+00  0.00000000000E+00  0.99999998245E-14  0.12500000000E+03  0.12500000000E+03 0.  0.
        -11    1    1    0    0    0 -0.15480239363E+02  0.13372088557E+02 -0.54998853811E+02  0.58679847341E+02  0.51100000000E-03 0. -1.
         11    1    1    0    0    0 -0.10090361797E+01  0.87014537945E+00 -0.35802597758E+01  0.38201527870E+01  0.51100000000E-03 0.  1.
         22    1    1    0    0    0  0.16489275543E+02 -0.14242233937E+02  0.58579113587E+02  0.62499999872E+02  0.00000000000E+00 0. -1.
</event>
<event>
 4    1  0.1964735E-002  0.9118800E+02  0.7818608E-02  0.1130116E+00
         25   -1    0    0    0    0  0.00000000000E+00  0.00000000000E+00  0.99999998245E-14  0.12500000000E+03  0.12500000000E+03 0.  0.
        -11    1    1    0    0    0  0.19959575599E+01 -0.36788270017E-01 -0.41908892312E+01  0.46420634170E+01  0.51100000000E-03 0. -1.
         11    1    1    0    0    0  0.24895391545E+02 -0.49513794338E+00 -0.52225618334E+02  0.57857937159E+02  0.51100000000E-03 0.  1.
         22    1    1    0    0    0 -0.26891349105E+02  0.53192621340E+00  0.56416507565E+02  0.62499999424E+02  0.00000000000E+00 0.  1.
</event>
<event>
 4    1  0.1964735E-002  0.9118800E+02  0.7818608E-02  0.1130116E+00
         25   -1    0    0    0    0  0.00000000000E+00  0.00000000000E+00  0.99999998245E-14  0.12500000000E+03  0.12500000000E+03 0.  0.
        -11    1    1    0    0    0  0.95745039082E+01 -0.52048511597E+01 -0.46064783224E+02  0.47336305880E+02  0.51100000000E-03 0.  1.
         11    1    1    0    0    0 -0.73584423549E+01  0.61951352061E+01 -0.14308730199E+02  0.17241407550E+02  0.51100000000E-03 0. -1.
         22    1    1    0    0    0 -0.22160615534E+01 -0.99028404631E+00  0.60373513423E+02  0.60422286570E+02  0.00000000000E+00 0.  1.
</event>
<event>
 4    1  0.1964735E-002  0.9118800E+02  0.7818608E-02  0.1130116E+00
         25   -1    0    0    0    0  0.00000000000E+00  0.00000000000E+00  0.99999998245E-14  0.12500000000E+03  0.12500000000E+03 0.  0.
        -11    1    1    0    0    0 -0.14897609663E+02 -0.39165222330E+02 -0.94841317321E+01  0.42962799825E+02  0.51100000000E-03 0. -1.
         11    1    1    0    0    0 -0.67744221664E+01 -0.17810442943E+02 -0.43124838725E+01  0.19537200182E+02  0.51100000000E-03 0.  1.
         22    1    1    0    0    0  0.21672031830E+02  0.56975665274E+02  0.13796615605E+02  0.62499999993E+02  0.00000000000E+00 0.  1.
</event>
<event>
 4    1  0.1964735E-002  0.9118800E+02  0.7818608E-02  0.1130116E+00
         25   -1    0    0    0    0  0.00000000000E+00  0.00000000000E+00  0.99999998245E-14  0.12500000000E+03  0.12500000000E+03 0.  0.
        -11    1    1    0    0    0 -0.15890952412E+02  0.58351853788E+01 -0.58757269460E+01  0.17919149655E+02  0.51100000000E-03 0. -1.
         11    1    1    0    0    0 -0.41415141944E+02  0.23669288279E+01 -0.17005216029E+02  0.44832953358E+02  0.51100000000E-03 0.  1.
         22    1    1    0    0    0  0.57306094356E+02 -0.82021142067E+01  0.22880942975E+02  0.62247896987E+02  0.00000000000E+00 0.  1.
</event>
<event>
 4    1  0.1964735E-002  0.9118800E+02  0.7818608E-02  0.1130116E+00
         25   -1    0    0    0    0  0.00000000000E+00  0.00000000000E+00  0.99999998245E-14  0.12500000000E+03  0.12500000000E+03 0.  0.
        -11    1    1    0    0    0  0.56988329159E+01 -0.59059103636E+01 -0.23877721135E+02  0.25248802758E+02  0.51100000000E-03 0.  1.
         11    1    1    0    0    0  0.84060867389E+01 -0.87224736395E+01 -0.35226522301E+02  0.37251197489E+02  0.51100000000E-03 0. -1.
         22    1    1    0    0    0 -0.14104919655E+02  0.14628384003E+02  0.59104243436E+02  0.62499999754E+02  0.00000000000E+00 0.  1.
</event>
<event>
 4    1  0.1964735E-002  0.9118800E+02  0.7818608E-02  0.1130116E+00
         25   -1    0    0    0    0  0.00000000000E+00  0.00000000000E+00  0.99999998245E-14  0.12500000000E+03  0.12500000000E+03 0.  0.
        -11    1    1    0    0    0 -0.24996028361E+02 -0.20494258880E+02  0.45523916093E+01  0.32642615558E+02  0.51100000000E-03 0. -1.
         11    1    1    0    0    0 -0.22855827974E+02 -0.18765239169E+02  0.41159506020E+01  0.29857396454E+02  0.51100000000E-03 0.  1.
         22    1    1    0    0    0  0.47851856335E+02  0.39259498049E+02 -0.86683422113E+01  0.62499987987E+02  0.00000000000E+00 0. -1.
</event>
<event>
 4    1  0.1964735E-002  0.9118800E+02  0.7818608E-02  0.1130116E+00
         25   -1    0    0    0    0  0.00000000000E+00  0.00000000000E+00  0.99999998245E-14  0.12500000000E+03  0.12500000000E+03 0.  0.
        -11    1    1    0    0    0  0.84845090973E+01 -0.81260990060E+01 -0.62647121610E+01  0.13314165329E+02  0.51100000000E-03 0.  1.
         11    1    1    0    0    0  0.40670450064E+02 -0.14074712856E+02 -0.24571314452E+02  0.49557366199E+02  0.51100000000E-03 0. -1.
         22    1    1    0    0    0 -0.49154959162E+02  0.22200811862E+02  0.30836026613E+02  0.62128468473E+02  0.00000000000E+00 0. -1.
</event>
<event>
 4    1  0.1964735E-002  0.9118800E+02  0.7818608E-02  0.1130116E+00
         25   -1    0    0    0    0  0.00000000000E+00  0.00000000000E+00  0.99999998245E-14  0.12500000000E+03  0.12500000000E+03 0.  0.
        -11    1    1    0    0    0  0.95342667851E+01  0.31910032057E+02 -0.13996899210E+02  0.36125691367E+02  0.51100000000E-03 0.  1.
         11    1    1    0    0    0  0.71297458389E+01  0.22910008186E+02 -0.10959584443E+02  0.26378291117E+02  0.51100000000E-03 0. -1.
         22    1    1    0    0    0 -0.16664012624E+02 -0.54820040243E+02  0.24956483653E+02  0.62496017516E+02  0.00000000000E+00 0.  1.
</event>
<event>
 4    1  0.1964735E-002  0.9118800E+02  0.7818608E-02  0.1130116E+00
         25   -1    0    0    0    0  0.00000000000E+00  0.00000000000E+00  0.99999998245E-14  0.12500000000E+03  0.12500000000E+03 0.  0.
        -11    1    1    0    0    0  0.30841371837E+02  0.32007736377E+02 -0.12841474220E+01  0.44467228828E+02  0.51100000000E-03 0. -1.
         11    1    1    0    0    0  0.12398484648E+02  0.13085461233E+02 -0.48750220114E+00  0.18033007956E+02  0.51100000000E-03 0.  1.
         22    1    1    0    0    0 -0.43239856486E+02 -0.45093197611E+02  0.17716496231E+01  0.62499763216E+02  0.00000000000E+00 0. -1.
</event>
<event>
 4    1  0.1964735E-002  0.9118800E+02  0.7818608E-02  0.1130116E+00
         25   -1    0    0    0    0  0.00000000000E+00  0.00000000000E+00  0.99999998245E-14  0.12500000000E+03  0.12500000000E+03 0.  0.
        -11    1    1    0    0    0  0.25488996484E+02 -0.12562942928E+02 -0.15545983283E+02  0.32391265386E+02  0.51100000000E-03 0.  1.
         11    1    1    0    0    0  0.23683160430E+02 -0.11677906802E+02 -0.14466181007E+02  0.30108736082E+02  0.51100000000E-03 0. -1.
         22    1    1    0    0    0 -0.49172156914E+02  0.24240849730E+02  0.30012164291E+02  0.62499998533E+02  0.00000000000E+00 0.  1.
</event>
<event>
 4    1  0.1964735E-002  0.9118800E+02  0.7818608E-02  0.1130116E+00
         25   -1    0    0    0    0  0.00000000000E+00  0.00000000000E+00  0.99999998245E-14  0.12500000000E+03  0.12500000000E+03 0.  0.
        -11    1    1    0    0    0  0.24256965413E+02 -0.38067594598E+02 -0.42754610454E+02  0.62173136039E+02  0.51100000000E-03 0.  1.
         11    1    1    0    0    0  0.11225668068E+00 -0.23813338268E+00 -0.19686121325E+00  0.32873038908E+00  0.51100000000E-03 0. -1.
         22    1    1    0    0    0 -0.24369222094E+02  0.38305727981E+02  0.42951471667E+02  0.62498133572E+02  0.00000000000E+00 0.  1.
</event>
<event>
 4    1  0.1964735E-002  0.9118800E+02  0.7818608E-02  0.1130116E+00
         25   -1    0    0    0    0  0.00000000000E+00  0.00000000000E+00  0.99999998245E-14  0.12500000000E+03  0.12500000000E+03 0.  0.
        -11    1    1    0    0    0  0.52186253797E-01 -0.12601870133E-01 -0.53402550365E-01  0.75725198730E-01  0.51100000000E-03 0. -1.
         11    1    1    0    0    0  0.44600825746E+02 -0.11511136989E+02 -0.42131398082E+02  0.62424311263E+02  0.51100000000E-03 0.  1.
         22    1    1    0    0    0 -0.44653012000E+02  0.11523738859E+02  0.42184800633E+02  0.62499963539E+02  0.00000000000E+00 0.  1.
</event>
<event>
 4    1  0.1964735E-002  0.9118800E+02  0.7818608E-02  0.1130116E+00
         25   -1    0    0    0    0  0.00000000000E+00  0.00000000000E+00  0.99999998245E-14  0.12500000000E+03  0.12500000000E+03 0.  0.
        -11    1    1    0    0    0 -0.18833296656E+01  0.49580660530E+00 -0.79514490225E+00  0.21035708916E+01  0.51100000000E-03 0. -1.
         11    1    1    0    0    0 -0.59725013559E+02  0.62760843611E+01 -0.68670381502E+01  0.60445204051E+02  0.51100000000E-03 0.  1.
         22    1    1    0    0    0  0.61608343224E+02 -0.67718909664E+01  0.76621830524E+01  0.62451225058E+02  0.00000000000E+00 0.  1.
</event>
<event>
 4    1  0.1964735E-002  0.9118800E+02  0.7818608E-02  0.1130116E+00
         25   -1    0    0    0    0  0.00000000000E+00  0.00000000000E+00  0.99999998245E-14  0.12500000000E+03  0.12500000000E+03 0.  0.
        -11    1    1    0    0    0  0.22355885115E+02 -0.13764262340E+02  0.43129331932E+02  0.50491383326E+02  0.51100000000E-03 0.  1.
         11    1    1    0    0    0  0.53156639220E+01 -0.32731398363E+01  0.10258515883E+02  0.12008616727E+02  0.51100000000E-03 0. -1.
         22    1    1    0    0    0 -0.27671549037E+02  0.17037402176E+02 -0.53387847815E+02  0.62499999947E+02  0.00000000000E+00 0.  1.
</event>
<event>
 4    1  0.1964735E-002  0.9118800E+02  0.7818608E-02  0.1130116E+00
         25   -1    0    0    0    0  0.00000000000E+00  0.00000000000E+00  0.99999998245E-14  0.12500000000E+03  0.12500000000E+03 0.  0.
        -11    1    1    0    0    0 -0.30893911664E+02 -0.40461045768E+02  0.97731642249E+01  0.51836712297E+02  0.51100000000E-03 0. -1.
         11    1    1    0    0    0 -0.63553252214E+01 -0.83234632061E+01  0.20088571837E+01  0.10663287760E+02  0.51100000000E-03 0. -1.
         22    1    1    0    0    0  0.37249236886E+02  0.48784508974E+02 -0.11782021409E+02  0.62499999943E+02  0.00000000000E+00 0. -1.
</event>
<event>
 4    1  0.1964735E-002  0.9118800E+02  0.7818608E-02  0.1130116E+00
         25   -1    0    0    0    0  0.00000000000E+00  0.00000000000E+00  0.99999998245E-14  0.12500000000E+03  0.12500000000E+03 0.  0.
        -11    1    1    0    0    0 -0.28454865417E+02  0.46723434849E+02 -0.20476354343E+02  0.58412668296E+02  0.51100000000E-03 0. -1.
         11    1    1    0    0    0 -0.65461709259E+00  0.41059781939E+01 -0.86338380343E+00  0.42465294441E+01  0.51100000000E-03 0.  1.
         22    1    1    0    0    0  0.29109482510E+02 -0.50829413043E+02  0.21339738146E+02  0.62340802260E+02  0.00000000000E+00 0. -1.
</event>
<event>
 4    1  0.1964735E-002  0.9118800E+02  0.7818608E-02  0.1130116E+00
         25   -1    0    0    0    0  0.00000000000E+00  0.00000000000E+00  0.99999998245E-14  0.12500000000E+03  0.12500000000E+03 0.  0.
        -11    1    1    0    0    0 -0.31716736853E+02 -0.44356285976E+01  0.80120805477E+01  0.33012416340E+02  0.51100000000E-03 0. -1.
         11    1    1    0    0    0  0.16652288363E+02 -0.29223575871E+02  0.25460727541E+02  0.42184887598E+02  0.51100000000E-03 0.  1.
         22    1    1    0    0    0  0.15064448489E+02  0.33659204469E+02 -0.33472808089E+02  0.49802696063E+02  0.00000000000E+00 0.  1.
</event>
<event>
 4    1  0.1964735E-002  0.9118800E+02  0.7818608E-02  0.1130116E+00
         25   -1    0    0    0    0  0.00000000000E+00  0.00000000000E+00  0.99999998245E-14  0.12500000000E+03  0.12500000000E+03 0.  0.
        -11    1    1    0    0    0 -0.25170811928E+02  0.26239474550E+02  0.18264784168E+02  0.40690074204E+02  0.51100000000E-03 0. -1.
         11    1    1    0    0    0 -0.11334883283E+02  0.15241962124E+02  0.10825543262E+02  0.21862968134E+02  0.51100000000E-03 0.  1.
         22    1    1    0    0    0  0.36505695211E+02 -0.41481436674E+02 -0.29090327430E+02  0.62446957663E+02  0.00000000000E+00 0.  1.
</event>
<event>
 4    1  0.1964735E-002  0.9118800E+02  0.7818608E-02  0.1130116E+00
         25   -1    0    0    0    0  0.00000000000E+00  0.00000000000E+00  0.99999998245E-14  0.12500000000E+03  0.12500000000E+03 0.  0.
        -11    1    1    0    0    0 -0.13209246962E+01  0.66917812137E+01  0.67973033498E+01  0.96295436525E+01  0.51100000000E-03 0. -1.
         11    1    1    0    0    0 -0.72901297593E+01  0.36721480999E+02  0.37331918583E+02  0.52870457762E+02  0.51100000000E-03 0.  1.
         22    1    1    0    0    0  0.86110544555E+01 -0.43413262213E+02 -0.44129221933E+02  0.62499998585E+02  0.00000000000E+00 0.  1.
</event>
<event>
 4    1  0.1964735E-002  0.9118800E+02  0.7818608E-02  0.1130116E+00
         25   -1    0    0    0    0  0.00000000000E+00  0.00000000000E+00  0.99999998245E-14  0.12500000000E+03  0.12500000000E+03 0.  0.
        -11    1    1    0    0    0  0.29040617573E+01  0.51774186687E+01 -0.46196266876E+01  0.75219804411E+01  0.51100000000E-03 0.  1.
         11    1    1    0    0    0  0.29168168037E+02  0.40077873120E+02 -0.23987938068E+02  0.55067586777E+02  0.51100000000E-03 0. -1.
         22    1    1    0    0    0 -0.32072229794E+02 -0.45255291788E+02  0.28607564755E+02  0.62410432782E+02  0.00000000000E+00 0. -1.
</event>
<event>
 4    1  0.1964735E-002  0.9118800E+02  0.7818608E-02  0.1130116E+00
         25   -1    0    0    0    0  0.00000000000E+00  0.00000000000E+00  0.99999998245E-14  0.12500000000E+03  0.12500000000E+03 0.  0.
        -11    1    1    0    0    0  0.46942818203E+02  0.85038403674E+01 -0.30711146681E+02  0.56737271811E+02  0.51100000000E-03 0.  1.
         11    1    1    0    0    0  0.48399743083E+01  0.63092482209E+00 -0.30681856316E+01  0.57651696217E+01  0.51100000000E-03 0. -1.
         22    1    1    0    0    0 -0.51782792511E+02 -0.91347651895E+01  0.33779332313E+02  0.62497558567E+02  0.00000000000E+00 0.  1.
</event>
<event>
 4    1  0.1964735E-002  0.9118800E+02  0.7818608E-02  0.1130116E+00
         25   -1    0    0    0    0  0.00000000000E+00  0.00000000000E+00  0.99999998245E-14  0.12500000000E+03  0.12500000000E+03 0.  0.
        -11    1    1    0    0    0  0.98450554189E+01 -0.52167019141E+02  0.11094927374E+02  0.54234863473E+02  0.51100000000E-03 0.  1.
         11    1    1    0    0    0  0.15330733251E+01 -0.79451380223E+01  0.16844709315E+01  0.82651663379E+01  0.51100000000E-03 0. -1.
         22    1    1    0    0    0 -0.11378128744E+02  0.60112157163E+02 -0.12779398305E+02  0.62499970189E+02  0.00000000000E+00 0.  1.
</event>
<event>
 4    1  0.1964735E-002  0.9118800E+02  0.7818608E-02  0.1130116E+00
         25   -1    0    0    0    0  0.00000000000E+00  0.00000000000E+00  0.99999998245E-14  0.12500000000E+03  0.12500000000E+03 0.  0.
        -11    1    1    0    0    0 -0.11267908849E+02  0.23798248290E+02  0.42058840336E+02  0.49621249905E+02  0.51100000000E-03 0.  1.
         11    1    1    0    0    0 -0.29269441217E+01  0.61806660449E+01  0.10913046394E+02  0.12878750581E+02  0.51100000000E-03 0. -1.
         22    1    1    0    0    0  0.14194852971E+02 -0.29978914335E+02 -0.52971886730E+02  0.62499999514E+02  0.00000000000E+00 0.  1.
</event>
<event>
 4    1  0.1964735E-002  0.9118800E+02  0.7818608E-02  0.1130116E+00
         25   -1    0    0    0    0  0.00000000000E+00  0.00000000000E+00  0.99999998245E-14  0.12500000000E+03  0.12500000000E+03 0.  0.
        -11    1    1    0    0    0 -0.11179788642E+01  0.34351577442E+01 -0.82212225278E+00  0.37048712161E+01  0.51100000000E-03 0.  1.
         11    1    1    0    0    0 -0.17788243242E+02  0.54506928124E+02 -0.13016929411E+02  0.58795129583E+02  0.51100000000E-03 0. -1.
         22    1    1    0    0    0  0.18906222106E+02 -0.57942085869E+02  0.13839051663E+02  0.62499999201E+02  0.00000000000E+00 0. -1.
</event>
<event>
 4    1  0.1964735E-002  0.9118800E+02  0.7818608E-02  0.1130116E+00
         25   -1    0    0    0    0  0.00000000000E+00  0.00000000000E+00  0.99999998245E-14  0.12500000000E+03  0.12500000000E+03 0.  0.
        -11    1    1    0    0    0  0.17257456200E+02 -0.46349708434E+02  0.33821082417E+02  0.59916449182E+02  0.51100000000E-03 0.  1.
         11    1    1    0    0    0  0.70877391742E+00 -0.20143336313E+01  0.14544963679E+01  0.25836912334E+01  0.51100000000E-03 0. -1.
         22    1    1    0    0    0 -0.17966230117E+02  0.48364042065E+02 -0.35275578785E+02  0.62499859585E+02  0.00000000000E+00 0.  1.
</event>
<event>
 4    1  0.1964735E-002  0.9118800E+02  0.7818608E-02  0.1130116E+00
         25   -1    0    0    0    0  0.00000000000E+00  0.00000000000E+00  0.99999998245E-14  0.12500000000E+03  0.12500000000E+03 0.  0.
        -11    1    1    0    0    0 -0.42161162721E+02  0.63304018926E+01  0.24294530387E+02  0.49069968791E+02  0.51100000000E-03 0.  1.
         11    1    1    0    0    0 -0.11539412918E+02  0.17323185532E+01  0.66488164537E+01  0.13430031220E+02  0.51100000000E-03 0.  1.
         22    1    1    0    0    0  0.53700575639E+02 -0.80627204458E+01 -0.30943346841E+02  0.62499999990E+02  0.00000000000E+00 0.  1.
</event>
<event>
 4    1  0.1964735E-002  0.9118800E+02  0.7818608E-02  0.1130116E+00
         25   -1    0    0    0    0  0.00000000000E+00  0.00000000000E+00  0.99999998245E-14  0.12500000000E+03  0.12500000000E+03 0.  0.
        -11    1    1    0    0    0 -0.15001829725E+01  0.16605488394E+02 -0.19490383387E+01  0.16786647803E+02  0.51100000000E-03 0.  1.
         11    1    1    0    0    0 -0.41882341383E+01  0.45222192110E+02 -0.52082008276E+01  0.45713382292E+02  0.51100000000E-03 0. -1.
         22    1    1    0    0    0  0.56884171108E+01 -0.61827680504E+02  0.71572391663E+01  0.62499969905E+02  0.00000000000E+00 0. -1.
</event>
<event>
 4    1  0.1964735E-002  0.9118800E+02  0.7818608E-02  0.1130116E+00
         25   -1    0    0    0    0  0.00000000000E+00  0.00000000000E+00  0.99999998245E-14  0.12500000000E+03  0.12500000000E+03 0.  0.
        -11    1    1    0    0    0  0.33687563226E+00  0.18050442294E+00  0.43799918754E+00  0.58130077217E+00  0.51100000000E-03 0. -1.
         11    1    1    0    0    0  0.58122989320E+01  0.43486590118E+02  0.43772626764E+02  0.61975069125E+02  0.51100000000E-03 0.  1.
         22    1    1    0    0    0 -0.61491745643E+01 -0.43667094541E+02 -0.44210625951E+02  0.62443630103E+02  0.00000000000E+00 0.  1.
</event>
<event>
 4    1  0.1964735E-002  0.9118800E+02  0.7818608E-02  0.1130116E+00
         25   -1    0    0    0    0  0.00000000000E+00  0.00000000000E+00  0.99999998245E-14  0.12500000000E+03  0.12500000000E+03 0.  0.
        -11    1    1    0    0    0  0.54235227780E+01 -0.11265032784E+01  0.43627528848E+02  0.43977777145E+02  0.51100000000E-03 0. -1.
         11    1    1    0    0    0  0.23484968351E+01 -0.27122152070E+01  0.18220162103E+02  0.18570025741E+02  0.51100000000E-03 0.  1.
         22    1    1    0    0    0 -0.77720196131E+01  0.38387184854E+01 -0.61847690951E+02  0.62452197114E+02  0.00000000000E+00 0. -1.
</event>
<event>
 4    1  0.1964735E-002  0.9118800E+02  0.7818608E-02  0.1130116E+00
         25   -1    0    0    0    0  0.00000000000E+00  0.00000000000E+00  0.99999998245E-14  0.12500000000E+03  0.12500000000E+03 0.  0.
        -11    1    1    0    0    0 -0.67040385543E+01  0.24411399159E+02  0.73378489901E+01  0.26357248906E+02  0.51100000000E-03 0.  1.
         11    1    1    0    0    0 -0.83104378642E+01  0.33029088246E+02  0.12142198571E+02  0.36158222222E+02  0.51100000000E-03 0. -1.
         22    1    1    0    0    0  0.15014476418E+02 -0.57440487405E+02 -0.19480047561E+02  0.62484528872E+02  0.00000000000E+00 0. -1.
</event>
<event>
 4    1  0.1964735E-002  0.9118800E+02  0.7818608E-02  0.1130116E+00
         25   -1    0    0    0    0  0.00000000000E+00  0.00000000000E+00  0.99999998245E-14  0.12500000000E+03  0.12500000000E+03 0.  0.
        -11    1    1    0    0    0  0.19320891795E+02  0.54726194297E+02  0.15460188053E+02  0.60060557914E+02  0.51100000000E-03 0. -1.
         11    1    1    0    0    0  0.78302909965E+00  0.22227487312E+01  0.63018641595E+00  0.24394429021E+01  0.51100000000E-03 0.  1.
         22    1    1    0    0    0 -0.20103920895E+02 -0.56948943029E+02 -0.16090374469E+02  0.62499999184E+02  0.00000000000E+00 0. -1.
</event>
<event>
 4    1  0.1964735E-002  0.9118800E+02  0.7818608E-02  0.1130116E+00
         25   -1    0    0    0    0  0.00000000000E+00  0.00000000000E+00  0.99999998245E-14  0.12500000000E+03  0.12500000000E+03 0.  0.
        -11    1    1    0    0    0 -0.20424490481E+02  0.15592432861E+02 -0.80579755802E+01  0.26929811448E+02  0.51100000000E-03 0.  1.
         11    1    1    0    0    0 -0.26978787317E+02  0.20599856889E+02 -0.10631522929E+02  0.35570189049E+02  0.51100000000E-03 0. -1.
         22    1    1    0    0    0  0.47403277798E+02 -0.36192289750E+02  0.18689498509E+02  0.62499999503E+02  0.00000000000E+00 0. -1.
</event>
<event>
 4    1  0.1964735E-002  0.9118800E+02  0.7818608E-02  0.1130116E+00
         25   -1    0    0    0    0  0.00000000000E+00  0.00000000000E+00  0.99999998245E-14  0.12500000000E+03  0.12500000000E+03 0.  0.
        -11    1    1    0    0    0  0.27610170397E+02 -0.14716146277E+02  0.36033976831E+02  0.47721420317E+02  0.51100000000E-03 0. -1.
         11    1    1    0    0    0  0.85277007488E+01 -0.45622625583E+01  0.11174560159E+02  0.14778589740E+02  0.51100000000E-03 0.  1.
         22    1    1    0    0    0 -0.36137871145E+02  0.19278408835E+02 -0.47208536990E+02  0.62499989943E+02  0.00000000000E+00 0. -1.
</event>
<event>
 4    1  0.1964735E-002  0.9118800E+02  0.7818608E-02  0.1130116E+00
         25   -1    0    0    0    0  0.00000000000E+00  0.00000000000E+00  0.99999998245E-14  0.12500000000E+03  0.12500000000E+03 0.  0.
        -11    1    1    0    0    0  0.16125304395E+02  0.92300710246E+01  0.78734622229E+01  0.20179471266E+02  0.51100000000E-03 0. -1.
         11    1    1    0    0    0  0.33805467817E+02  0.19393453504E+02  0.16495809743E+02  0.42320532044E+02  0.51100000000E-03 0.  1.
         22    1    1    0    0    0 -0.49930772212E+02 -0.28623524529E+02 -0.24369271966E+02  0.62499996690E+02  0.00000000000E+00 0.  1.
</event>
<event>
 4    1  0.1964735E-002  0.9118800E+02  0.7818608E-02  0.1130116E+00
         25   -1    0    0    0    0  0.00000000000E+00  0.00000000000E+00  0.99999998245E-14  0.12500000000E+03  0.12500000000E+03 0.  0.
        -11    1    1    0    0    0 -0.43117680868E+02 -0.41690523636E+02 -0.25277314710E+01  0.60030188998E+02  0.51100000000E-03 0.  1.
         11    1    1    0    0    0 -0.16885644484E+01 -0.17959645299E+01 -0.18081820610E+00  0.24717269214E+01  0.51100000000E-03 0. -1.
         22    1    1    0    0    0  0.44806245317E+02  0.43486488166E+02  0.27085496771E+01  0.62498084080E+02  0.00000000000E+00 0.  1.
</event>
<event>
 4    1  0.1964735E-002  0.9118800E+02  0.7818608E-02  0.1130116E+00
         25   -1    0    0    0    0  0.00000000000E+00  0.00000000000E+00  0.99999998245E-14  0.12500000000E+03  0.12500000000E+03 0.  0.
        -11    1    1    0    0    0 -0.11080284959E+02 -0.35345895864E+01  0.24494115425E+02  0.27115083054E+02  0.51100000000E-03 0.  1.
         11    1    1    0    0    0 -0.13924474712E+02  0.13874198985E+02  0.30677810094E+02  0.36435043926E+02  0.51100000000E-03 0. -1.
         22    1    1    0    0    0  0.25004759672E+02 -0.10339609399E+02 -0.55171925518E+02  0.61449873020E+02  0.00000000000E+00 0.  1.
</event>
<event>
 4    1  0.1964735E-002  0.9118800E+02  0.7818608E-02  0.1130116E+00
         25   -1    0    0    0    0  0.00000000000E+00  0.00000000000E+00  0.99999998245E-14  0.12500000000E+03  0.12500000000E+03 0.  0.
        -11    1    1    0    0    0 -0.10741214574E+02  0.46986232584E+02 -0.62634375110E+01  0.48603604729E+02  0.51100000000E-03 0.  1.
         11    1    1    0    0    0 -0.30731452778E+01  0.13433564596E+02 -0.17902300605E+01  0.13896395345E+02  0.51100000000E-03 0. -1.
         22    1    1    0    0    0  0.13814359852E+02 -0.60419797180E+02  0.80536675715E+01  0.62499999926E+02  0.00000000000E+00 0.  1.
</event>
<event>
 4    1  0.1964735E-002  0.9118800E+02  0.7818608E-02  0.1130116E+00
         25   -1    0    0    0    0  0.00000000000E+00  0.00000000000E+00  0.99999998245E-14  0.12500000000E+03  0.12500000000E+03 0.  0.
        -11    1    1    0    0    0  0.57089104872E+01  0.28700109001E+01  0.10055902496E+02  0.11914268621E+02  0.51100000000E-03 0. -1.
         11    1    1    0    0    0  0.24245905576E+02  0.12183016752E+02  0.42692228700E+02  0.50585731447E+02  0.51100000000E-03 0.  1.
         22    1    1    0    0    0 -0.29954816063E+02 -0.15053027652E+02 -0.52748131196E+02  0.62499999932E+02  0.00000000000E+00 0.  1.
</event>
<event>
 4    1  0.1964735E-002  0.9118800E+02  0.7818608E-02  0.1130116E+00
         25   -1    0    0    0    0  0.00000000000E+00  0.00000000000E+00  0.99999998245E-14  0.12500000000E+03  0.12500000000E+03 0.  0.
        -11    1    1    0    0    0  0.15217866708E+02  0.86184195272E+01  0.17052166877E+01  0.17571806580E+02  0.51100000000E-03 0.  1.
         11    1    1    0    0    0  0.40755773884E+02  0.18780271511E+02 -0.41079657608E+01  0.45062257887E+02  0.51100000000E-03 0. -1.
         22    1    1    0    0    0 -0.55973640592E+02 -0.27398691039E+02  0.24027490731E+01  0.62365935533E+02  0.00000000000E+00 0.  1.
</event>
<event>
 4    1  0.1964735E-002  0.9118800E+02  0.7818608E-02  0.1130116E+00
         25   -1    0    0    0    0  0.00000000000E+00  0.00000000000E+00  0.99999998245E-14  0.12500000000E+03  0.12500000000E+03 0.  0.
        -11    1    1    0    0    0  0.37471085552E+01 -0.59101801750E+01 -0.89249019240E+01  0.11341292997E+02  0.51100000000E-03 0.  1.
         11    1    1    0    0    0  0.16938596069E+02 -0.26543170062E+02 -0.40320702994E+02  0.51158723634E+02  0.51100000000E-03 0. -1.
         22    1    1    0    0    0 -0.20685704624E+02  0.32453350237E+02  0.49245604918E+02  0.62499983369E+02  0.00000000000E+00 0. -1.
</event>
<event>
 4    1  0.1964735E-002  0.9118800E+02  0.7818608E-02  0.1130116E+00
         25   -1    0    0    0    0  0.00000000000E+00  0.00000000000E+00  0.99999998245E-14  0.12500000000E+03  0.12500000000E+03 0.  0.
        -11    1    1    0    0    0  0.43930005928E+01  0.25127884999E+01 -0.27074228759E+01  0.57395730802E+01  0.51100000000E-03 0.  1.
         11    1    1    0    0    0  0.43439938230E+02  0.24887416147E+02 -0.26745737106E+02  0.56760427848E+02  0.51100000000E-03 0. -1.
         22    1    1    0    0    0 -0.47832938822E+02 -0.27400204647E+02  0.29453159982E+02  0.62499999072E+02  0.00000000000E+00 0. -1.
</event>
<event>
 4    1  0.1964735E-002  0.9118800E+02  0.7818608E-02  0.1130116E+00
         25   -1    0    0    0    0  0.00000000000E+00  0.00000000000E+00  0.99999998245E-14  0.12500000000E+03  0.12500000000E+03 0.  0.
        -11    1    1    0    0    0  0.23828219873E+02 -0.58933139928E+01 -0.22971969292E+02  0.33618842715E+02  0.51100000000E-03 0.  1.
         11    1    1    0    0    0  0.20456766126E+02 -0.50530244205E+01 -0.19751178646E+02  0.28881159850E+02  0.51100000000E-03 0. -1.
         22    1    1    0    0    0 -0.44284985999E+02  0.10946338413E+02  0.42723147937E+02  0.62499997434E+02  0.00000000000E+00 0.  1.
</event>
<event>
 4    1  0.1964735E-002  0.9118800E+02  0.7818608E-02  0.1130116E+00
         25   -1    0    0    0    0  0.00000000000E+00  0.00000000000E+00  0.99999998245E-14  0.12500000000E+03  0.12500000000E+03 0.  0.
        -11    1    1    0    0    0 -0.25691439457E+02 -0.23968621915E+01 -0.32488299871E+02  0.41488367508E+02  0.51100000000E-03 0.  1.
         11    1    1    0    0    0 -0.13011620760E+02 -0.12135402778E+01 -0.16453380965E+02  0.21011632498E+02  0.51100000000E-03 0. -1.
         22    1    1    0    0    0  0.38703060217E+02  0.36104024693E+01  0.48941680836E+02  0.62499999993E+02  0.00000000000E+00 0.  1.
</event>
<event>
 4    1  0.1964735E-002  0.9118800E+02  0.7818608E-02  0.1130116E+00
         25   -1    0    0    0    0  0.00000000000E+00  0.00000000000E+00  0.99999998245E-14  0.12500000000E+03  0.12500000000E+03 0.  0.
        -11    1    1    0    0    0 -0.29066455295E+01 -0.57318253597E+01  0.80531170985E+00  0.64769543305E+01  0.51100000000E-03 0.  1.
         11    1    1    0    0    0 -0.30871109836E+02  0.33073113304E+02 -0.39708775020E+02  0.60196703066E+02  0.51100000000E-03 0. -1.
         22    1    1    0    0    0  0.33777755366E+02 -0.27341287945E+02  0.38903463310E+02  0.58326342604E+02  0.00000000000E+00 0. -1.
</event>
<event>
 4    1  0.1964735E-002  0.9118800E+02  0.7818608E-02  0.1130116E+00
         25   -1    0    0    0    0  0.00000000000E+00  0.00000000000E+00  0.99999998245E-14  0.12500000000E+03  0.12500000000E+03 0.  0.
        -11    1    1    0    0    0 -0.39174628455E+02 -0.40105834038E+02 -0.75235059505E+01  0.56566178769E+02  0.51100000000E-03 0. -1.
         11    1    1    0    0    0 -0.41092217423E+01 -0.42071599521E+01 -0.79014967582E+00  0.59338212782E+01  0.51100000000E-03 0.  1.
         22    1    1    0    0    0  0.43283850197E+02  0.44312993990E+02  0.83136556263E+01  0.62499999953E+02  0.00000000000E+00 0. -1.
</event>
<event>
 4    1  0.1964735E-002  0.9118800E+02  0.7818608E-02  0.1130116E+00
         25   -1    0    0    0    0  0.00000000000E+00  0.00000000000E+00  0.99999998245E-14  0.12500000000E+03  0.12500000000E+03 0.  0.
        -11    1    1    0    0    0  0.15874315128E+02 -0.76079380575E+01  0.80030388156E+01  0.19337094735E+02  0.51100000000E-03 0.  1.
         11    1    1    0    0    0  0.35396191145E+02 -0.17321315666E+02  0.17610962347E+02  0.43163228784E+02  0.51100000000E-03 0. -1.
         22    1    1    0    0    0 -0.51270506273E+02  0.24929253723E+02 -0.25614001163E+02  0.62499676481E+02  0.00000000000E+00 0. -1.
</event>
<event>
 4    1  0.1964735E-002  0.9118800E+02  0.7818608E-02  0.1130116E+00
         25   -1    0    0    0    0  0.00000000000E+00  0.00000000000E+00  0.99999998245E-14  0.12500000000E+03  0.12500000000E+03 0.  0.
        -11    1    1    0    0    0 -0.43240496708E+01 -0.42870605717E+01  0.48794408318E+01  0.78028992684E+01  0.51100000000E-03 0. -1.
         11    1    1    0    0    0 -0.30530314632E+02 -0.31375734555E+02  0.32794397493E+02  0.54699262679E+02  0.51100000000E-03 0.  1.
         22    1    1    0    0    0  0.34854364303E+02  0.35662795126E+02 -0.37673838325E+02  0.62497838053E+02  0.00000000000E+00 0.  1.
</event>
<event>
 4    1  0.1964735E-002  0.9118800E+02  0.7818608E-02  0.1130116E+00
         25   -1    0    0    0    0  0.00000000000E+00  0.00000000000E+00  0.99999998245E-14  0.12500000000E+03  0.12500000000E+03 0.  0.
        -11    1    1    0    0    0 -0.35830910514E+01  0.30911930473E+00 -0.89225466335E+01  0.96200797770E+01  0.51100000000E-03 0.  1.
         11    1    1    0    0    0 -0.19838513225E+02  0.14390373975E+01 -0.48996484500E+02  0.52879986093E+02  0.51100000000E-03 0. -1.
         22    1    1    0    0    0  0.23421604276E+02 -0.17481567023E+01  0.57919031134E+02  0.62499934130E+02  0.00000000000E+00 0. -1.
</event>
<event>
 4    1  0.1964735E-002  0.9118800E+02  0.7818608E-02  0.1130116E+00
         25   -1    0    0    0    0  0.00000000000E+00  0.00000000000E+00  0.99999998245E-14  0.12500000000E+03  0.12500000000E+03 0.  0.
        -11    1    1    0    0    0 -0.10128342223E+01  0.20639454903E+00 -0.64159043628E+00  0.12165814485E+01  0.51100000000E-03 0.  1.
         11    1    1    0    0    0 -0.51756339087E+02  0.12667314642E+02 -0.30274973500E+02  0.61284202831E+02  0.51100000000E-03 0. -1.
         22    1    1    0    0    0  0.52769173309E+02 -0.12873709191E+02  0.30916563936E+02  0.62499215721E+02  0.00000000000E+00 0. -1.
</event>
<event>
 4    1  0.1964735E-002  0.9118800E+02  0.7818608E-02  0.1130116E+00
         25   -1    0    0    0    0  0.00000000000E+00  0.00000000000E+00  0.99999998245E-14  0.12500000000E+03  0.12500000000E+03 0.  0.
        -11    1    1    0    0    0  0.39115570297E+01 -0.12494953960E+02 -0.33564349493E+00  0.13097206178E+02  0.51100000000E-03 0. -1.
         11    1    1    0    0    0  0.14754113526E+02 -0.47131221446E+02 -0.12649651962E+01  0.49402793829E+02  0.51100000000E-03 0. -1.
         22    1    1    0    0    0 -0.18665670556E+02  0.59626175406E+02  0.16006086911E+01  0.62499999992E+02  0.00000000000E+00 0. -1.
</event>
<event>
 4    1  0.1964735E-002  0.9118800E+02  0.7818608E-02  0.1130116E+00
         25   -1    0    0    0    0  0.00000000000E+00  0.00000000000E+00  0.99999998245E-14  0.12500000000E+03  0.12500000000E+03 0.  0.
        -11    1    1    0    0    0  0.19426071752E+02  0.44022861923E+01 -0.25380094308E+02  0.32263006288E+02  0.51100000000E-03 0.  1.
         11    1    1    0    0    0  0.17839608753E+02  0.38081607741E+01 -0.24116611502E+02  0.30238463578E+02  0.51100000000E-03 0. -1.
         22    1    1    0    0    0 -0.37265680504E+02 -0.82104469664E+01  0.49496705810E+02  0.62498530134E+02  0.00000000000E+00 0.  1.
</event>
<event>
 4    1  0.1964735E-002  0.9118800E+02  0.7818608E-02  0.1130116E+00
         25   -1    0    0    0    0  0.00000000000E+00  0.00000000000E+00  0.99999998245E-14  0.12500000000E+03  0.12500000000E+03 0.  0.
        -11    1    1    0    0    0 -0.22189907723E+02 -0.21257731626E+02  0.11534150204E+02  0.32822549868E+02  0.51100000000E-03 0.  1.
         11    1    1    0    0    0 -0.27534665365E+02 -0.60641842555E+01  0.12143628150E+02  0.30698531436E+02  0.51100000000E-03 0. -1.
         22    1    1    0    0    0  0.49724573088E+02  0.27321915881E+02 -0.23677778354E+02  0.61478918696E+02  0.00000000000E+00 0. -1.
</event>
<event>
 4    1  0.1964735E-002  0.9118800E+02  0.7818608E-02  0.1130116E+00
         25   -1    0    0    0    0  0.00000000000E+00  0.00000000000E+00  0.99999998245E-14  0.12500000000E+03  0.12500000000E+03 0.  0.
        -11    1    1    0    0    0  0.64020460336E+01 -0.12313318333E+02 -0.48835433246E+02  0.50769119968E+02  0.51100000000E-03 0.  1.
         11    1    1    0    0    0  0.14771652899E+01 -0.28379565375E+01 -0.11286166588E+02  0.11730881089E+02  0.51100000000E-03 0. -1.
         22    1    1    0    0    0 -0.78792113234E+01  0.15151274870E+02  0.60121599834E+02  0.62499998943E+02  0.00000000000E+00 0.  1.
</event>
<event>
 4    1  0.1964735E-002  0.9118800E+02  0.7818608E-02  0.1130116E+00
         25   -1    0    0    0    0  0.00000000000E+00  0.00000000000E+00  0.99999998245E-14  0.12500000000E+03  0.12500000000E+03 0.  0.
        -11    1    1    0    0    0  0.39574843066E+02 -0.37507089869E+02  0.14517285670E+02  0.56424299532E+02  0.51100000000E-03 0.  1.
         11    1    1    0    0    0  0.42658555804E+01 -0.40441455888E+01  0.15368263175E+01  0.60757281677E+01  0.51100000000E-03 0. -1.
         22    1    1    0    0    0 -0.43840698646E+02  0.41551235458E+02 -0.16054111987E+02  0.62499972301E+02  0.00000000000E+00 0.  1.
</event>
<event>
 4    1  0.1964735E-002  0.9118800E+02  0.7818608E-02  0.1130116E+00
         25   -1    0    0    0    0  0.00000000000E+00  0.00000000000E+00  0.99999998245E-14  0.12500000000E+03  0.12500000000E+03 0.  0.
        -11    1    1    0    0    0 -0.16744180070E+02  0.20952183731E+01 -0.40365644106E+02  0.43750916912E+02  0.51100000000E-03 0. -1.
         11    1    1    0    0    0 -0.69359159306E+01  0.16004759352E+01 -0.17350894055E+02  0.18754252259E+02  0.51100000000E-03 0.  1.
         22    1    1    0    0    0  0.23680096001E+02 -0.36956943083E+01  0.57716538162E+02  0.62494830829E+02  0.00000000000E+00 0. -1.
</event>
<event>
 4    1  0.1964735E-002  0.9118800E+02  0.7818608E-02  0.1130116E+00
         25   -1    0    0    0    0  0.00000000000E+00  0.00000000000E+00  0.99999998245E-14  0.12500000000E+03  0.12500000000E+03 0.  0.
        -11    1    1    0    0    0  0.10383920337E+00 -0.24056384067E+02 -0.98855784255E+01  0.26008557400E+02  0.51100000000E-03 0. -1.
         11    1    1    0    0    0  0.49362324724E+00 -0.33565900881E+02 -0.14310303320E+02  0.36492439590E+02  0.51100000000E-03 0.  1.
         22    1    1    0    0    0 -0.59746245061E+00  0.57622284947E+02  0.24195881745E+02  0.62499003011E+02  0.00000000000E+00 0.  1.
</event>
<event>
 4    1  0.1964735E-002  0.9118800E+02  0.7818608E-02  0.1130116E+00
         25   -1    0    0    0    0  0.00000000000E+00  0.00000000000E+00  0.99999998245E-14  0.12500000000E+03  0.12500000000E+03 0.  0.
        -11    1    1    0    0    0 -0.10337052232E+02 -0.14078173530E+02 -0.21448408198E+02  0.27660148829E+02  0.51100000000E-03 0.  1.
         11    1    1    0    0    0 -0.12957547062E+02 -0.18466854366E+02 -0.26552968061E+02  0.34842256659E+02  0.51100000000E-03 0. -1.
         22    1    1    0    0    0  0.23294599294E+02  0.32545027896E+02  0.48001376259E+02  0.62497594511E+02  0.00000000000E+00 0.  1.
</event>
<event>
 4    1  0.1964735E-002  0.9118800E+02  0.7818608E-02  0.1130116E+00
         25   -1    0    0    0    0  0.00000000000E+00  0.00000000000E+00  0.99999998245E-14  0.12500000000E+03  0.12500000000E+03 0.  0.
        -11    1    1    0    0    0 -0.74118005613E+00  0.34749636189E+01 -0.24236265433E+01  0.43010098710E+01  0.51100000000E-03 0. -1.
         11    1    1    0    0    0  0.98923368505E+01  0.50833637586E+02 -0.26843928947E+02  0.58331068567E+02  0.51100000000E-03 0.  1.
         22    1    1    0    0    0 -0.91511567944E+01 -0.54308601205E+02  0.29267555490E+02  0.62367921562E+02  0.00000000000E+00 0. -1.
</event>
<event>
 4    1  0.1964735E-002  0.9118800E+02  0.7818608E-02  0.1130116E+00
         25   -1    0    0    0    0  0.00000000000E+00  0.00000000000E+00  0.99999998245E-14  0.12500000000E+03  0.12500000000E+03 0.  0.
        -11    1    1    0    0    0  0.14152928789E+01  0.18274399748E+01 -0.13308585037E+01  0.26671661764E+01  0.51100000000E-03 0. -1.
         11    1    1    0    0    0  0.31659778731E+02  0.41028321208E+02 -0.29904908010E+02  0.59832835917E+02  0.51100000000E-03 0.  1.
         22    1    1    0    0    0 -0.33075071610E+02 -0.42855761183E+02  0.31235766514E+02  0.62499997907E+02  0.00000000000E+00 0.  1.
</event>
<event>
 4    1  0.1964735E-002  0.9118800E+02  0.7818608E-02  0.1130116E+00
         25   -1    0    0    0    0  0.00000000000E+00  0.00000000000E+00  0.99999998245E-14  0.12500000000E+03  0.12500000000E+03 0.  0.
        -11    1    1    0    0    0  0.18933026537E+02  0.18340613673E+02 -0.54291817699E+01  0.26913075237E+02  0.51100000000E-03 0.  1.
         11    1    1    0    0    0  0.25020504649E+02  0.24309089781E+02 -0.70339886367E+01  0.35586998964E+02  0.51100000000E-03 0. -1.
         22    1    1    0    0    0 -0.43953531185E+02 -0.42649703454E+02  0.12463170407E+02  0.62499925800E+02  0.00000000000E+00 0.  1.
</event>
<event>
 4    1  0.1964735E-002  0.9118800E+02  0.7818608E-02  0.1130116E+00
         25   -1    0    0    0    0  0.00000000000E+00  0.00000000000E+00  0.99999998245E-14  0.12500000000E+03  0.12500000000E+03 0.  0.
        -11    1    1    0    0    0  0.14487859083E+01 -0.37083079188E+02  0.36952282739E+02  0.52371031521E+02  0.51100000000E-03 0.  1.
         11    1    1    0    0    0  0.41568525267E+00 -0.67128731014E+01  0.75853281618E+01  0.10137685292E+02  0.51100000000E-03 0. -1.
         22    1    1    0    0    0 -0.18644711610E+01  0.43795952289E+02 -0.44537610900E+02  0.62491283187E+02  0.00000000000E+00 0.  1.
</event>
<event>
 4    1  0.1964735E-002  0.9118800E+02  0.7818608E-02  0.1130116E+00
         25   -1    0    0    0    0  0.00000000000E+00  0.00000000000E+00  0.99999998245E-14  0.12500000000E+03  0.12500000000E+03 0.  0.
        -11    1    1    0    0    0  0.20587304150E+01 -0.21507866922E+00 -0.41104337123E+01  0.46022054844E+01  0.51100000000E-03 0.  1.
         11    1    1    0    0    0  0.25840533697E+02 -0.27534411151E+01 -0.51738189293E+02  0.57897796601E+02  0.51100000000E-03 0. -1.
         22    1    1    0    0    0 -0.27899264112E+02  0.29685197843E+01  0.55848623005E+02  0.62499997914E+02  0.00000000000E+00 0. -1.
</event>
<event>
 4    1  0.1964735E-002  0.9118800E+02  0.7818608E-02  0.1130116E+00
         25   -1    0    0    0    0  0.00000000000E+00  0.00000000000E+00  0.99999998245E-14  0.12500000000E+03  0.12500000000E+03 0.  0.
        -11    1    1    0    0    0 -0.45513607493E+02 -0.38849953049E+02 -0.87191311080E+01  0.60471733616E+02  0.51100000000E-03 0.  1.
         11    1    1    0    0    0 -0.15257911204E+01 -0.13032611181E+01 -0.29553551001E+00  0.20282676312E+01  0.51100000000E-03 0. -1.
         22    1    1    0    0    0  0.47039398614E+02  0.40153214167E+02  0.90146666181E+01  0.62499998753E+02  0.00000000000E+00 0.  1.
</event>
<event>
 4    1  0.1964735E-002  0.9118800E+02  0.7818608E-02  0.1130116E+00
         25   -1    0    0    0    0  0.00000000000E+00  0.00000000000E+00  0.99999998245E-14  0.12500000000E+03  0.12500000000E+03 0.  0.
        -11    1    1    0    0    0  0.28814975534E+02  0.18982527966E+02  0.26906055114E+01  0.34610381987E+02  0.51100000000E-03 0. -1.
         11    1    1    0    0    0 -0.28541552110E+02  0.12683068327E+02 -0.33784351124E+02  0.46009377307E+02  0.51100000000E-03 0.  1.
         22    1    1    0    0    0 -0.27342342392E+00 -0.31665596293E+02  0.31093745612E+02  0.44380240707E+02  0.00000000000E+00 0.  1.
</event>
<event>
 4    1  0.1964735E-002  0.9118800E+02  0.7818608E-02  0.1130116E+00
         25   -1    0    0    0    0  0.00000000000E+00  0.00000000000E+00  0.99999998245E-14  0.12500000000E+03  0.12500000000E+03 0.  0.
        -11    1    1    0    0    0 -0.20696308073E+01  0.14963363481E+02 -0.95317806065E+01  0.17861703730E+02  0.51100000000E-03 0.  1.
         11    1    1    0    0    0 -0.62952837636E+01  0.37093857727E+02 -0.24024815222E+02  0.44640526716E+02  0.51100000000E-03 0. -1.
         22    1    1    0    0    0  0.83649145709E+01 -0.52057221208E+02  0.33556595829E+02  0.62497769554E+02  0.00000000000E+00 0. -1.
</event>
<event>
 4    1  0.1964735E-002  0.9118800E+02  0.7818608E-02  0.1130116E+00
         25   -1    0    0    0    0  0.00000000000E+00  0.00000000000E+00  0.99999998245E-14  0.12500000000E+03  0.12500000000E+03 0.  0.
        -11    1    1    0    0    0 -0.14364477179E+02 -0.37493665921E+02 -0.19697423702E+02  0.44722496460E+02  0.51100000000E-03 0.  1.
         11    1    1    0    0    0 -0.57113510528E+01 -0.14906009452E+02 -0.78250235726E+01  0.17777503841E+02  0.51100000000E-03 0. -1.
         22    1    1    0    0    0  0.20075828232E+02  0.52399675373E+02  0.27522447275E+02  0.62499999699E+02  0.00000000000E+00 0.  1.
</event>
<event>
 4    1  0.1964735E-002  0.9118800E+02  0.7818608E-02  0.1130116E+00
         25   -1    0    0    0    0  0.00000000000E+00  0.00000000000E+00  0.99999998245E-14  0.12500000000E+03  0.12500000000E+03 0.  0.
        -11    1    1    0    0    0  0.29068313064E+02  0.20438769296E+01 -0.18558119771E+02  0.34547765007E+02  0.51100000000E-03 0. -1.
         11    1    1    0    0    0 -0.33311689671E+02 -0.14116100482E+02  0.46971931367E+02  0.59289925773E+02  0.51100000000E-03 0.  1.
         22    1    1    0    0    0  0.42433766065E+01  0.12072223552E+02 -0.28413811596E+02  0.31162309220E+02  0.00000000000E+00 0.  1.
</event>
<event>
 4    1  0.1964735E-002  0.9118800E+02  0.7818608E-02  0.1130116E+00
         25   -1    0    0    0    0  0.00000000000E+00  0.00000000000E+00  0.99999998245E-14  0.12500000000E+03  0.12500000000E+03 0.  0.
        -11    1    1    0    0    0 -0.28370394266E+02  0.27537750079E+02  0.34272645262E+01  0.39685678684E+02  0.51100000000E-03 0.  1.
         11    1    1    0    0    0 -0.16308129710E+02  0.15832171891E+02  0.19698976645E+01  0.22814321347E+02  0.51100000000E-03 0. -1.
         22    1    1    0    0    0  0.44678523976E+02 -0.43369921971E+02 -0.53971621907E+01  0.62499999969E+02  0.00000000000E+00 0.  1.
</event>
<event>
 4    1  0.1964735E-002  0.9118800E+02  0.7818608E-02  0.1130116E+00
         25   -1    0    0    0    0  0.00000000000E+00  0.00000000000E+00  0.99999998245E-14  0.12500000000E+03  0.12500000000E+03 0.  0.
        -11    1    1    0    0    0 -0.49783990162E+02  0.28800845217E+02  0.20059933419E+01  0.57549616604E+02  0.51100000000E-03 0.  1.
         11    1    1    0    0    0 -0.42866905989E+01  0.24649110300E+01  0.23848468728E+00  0.49505936900E+01  0.51100000000E-03 0. -1.
         22    1    1    0    0    0  0.54070680761E+02 -0.31265756247E+02 -0.22444780292E+01  0.62499789706E+02  0.00000000000E+00 0.  1.
</event>
<event>
 4    1  0.1964735E-002  0.9118800E+02  0.7818608E-02  0.1130116E+00
         25   -1    0    0    0    0  0.00000000000E+00  0.00000000000E+00  0.99999998245E-14  0.12500000000E+03  0.12500000000E+03 0.  0.
        -11    1    1    0    0    0 -0.77041861689E+01 -0.11271268287E+02  0.56708535867E+02  0.58328843754E+02  0.51100000000E-03 0.  1.
         11    1    1    0    0    0 -0.54991963100E+00 -0.80670736185E+00  0.40552874912E+01  0.41711563463E+01  0.51100000000E-03 0. -1.
         22    1    1    0    0    0  0.82541057999E+01  0.12077975649E+02 -0.60763823358E+02  0.62499999899E+02  0.00000000000E+00 0.  1.
</event>
<event>
 4    1  0.1964735E-002  0.9118800E+02  0.7818608E-02  0.1130116E+00
         25   -1    0    0    0    0  0.00000000000E+00  0.00000000000E+00  0.99999998245E-14  0.12500000000E+03  0.12500000000E+03 0.  0.
        -11    1    1    0    0    0 -0.81833407655E-01 -0.38532333372E+00 -0.39336915056E+00  0.55669590249E+00  0.51100000000E-03 0.  1.
         11    1    1    0    0    0 -0.41872231248E+02 -0.21625422911E+02 -0.40284983943E+02  0.61998569317E+02  0.51100000000E-03 0. -1.
         22    1    1    0    0    0  0.41954064656E+02  0.22010746245E+02  0.40678353093E+02  0.62444734781E+02  0.00000000000E+00 0. -1.
</event>
<event>
 4    1  0.1964735E-002  0.9118800E+02  0.7818608E-02  0.1130116E+00
         25   -1    0    0    0    0  0.00000000000E+00  0.00000000000E+00  0.99999998245E-14  0.12500000000E+03  0.12500000000E+03 0.  0.
        -11    1    1    0    0    0  0.12857869215E+01  0.34448716903E+01  0.39361042782E+01  0.53864001077E+01  0.51100000000E-03 0. -1.
         11    1    1    0    0    0  0.13626408185E+02  0.36537390363E+02  0.41728927714E+02  0.57113599983E+02  0.51100000000E-03 0.  1.
         22    1    1    0    0    0 -0.14912195106E+02 -0.39982262054E+02 -0.45665031992E+02  0.62499999909E+02  0.00000000000E+00 0.  1.
</event>
<event>
 4    1  0.1964735E-002  0.9118800E+02  0.7818608E-02  0.1130116E+00
         25   -1    0    0    0    0  0.00000000000E+00  0.00000000000E+00  0.99999998245E-14  0.12500000000E+03  0.12500000000E+03 0.  0.
        -11    1    1    0    0    0 -0.70618835298E+01  0.92562108335E+01 -0.48440586474E+01  0.12610017543E+02  0.51100000000E-03 0. -1.
         11    1    1    0    0    0 -0.27893920376E+02  0.36612565432E+02 -0.19247350742E+02  0.49889991504E+02  0.51100000000E-03 0.  1.
         22    1    1    0    0    0  0.34955803905E+02 -0.45868776266E+02  0.24091409389E+02  0.62499990953E+02  0.00000000000E+00 0.  1.
</event>
<event>
 4    1  0.1964735E-002  0.9118800E+02  0.7818608E-02  0.1130116E+00
         25   -1    0    0    0    0  0.00000000000E+00  0.00000000000E+00  0.99999998245E-14  0.12500000000E+03  0.12500000000E+03 0.  0.
        -11    1    1    0    0    0 -0.23593654859E+01  0.89046007705E+01 -0.14136093414E+02  0.16872689698E+02  0.51100000000E-03 0.  1.
         11    1    1    0    0    0 -0.63845501570E+01  0.24074530707E+02 -0.38229647442E+02  0.45627310388E+02  0.51100000000E-03 0. -1.
         22    1    1    0    0    0  0.87439156428E+01 -0.32979131477E+02  0.52365740856E+02  0.62499999914E+02  0.00000000000E+00 0. -1.
</event>
<event>
 4    1  0.1964735E-002  0.9118800E+02  0.7818608E-02  0.1130116E+00
         25   -1    0    0    0    0  0.00000000000E+00  0.00000000000E+00  0.99999998245E-14  0.12500000000E+03  0.12500000000E+03 0.  0.
        -11    1    1    0    0    0  0.16110846588E+02  0.14729664730E+02  0.20864817977E+00  0.21830390174E+02  0.51100000000E-03 0. -1.
         11    1    1    0    0    0  0.30156032617E+02  0.27288599677E+02 -0.24704622346E-01  0.40670069905E+02  0.51100000000E-03 0.  1.
         22    1    1    0    0    0 -0.46266879205E+02 -0.42018264406E+02 -0.18394355743E+00  0.62499539921E+02  0.00000000000E+00 0.  1.
</event>
<event>
 4    1  0.1964735E-002  0.9118800E+02  0.7818608E-02  0.1130116E+00
         25   -1    0    0    0    0  0.00000000000E+00  0.00000000000E+00  0.99999998245E-14  0.12500000000E+03  0.12500000000E+03 0.  0.
        -11    1    1    0    0    0  0.13002768714E+01 -0.61119405697E+01 -0.10915512813E+02  0.12577557701E+02  0.51100000000E-03 0. -1.
         11    1    1    0    0    0  0.88134810148E+01 -0.23743921502E+02 -0.43036921302E+02  0.49936237857E+02  0.51100000000E-03 0.  1.
         22    1    1    0    0    0 -0.10113757886E+02  0.29855862072E+02  0.53952434115E+02  0.62486204442E+02  0.00000000000E+00 0.  1.
</event>
<event>
 4    1  0.1964735E-002  0.9118800E+02  0.7818608E-02  0.1130116E+00
         25   -1    0    0    0    0  0.00000000000E+00  0.00000000000E+00  0.99999998245E-14  0.12500000000E+03  0.12500000000E+03 0.  0.
        -11    1    1    0    0    0 -0.98570586587E+01 -0.17068654332E+02  0.10640097251E+02  0.22398933811E+02  0.51100000000E-03 0. -1.
         11    1    1    0    0    0 -0.17641725976E+02 -0.30557705581E+02  0.19054964062E+02  0.40101066338E+02  0.51100000000E-03 0.  1.
         22    1    1    0    0    0  0.27498784635E+02  0.47626359913E+02 -0.29695061313E+02  0.62499999851E+02  0.00000000000E+00 0.  1.
</event>
<event>
 4    1  0.1964735E-002  0.9118800E+02  0.7818608E-02  0.1130116E+00
         25   -1    0    0    0    0  0.00000000000E+00  0.00000000000E+00  0.99999998245E-14  0.12500000000E+03  0.12500000000E+03 0.  0.
        -11    1    1    0    0    0 -0.10487256844E+02 -0.21051022796E+02  0.94316167908E-02  0.23518677814E+02  0.51100000000E-03 0.  1.
         11    1    1    0    0    0 -0.17592096666E+02 -0.34786068244E+02 -0.46554883401E-01  0.38981464526E+02  0.51100000000E-03 0. -1.
         22    1    1    0    0    0  0.28079353510E+02  0.55837091041E+02  0.37123266611E-01  0.62499857660E+02  0.00000000000E+00 0. -1.
</event>
<event>
 4    1  0.1964735E-002  0.9118800E+02  0.7818608E-02  0.1130116E+00
         25   -1    0    0    0    0  0.00000000000E+00  0.00000000000E+00  0.99999998245E-14  0.12500000000E+03  0.12500000000E+03 0.  0.
        -11    1    1    0    0    0  0.33751820329E+02  0.23552969417E+01 -0.19201311003E+02  0.38902739540E+02  0.51100000000E-03 0.  1.
         11    1    1    0    0    0  0.20472858525E+02  0.14281484131E+01 -0.11647023532E+02  0.23597260466E+02  0.51100000000E-03 0.  1.
         22    1    1    0    0    0 -0.54224678854E+02 -0.37834453548E+01  0.30848334535E+02  0.62499999994E+02  0.00000000000E+00 0.  1.
</event>
<event>
 4    1  0.1964735E-002  0.9118800E+02  0.7818608E-02  0.1130116E+00
         25   -1    0    0    0    0  0.00000000000E+00  0.00000000000E+00  0.99999998245E-14  0.12500000000E+03  0.12500000000E+03 0.  0.
        -11    1    1    0    0    0 -0.31173180462E+00  0.73391884202E+01 -0.14754921122E+02  0.16482371218E+02  0.51100000000E-03 0.  1.
         11    1    1    0    0    0  0.25215816799E+00  0.20338548633E+02 -0.41280409050E+02  0.46019477570E+02  0.51100000000E-03 0. -1.
         22    1    1    0    0    0  0.59573636628E-01 -0.27677737053E+02  0.56035330172E+02  0.62498151212E+02  0.00000000000E+00 0.  1.
</event>
<event>
 4    1  0.1964735E-002  0.9118800E+02  0.7818608E-02  0.1130116E+00
         25   -1    0    0    0    0  0.00000000000E+00  0.00000000000E+00  0.99999998245E-14  0.12500000000E+03  0.12500000000E+03 0.  0.
        -11    1    1    0    0    0 -0.16328983799E+01  0.38601510500E-01  0.18306161526E+01  0.24533656383E+01  0.51100000000E-03 0.  1.
         11    1    1    0    0    0 -0.39533897000E+02  0.55944436542E+00  0.45192541799E+02  0.60046713686E+02  0.51100000000E-03 0. -1.
         22    1    1    0    0    0  0.41166795380E+02 -0.59804587592E+00 -0.47023157951E+02  0.62499920676E+02  0.00000000000E+00 0. -1.
</event>
<event>
 4    1  0.1964735E-002  0.9118800E+02  0.7818608E-02  0.1130116E+00
         25   -1    0    0    0    0  0.00000000000E+00  0.00000000000E+00  0.99999998245E-14  0.12500000000E+03  0.12500000000E+03 0.  0.
        -11    1    1    0    0    0 -0.80216601432E+01 -0.26659750052E+02  0.14087000766E+02  0.31201488668E+02  0.51100000000E-03 0. -1.
         11    1    1    0    0    0 -0.82843855864E+01 -0.26841536832E+02  0.13803656647E+02  0.31299202564E+02  0.51100000000E-03 0.  1.
         22    1    1    0    0    0  0.16306045730E+02  0.53501286884E+02 -0.27890657413E+02  0.62499308768E+02  0.00000000000E+00 0.  1.
</event>
<event>
 4    1  0.1964735E-002  0.9118800E+02  0.7818608E-02  0.1130116E+00
         25   -1    0    0    0    0  0.00000000000E+00  0.00000000000E+00  0.99999998245E-14  0.12500000000E+03  0.12500000000E+03 0.  0.
        -11    1    1    0    0    0 -0.24346718226E+02 -0.11413568837E+02 -0.57624799435E+01  0.27499789405E+02  0.51100000000E-03 0.  1.
         11    1    1    0    0    0 -0.30986859474E+02 -0.14527169569E+02 -0.73342093008E+01  0.35000210601E+02  0.51100000000E-03 0.  1.
         22    1    1    0    0    0  0.55333577700E+02  0.25940738406E+02  0.13096689244E+02  0.62499999994E+02  0.00000000000E+00 0.  1.
</event>
<event>
 4    1  0.1964735E-002  0.9118800E+02  0.7818608E-02  0.1130116E+00
         25   -1    0    0    0    0  0.00000000000E+00  0.00000000000E+00  0.99999998245E-14  0.12500000000E+03  0.12500000000E+03 0.  0.
        -11    1    1    0    0    0  0.91870828334E+01  0.14632982618E+02 -0.16344127813E+02  0.23783548632E+02  0.51100000000E-03 0.  1.
         11    1    1    0    0    0  0.14945847941E+02  0.23821872582E+02 -0.26610216899E+02  0.38716451641E+02  0.51100000000E-03 0. -1.
         22    1    1    0    0    0 -0.24132930774E+02 -0.38454855200E+02  0.42954344712E+02  0.62499999727E+02  0.00000000000E+00 0. -1.
</event>
<event>
 4    1  0.1964735E-002  0.9118800E+02  0.7818608E-02  0.1130116E+00
         25   -1    0    0    0    0  0.00000000000E+00  0.00000000000E+00  0.99999998245E-14  0.12500000000E+03  0.12500000000E+03 0.  0.
        -11    1    1    0    0    0  0.23905265554E+02  0.10545460440E+02  0.64548841495E+01  0.26913453639E+02  0.51100000000E-03 0. -1.
         11    1    1    0    0    0  0.31982596558E+02  0.13114453942E+02  0.84679414696E+01  0.35589063176E+02  0.51100000000E-03 0.  1.
         22    1    1    0    0    0 -0.55887862112E+02 -0.23659914382E+02 -0.14922825619E+02  0.62497483185E+02  0.00000000000E+00 0.  1.
</event>
<event>
 4    1  0.1964735E-002  0.9118800E+02  0.7818608E-02  0.1130116E+00
         25   -1    0    0    0    0  0.00000000000E+00  0.00000000000E+00  0.99999998245E-14  0.12500000000E+03  0.12500000000E+03 0.  0.
        -11    1    1    0    0    0  0.30215623199E+01  0.20028716727E+01 -0.16290396457E+01  0.39743055015E+01  0.51100000000E-03 0. -1.
         11    1    1    0    0    0  0.35986266313E+02  0.41806829305E+02 -0.19751755140E+02  0.58591417213E+02  0.51100000000E-03 0.  1.
         22    1    1    0    0    0 -0.39007828633E+02 -0.43809700978E+02  0.21380794786E+02  0.62434277285E+02  0.00000000000E+00 0.  1.
</event>
<event>
 4    1  0.1964735E-002  0.9118800E+02  0.7818608E-02  0.1130116E+00
         25   -1    0    0    0    0  0.00000000000E+00  0.00000000000E+00  0.99999998245E-14  0.12500000000E+03  0.12500000000E+03 0.  0.
        -11    1    1    0    0    0  0.31423122881E+01 -0.22174727877E+01  0.33033120315E+02  0.33256252796E+02  0.51100000000E-03 0.  1.
         11    1    1    0    0    0  0.27314562324E+01 -0.19412607017E+01  0.29051122102E+02  0.29243752185E+02  0.51100000000E-03 0. -1.
         22    1    1    0    0    0 -0.58737685205E+01  0.41587334894E+01 -0.62084242416E+02  0.62499995018E+02  0.00000000000E+00 0. -1.
</event>
<event>
 4    1  0.1964735E-002  0.9118800E+02  0.7818608E-02  0.1130116E+00
         25   -1    0    0    0    0  0.00000000000E+00  0.00000000000E+00  0.99999998245E-14  0.12500000000E+03  0.12500000000E+03 0.  0.
        -11    1    1    0    0    0 -0.21900341722E+02 -0.32599242600E+02  0.28636796774E+02  0.48604544184E+02  0.51100000000E-03 0. -1.
         11    1    1    0    0    0  0.12922864358E+01 -0.12819349956E+02  0.74048292707E+01  0.14860593336E+02  0.51100000000E-03 0.  1.
         22    1    1    0    0    0  0.20608055286E+02  0.45418592555E+02 -0.36041626045E+02  0.61534862479E+02  0.00000000000E+00 0. -1.
</event>
<event>
 4    1  0.1964735E-002  0.9118800E+02  0.7818608E-02  0.1130116E+00
         25   -1    0    0    0    0  0.00000000000E+00  0.00000000000E+00  0.99999998245E-14  0.12500000000E+03  0.12500000000E+03 0.  0.
        -11    1    1    0    0    0 -0.15013895038E+02  0.71983095910E+01 -0.31167540775E+02  0.35336218012E+02  0.51100000000E-03 0. -1.
         11    1    1    0    0    0 -0.18685284873E+02  0.33862384862E+01 -0.19941358237E+02  0.27536598382E+02  0.51100000000E-03 0.  1.
         22    1    1    0    0    0  0.33699179911E+02 -0.10584548077E+02  0.51108899011E+02  0.62127183606E+02  0.00000000000E+00 0.  1.
</event>
<event>
 4    1  0.1964735E-002  0.9118800E+02  0.7818608E-02  0.1130116E+00
         25   -1    0    0    0    0  0.00000000000E+00  0.00000000000E+00  0.99999998245E-14  0.12500000000E+03  0.12500000000E+03 0.  0.
        -11    1    1    0    0    0 -0.11071413503E+00  0.20749761527E+02 -0.17286481763E+01  0.20821937610E+02  0.51100000000E-03 0. -1.
         11    1    1    0    0    0  0.17823531663E+01  0.41594706614E+02 -0.21705271707E+01  0.41689418196E+02  0.51100000000E-03 0.  1.
         22    1    1    0    0    0 -0.16716390312E+01 -0.62344468141E+02  0.38991753470E+01  0.62488644194E+02  0.00000000000E+00 0.  1.
</event>
<event>
 4    1  0.1964735E-002  0.9118800E+02  0.7818608E-02  0.1130116E+00
         25   -1    0    0    0    0  0.00000000000E+00  0.00000000000E+00  0.99999998245E-14  0.12500000000E+03  0.12500000000E+03 0.  0.
        -11    1    1    0    0    0 -0.92208686689E+01  0.27386739946E+02 -0.40412910662E+01  0.29178587656E+02  0.51100000000E-03 0.  1.
         11    1    1    0    0    0 -0.10535257161E+02  0.31272909307E+02 -0.46184446226E+01  0.33321412500E+02  0.51100000000E-03 0. -1.
         22    1    1    0    0    0  0.19756125830E+02 -0.58659649253E+02  0.86597356888E+01  0.62499999844E+02  0.00000000000E+00 0. -1.
</event>
<event>
 4    1  0.1964735E-002  0.9118800E+02  0.7818608E-02  0.1130116E+00
         25   -1    0    0    0    0  0.00000000000E+00  0.00000000000E+00  0.99999998245E-14  0.12500000000E+03  0.12500000000E+03 0.  0.
        -11    1    1    0    0    0 -0.22553936588E+02 -0.24877379351E+02  0.35974970536E+02  0.49211406852E+02  0.51100000000E-03 0. -1.
         11    1    1    0    0    0 -0.32420002852E+01 -0.56434556062E+01  0.11816978765E+02  0.13490742915E+02  0.51100000000E-03 0.  1.
         22    1    1    0    0    0  0.25795936873E+02  0.30520834957E+02 -0.47791949301E+02  0.62297850233E+02  0.00000000000E+00 0. -1.
</event>
<event>
 4    1  0.1964735E-002  0.9118800E+02  0.7818608E-02  0.1130116E+00
         25   -1    0    0    0    0  0.00000000000E+00  0.00000000000E+00  0.99999998245E-14  0.12500000000E+03  0.12500000000E+03 0.  0.
        -11    1    1    0    0    0 -0.48547245696E+00 -0.12825385201E+02 -0.58304117526E+01  0.14096804267E+02  0.51100000000E-03 0. -1.
         11    1    1    0    0    0  0.86695986219E+00 -0.45151608703E+02 -0.17465673338E+02  0.48419718434E+02  0.51100000000E-03 0.  1.
         22    1    1    0    0    0 -0.38148740523E+00  0.57976993904E+02  0.23296085091E+02  0.62483477299E+02  0.00000000000E+00 0.  1.
</event>
<event>
 4    1  0.1964735E-002  0.9118800E+02  0.7818608E-02  0.1130116E+00
         25   -1    0    0    0    0  0.00000000000E+00  0.00000000000E+00  0.99999998245E-14  0.12500000000E+03  0.12500000000E+03 0.  0.
        -11    1    1    0    0    0 -0.31663086766E+01  0.19047233421E+02  0.28452932057E+02  0.34385926693E+02  0.51100000000E-03 0.  1.
         11    1    1    0    0    0 -0.31491341416E+01  0.15344217460E+02  0.23348272727E+02  0.28115901104E+02  0.51100000000E-03 0. -1.
         22    1    1    0    0    0  0.63154428182E+01 -0.34391450881E+02 -0.51801204784E+02  0.62498172203E+02  0.00000000000E+00 0.  1.
</event>
<event>
 4    1  0.1964735E-002  0.9118800E+02  0.7818608E-02  0.1130116E+00
         25   -1    0    0    0    0  0.00000000000E+00  0.00000000000E+00  0.99999998245E-14  0.12500000000E+03  0.12500000000E+03 0.  0.
        -11    1    1    0    0    0  0.79660716807E+01  0.87591866300E+01  0.17593748452E+02  0.21206641255E+02  0.51100000000E-03 0. -1.
         11    1    1    0    0    0  0.15523322503E+02  0.17055275791E+02  0.34253255774E+02  0.41293359094E+02  0.51100000000E-03 0.  1.
         22    1    1    0    0    0 -0.23489394183E+02 -0.25814462421E+02 -0.51847004227E+02  0.62499999652E+02  0.00000000000E+00 0.  1.
</event>
<event>
 4    1  0.1964735E-002  0.9118800E+02  0.7818608E-02  0.1130116E+00
         25   -1    0    0    0    0  0.00000000000E+00  0.00000000000E+00  0.99999998245E-14  0.12500000000E+03  0.12500000000E+03 0.  0.
        -11    1    1    0    0    0  0.10592581266E+02  0.22735573313E+01 -0.25734964576E+01  0.11135291873E+02  0.51100000000E-03 0. -1.
         11    1    1    0    0    0  0.48850379705E+02  0.10495544557E+02 -0.11908708236E+02  0.51364709529E+02  0.51100000000E-03 0.  1.
         22    1    1    0    0    0 -0.59442960971E+02 -0.12769101888E+02  0.14482204694E+02  0.62499998598E+02  0.00000000000E+00 0.  1.
</event>
<event>
 4    1  0.1964735E-002  0.9118800E+02  0.7818608E-02  0.1130116E+00
         25   -1    0    0    0    0  0.00000000000E+00  0.00000000000E+00  0.99999998245E-14  0.12500000000E+03  0.12500000000E+03 0.  0.
        -11    1    1    0    0    0  0.10386490909E+02  0.22841143336E+01  0.62346080004E+01  0.12327477799E+02  0.51100000000E-03 0. -1.
         11    1    1    0    0    0  0.42268041683E+02  0.91186098421E+01  0.25446988471E+02  0.50172558393E+02  0.51100000000E-03 0.  1.
         22    1    1    0    0    0 -0.52654532592E+02 -0.11402724176E+02 -0.31681596472E+02  0.62499963809E+02  0.00000000000E+00 0.  1.
</event>
<event>
 4    1  0.1964735E-002  0.9118800E+02  0.7818608E-02  0.1130116E+00
         25   -1    0    0    0    0  0.00000000000E+00  0.00000000000E+00  0.99999998245E-14  0.12500000000E+03  0.12500000000E+03 0.  0.
        -11    1    1    0    0    0 -0.64091794644E+01  0.12306439192E+02  0.29570345268E+01  0.14186968684E+02  0.51100000000E-03 0. -1.
         11    1    1    0    0    0 -0.32932685948E+02  0.31494936397E+02 -0.19637880838E+02  0.49619947465E+02  0.51100000000E-03 0.  1.
         22    1    1    0    0    0  0.39341865412E+02 -0.43801375589E+02  0.16680846311E+02  0.61193083851E+02  0.00000000000E+00 0.  1.
</event>
<event>
 4    1  0.1964735E-002  0.9118800E+02  0.7818608E-02  0.1130116E+00
         25   -1    0    0    0    0  0.00000000000E+00  0.00000000000E+00  0.99999998245E-14  0.12500000000E+03  0.12500000000E+03 0.  0.
        -11    1    1    0    0    0  0.25756238804E+02  0.22822441416E+02  0.31115369211E+02  0.46394114615E+02  0.51100000000E-03 0.  1.
         11    1    1    0    0    0  0.43291644120E+01  0.11198624454E+02  0.11282662684E+02  0.16475719458E+02  0.51100000000E-03 0. -1.
         22    1    1    0    0    0 -0.30085403216E+02 -0.34021065869E+02 -0.42398031895E+02  0.62130165927E+02  0.00000000000E+00 0.  1.
</event>
<event>
 4    1  0.1964735E-002  0.9118800E+02  0.7818608E-02  0.1130116E+00
         25   -1    0    0    0    0  0.00000000000E+00  0.00000000000E+00  0.99999998245E-14  0.12500000000E+03  0.12500000000E+03 0.  0.
        -11    1    1    0    0    0  0.16193142684E+02  0.28342038944E+02 -0.31072929947E+02  0.45066795063E+02  0.51100000000E-03 0.  1.
         11    1    1    0    0    0  0.68027280784E+01  0.13566444994E+02 -0.89227638338E+01  0.17605148502E+02  0.51100000000E-03 0. -1.
         22    1    1    0    0    0 -0.22995870762E+02 -0.41908483937E+02  0.39995693781E+02  0.62328056436E+02  0.00000000000E+00 0.  1.
</event>
<event>
 4    1  0.1964735E-002  0.9118800E+02  0.7818608E-02  0.1130116E+00
         25   -1    0    0    0    0  0.00000000000E+00  0.00000000000E+00  0.99999998245E-14  0.12500000000E+03  0.12500000000E+03 0.  0.
        -11    1    1    0    0    0 -0.17934212161E+02  0.51505784025E+02 -0.11108908922E+02  0.55658688554E+02  0.51100000000E-03 0. -1.
         11    1    1    0    0    0 -0.22070034973E+01  0.63295389480E+01 -0.13673404287E+01  0.68413118508E+01  0.51100000000E-03 0.  1.
         22    1    1    0    0    0  0.20141215658E+02 -0.57835322973E+02  0.12476249350E+02  0.62499999595E+02  0.00000000000E+00 0. -1.
</event>
<event>
 4    1  0.1964735E-002  0.9118800E+02  0.7818608E-02  0.1130116E+00
         25   -1    0    0    0    0  0.00000000000E+00  0.00000000000E+00  0.99999998245E-14  0.12500000000E+03  0.12500000000E+03 0.  0.
        -11    1    1    0    0    0 -0.40240572032E+02  0.11428295670E+02 -0.34893553803E+02  0.54474486474E+02  0.51100000000E-03 0. -1.
         11    1    1    0    0    0 -0.70598565621E+01  0.27609374637E+01 -0.31288075869E+01  0.82008406601E+01  0.51100000000E-03 0.  1.
         22    1    1    0    0    0  0.47300428595E+02 -0.14189233133E+02  0.38022361390E+02  0.62324672865E+02  0.00000000000E+00 0. -1.
</event>
<event>
 4    1  0.1964735E-002  0.9118800E+02  0.7818608E-02  0.1130116E+00
         25   -1    0    0    0    0  0.00000000000E+00  0.00000000000E+00  0.99999998245E-14  0.12500000000E+03  0.12500000000E+03 0.  0.
        -11    1    1    0    0    0 -0.95181857735E+01  0.11740945869E+02  0.90523118908E+00  0.15141503033E+02  0.51100000000E-03 0. -1.
         11    1    1    0    0    0 -0.29700622469E+02  0.36771787975E+02  0.29219422731E+01  0.47358516793E+02  0.51100000000E-03 0.  1.
         22    1    1    0    0    0  0.39218808243E+02 -0.48512733844E+02 -0.38271734621E+01  0.62499980174E+02  0.00000000000E+00 0.  1.
</event>
<event>
 4    1  0.1964735E-002  0.9118800E+02  0.7818608E-02  0.1130116E+00
         25   -1    0    0    0    0  0.00000000000E+00  0.00000000000E+00  0.99999998245E-14  0.12500000000E+03  0.12500000000E+03 0.  0.
        -11    1    1    0    0    0 -0.40178610039E+01  0.12257893260E+01 -0.18605606644E+01  0.45942847937E+01  0.51100000000E-03 0.  1.
         11    1    1    0    0    0 -0.50978349164E+02  0.14834159139E+02 -0.23113843735E+02  0.57905907586E+02  0.51100000000E-03 0. -1.
         22    1    1    0    0    0  0.54996210168E+02 -0.16059948465E+02  0.24974404400E+02  0.62499807621E+02  0.00000000000E+00 0. -1.
</event>
<event>
 4    1  0.1964735E-002  0.9118800E+02  0.7818608E-02  0.1130116E+00
         25   -1    0    0    0    0  0.00000000000E+00  0.00000000000E+00  0.99999998245E-14  0.12500000000E+03  0.12500000000E+03 0.  0.
        -11    1    1    0    0    0 -0.23400814265E-02 -0.18932742859E+00  0.35278808135E+00  0.40038736576E+00  0.51100000000E-03 0. -1.
         11    1    1    0    0    0 -0.72889328465E+01 -0.14853796461E+02  0.59862434366E+02  0.62106963054E+02  0.51100000000E-03 0.  1.
         22    1    1    0    0    0  0.72912729280E+01  0.15043123889E+02 -0.60215222447E+02  0.62492649580E+02  0.00000000000E+00 0.  1.
</event>
<event>
 4    1  0.1964735E-002  0.9118800E+02  0.7818608E-02  0.1130116E+00
         25   -1    0    0    0    0  0.00000000000E+00  0.00000000000E+00  0.99999998245E-14  0.12500000000E+03  0.12500000000E+03 0.  0.
        -11    1    1    0    0    0 -0.25472733320E+01  0.29671396474E+01  0.70307514270E+00  0.39732649084E+01  0.51100000000E-03 0.  1.
         11    1    1    0    0    0 -0.35432519654E+02  0.43651737233E+02  0.16300401657E+02  0.58537515380E+02  0.51100000000E-03 0. -1.
         22    1    1    0    0    0  0.37979792986E+02 -0.46618876880E+02 -0.17003476800E+02  0.62489219711E+02  0.00000000000E+00 0. -1.
</event>
<event>
 4    1  0.1964735E-002  0.9118800E+02  0.7818608E-02  0.1130116E+00
         25   -1    0    0    0    0  0.00000000000E+00  0.00000000000E+00  0.99999998245E-14  0.12500000000E+03  0.12500000000E+03 0.  0.
        -11    1    1    0    0    0 -0.11257131574E+02 -0.10033035732E+02  0.81392706381E+00  0.15101234876E+02  0.51100000000E-03 0.  1.
         11    1    1    0    0    0 -0.48416416987E+02  0.43719140220E+01 -0.88775368199E+01  0.49417342364E+02  0.51100000000E-03 0. -1.
         22    1    1    0    0    0  0.59673548560E+02  0.56611217096E+01  0.80636097561E+01  0.60481422760E+02  0.00000000000E+00 0. -1.
</event>
<event>
 4    1  0.1964735E-002  0.9118800E+02  0.7818608E-02  0.1130116E+00
         25   -1    0    0    0    0  0.00000000000E+00  0.00000000000E+00  0.99999998245E-14  0.12500000000E+03  0.12500000000E+03 0.  0.
        -11    1    1    0    0    0  0.17963244806E+02  0.28660565663E+02 -0.16378168912E+01  0.33864267784E+02  0.51100000000E-03 0. -1.
         11    1    1    0    0    0  0.15189673896E+02  0.24235548880E+02 -0.13846071662E+01  0.28635732221E+02  0.51100000000E-03 0.  1.
         22    1    1    0    0    0 -0.33152918702E+02 -0.52896114543E+02  0.30224240574E+01  0.62499999995E+02  0.00000000000E+00 0. -1.
</event>
<event>
 4    1  0.1964735E-002  0.9118800E+02  0.7818608E-02  0.1130116E+00
         25   -1    0    0    0    0  0.00000000000E+00  0.00000000000E+00  0.99999998245E-14  0.12500000000E+03  0.12500000000E+03 0.  0.
        -11    1    1    0    0    0 -0.29206141061E+00 -0.20324357881E+01 -0.89826464776E+00  0.22411993974E+01  0.51100000000E-03 0. -1.
         11    1    1    0    0    0 -0.76812111072E+01 -0.54644968048E+02 -0.24208471686E+02  0.60258805486E+02  0.51100000000E-03 0.  1.
         22    1    1    0    0    0  0.79732725178E+01  0.56677403836E+02  0.25106736334E+02  0.62499995116E+02  0.00000000000E+00 0.  1.
</event>
<event>
 4    1  0.1964735E-002  0.9118800E+02  0.7818608E-02  0.1130116E+00
         25   -1    0    0    0    0  0.00000000000E+00  0.00000000000E+00  0.99999998245E-14  0.12500000000E+03  0.12500000000E+03 0.  0.
        -11    1    1    0    0    0 -0.21732838288E+02  0.22882176429E+02 -0.41265713678E+02  0.51949681267E+02  0.51100000000E-03 0.  1.
         11    1    1    0    0    0 -0.43780197250E+01  0.45802170407E+01 -0.84360801486E+01  0.10550492566E+02  0.51100000000E-03 0. -1.
         22    1    1    0    0    0  0.26110858013E+02 -0.27462393469E+02  0.49701793827E+02  0.62499826166E+02  0.00000000000E+00 0.  1.
</event>
<event>
 4    1  0.1964735E-002  0.9118800E+02  0.7818608E-02  0.1130116E+00
         25   -1    0    0    0    0  0.00000000000E+00  0.00000000000E+00  0.99999998245E-14  0.12500000000E+03  0.12500000000E+03 0.  0.
        -11    1    1    0    0    0 -0.66247112876E+00 -0.21690309438E+00  0.22720371337E+00  0.73316896912E+00  0.51100000000E-03 0. -1.
         11    1    1    0    0    0 -0.56986205644E+02 -0.13422023799E+02  0.19690377979E+02  0.61768028475E+02  0.51100000000E-03 0.  1.
         22    1    1    0    0    0  0.57648676772E+02  0.13638926893E+02 -0.19917581692E+02  0.62498802556E+02  0.00000000000E+00 0.  1.
</event>
<event>
 4    1  0.1964735E-002  0.9118800E+02  0.7818608E-02  0.1130116E+00
         25   -1    0    0    0    0  0.00000000000E+00  0.00000000000E+00  0.99999998245E-14  0.12500000000E+03  0.12500000000E+03 0.  0.
        -11    1    1    0    0    0 -0.26197482852E+02  0.95064182246E+01  0.37936323002E+02  0.47072759622E+02  0.51100000000E-03 0.  1.
         11    1    1    0    0    0 -0.91763260160E+01  0.32321855689E+01  0.11981691929E+02  0.15434147999E+02  0.51100000000E-03 0. -1.
         22    1    1    0    0    0  0.35373808868E+02 -0.12738603794E+02 -0.49918014931E+02  0.62493092379E+02  0.00000000000E+00 0.  1.
</event>
<event>
 4    1  0.1964735E-002  0.9118800E+02  0.7818608E-02  0.1130116E+00
         25   -1    0    0    0    0  0.00000000000E+00  0.00000000000E+00  0.99999998245E-14  0.12500000000E+03  0.12500000000E+03 0.  0.
        -11    1    1    0    0    0 -0.64058692825E+01  0.39515647526E+02 -0.81347108962E+01  0.40849664408E+02  0.51100000000E-03 0.  1.
         11    1    1    0    0    0 -0.78259450764E+01  0.16058162899E+02 -0.13964106414E+02  0.22673911886E+02  0.51100000000E-03 0. -1.
         22    1    1    0    0    0  0.14231814359E+02 -0.55573810425E+02  0.22098817310E+02  0.61476423705E+02  0.00000000000E+00 0.  1.
</event>
<event>
 4    1  0.1964735E-002  0.9118800E+02  0.7818608E-02  0.1130116E+00
         25   -1    0    0    0    0  0.00000000000E+00  0.00000000000E+00  0.99999998245E-14  0.12500000000E+03  0.12500000000E+03 0.  0.
        -11    1    1    0    0    0 -0.37878615151E+00  0.26275909194E+00 -0.98975237656E+00  0.10918476620E+01  0.51100000000E-03 0. -1.
         11    1    1    0    0    0 -0.21316432584E+02  0.14757448279E+02 -0.55666763945E+02  0.61408152441E+02  0.51100000000E-03 0.  1.
         22    1    1    0    0    0  0.21695218735E+02 -0.15020207371E+02  0.56656516322E+02  0.62499999897E+02  0.00000000000E+00 0.  1.
</event>
<event>
 4    1  0.1964735E-002  0.9118800E+02  0.7818608E-02  0.1130116E+00
         25   -1    0    0    0    0  0.00000000000E+00  0.00000000000E+00  0.99999998245E-14  0.12500000000E+03  0.12500000000E+03 0.  0.
        -11    1    1    0    0    0  0.97549008315E+00  0.50094503320E+02  0.16422042429E+02  0.52726599754E+02  0.51100000000E-03 0. -1.
         11    1    1    0    0    0  0.17195077907E+00  0.92842189535E+01  0.30484595976E+01  0.97734024182E+01  0.51100000000E-03 0.  1.
         22    1    1    0    0    0 -0.11474408622E+01 -0.59378722274E+02 -0.19470502026E+02  0.62499997828E+02  0.00000000000E+00 0. -1.
</event>
<event>
 4    1  0.1964735E-002  0.9118800E+02  0.7818608E-02  0.1130116E+00
         25   -1    0    0    0    0  0.00000000000E+00  0.00000000000E+00  0.99999998245E-14  0.12500000000E+03  0.12500000000E+03 0.  0.
        -11    1    1    0    0    0 -0.24701937543E+02 -0.22037156195E+02  0.38947056698E+02  0.51114530197E+02  0.51100000000E-03 0. -1.
         11    1    1    0    0    0 -0.35830547813E+01  0.16237952843E+02  0.82456875311E+01  0.18560731592E+02  0.51100000000E-03 0.  1.
         22    1    1    0    0    0  0.28284992324E+02  0.57992033520E+01 -0.47192744229E+02  0.55324738211E+02  0.00000000000E+00 0. -1.
</event>
<event>
 4    1  0.1964735E-002  0.9118800E+02  0.7818608E-02  0.1130116E+00
         25   -1    0    0    0    0  0.00000000000E+00  0.00000000000E+00  0.99999998245E-14  0.12500000000E+03  0.12500000000E+03 0.  0.
        -11    1    1    0    0    0 -0.85245104353E+01 -0.31409670720E+01  0.40803688841E+02  0.41802798658E+02  0.51100000000E-03 0.  1.
         11    1    1    0    0    0 -0.42573653400E+01 -0.15947450376E+01  0.20191750469E+02  0.20697225868E+02  0.51100000000E-03 0. -1.
         22    1    1    0    0    0  0.12781875775E+02  0.47357121096E+01 -0.60995439311E+02  0.62499975474E+02  0.00000000000E+00 0.  1.
</event>
<event>
 4    1  0.1964735E-002  0.9118800E+02  0.7818608E-02  0.1130116E+00
         25   -1    0    0    0    0  0.00000000000E+00  0.00000000000E+00  0.99999998245E-14  0.12500000000E+03  0.12500000000E+03 0.  0.
        -11    1    1    0    0    0  0.41687486128E+00 -0.18595129405E+01  0.66837221793E+00  0.20194788211E+01  0.51100000000E-03 0. -1.
         11    1    1    0    0    0  0.12496761054E+02 -0.55690069221E+02  0.20008513253E+02  0.60480521241E+02  0.51100000000E-03 0. -1.
         22    1    1    0    0    0 -0.12913635915E+02  0.57549582162E+02 -0.20676885471E+02  0.62499999938E+02  0.00000000000E+00 0. -1.
</event>
<event>
 4    1  0.1964735E-002  0.9118800E+02  0.7818608E-02  0.1130116E+00
         25   -1    0    0    0    0  0.00000000000E+00  0.00000000000E+00  0.99999998245E-14  0.12500000000E+03  0.12500000000E+03 0.  0.
        -11    1    1    0    0    0  0.65891785303E+00  0.34254393017E+01  0.45707487515E+01  0.57497436079E+01  0.51100000000E-03 0.  1.
         11    1    1    0    0    0  0.64983285654E+01  0.33811967204E+02  0.45112240058E+02  0.56750256419E+02  0.51100000000E-03 0.  1.
         22    1    1    0    0    0 -0.71572464185E+01 -0.37237406506E+02 -0.49682988809E+02  0.62499999973E+02  0.00000000000E+00 0.  1.
</event>
<event>
 4    1  0.1964735E-002  0.9118800E+02  0.7818608E-02  0.1130116E+00
         25   -1    0    0    0    0  0.00000000000E+00  0.00000000000E+00  0.99999998245E-14  0.12500000000E+03  0.12500000000E+03 0.  0.
        -11    1    1    0    0    0 -0.31498182532E+01 -0.15033179672E+01 -0.28165870445E+01  0.44849172544E+01  0.51100000000E-03 0. -1.
         11    1    1    0    0    0 -0.41041778366E+02 -0.19166857125E+02 -0.36248600626E+02  0.58015144843E+02  0.51100000000E-03 0.  1.
         22    1    1    0    0    0  0.44191596619E+02  0.20670175092E+02  0.39065187671E+02  0.62499937903E+02  0.00000000000E+00 0.  1.
</event>
<event>
 4    1  0.1964735E-002  0.9118800E+02  0.7818608E-02  0.1130116E+00
         25   -1    0    0    0    0  0.00000000000E+00  0.00000000000E+00  0.99999998245E-14  0.12500000000E+03  0.12500000000E+03 0.  0.
        -11    1    1    0    0    0  0.21778161684E+02  0.58606429187E+01  0.39481891684E+02  0.45469277903E+02  0.51100000000E-03 0. -1.
         11    1    1    0    0    0  0.80999269295E+01  0.22757335468E+01  0.14807477996E+02  0.17030830406E+02  0.51100000000E-03 0.  1.
         22    1    1    0    0    0 -0.29878088613E+02 -0.81363764655E+01 -0.54289369680E+02  0.62499891692E+02  0.00000000000E+00 0. -1.
</event>
<event>
 4    1  0.1964735E-002  0.9118800E+02  0.7818608E-02  0.1130116E+00
         25   -1    0    0    0    0  0.00000000000E+00  0.00000000000E+00  0.99999998245E-14  0.12500000000E+03  0.12500000000E+03 0.  0.
        -11    1    1    0    0    0  0.16292180604E+01  0.48092573353E+01 -0.17065913405E+02  0.17805300003E+02  0.51100000000E-03 0.  1.
         11    1    1    0    0    0 -0.31896019102E+02 -0.11311288781E+02 -0.33683724495E+02  0.47748241691E+02  0.51100000000E-03 0. -1.
         22    1    1    0    0    0  0.30266801042E+02  0.65020314460E+01  0.50749637899E+02  0.59446458306E+02  0.00000000000E+00 0. -1.
</event>
<event>
 4    1  0.1964735E-002  0.9118800E+02  0.7818608E-02  0.1130116E+00
         25   -1    0    0    0    0  0.00000000000E+00  0.00000000000E+00  0.99999998245E-14  0.12500000000E+03  0.12500000000E+03 0.  0.
        -11    1    1    0    0    0  0.37618850829E+02  0.25131211486E+01 -0.43834703628E+02  0.57818465545E+02  0.51100000000E-03 0.  1.
         11    1    1    0    0    0  0.26725058818E+01  0.67279872937E+01  0.15376015812E+02  0.16994998182E+02  0.51100000000E-03 0. -1.
         22    1    1    0    0    0 -0.40291356711E+02 -0.92411084422E+01  0.28458687816E+02  0.50186536273E+02  0.00000000000E+00 0.  1.
</event>
<event>
 4    1  0.1964735E-002  0.9118800E+02  0.7818608E-02  0.1130116E+00
         25   -1    0    0    0    0  0.00000000000E+00  0.00000000000E+00  0.99999998245E-14  0.12500000000E+03  0.12500000000E+03 0.  0.
        -11    1    1    0    0    0 -0.66662295975E+01  0.59004569105E+02 -0.72047803924E+01  0.59815438250E+02  0.51100000000E-03 0. -1.
         11    1    1    0    0    0 -0.29899155582E+00  0.26482030024E+01 -0.32325933042E+00  0.26845617795E+01  0.51100000000E-03 0. -1.
         22    1    1    0    0    0  0.69652211533E+01 -0.61652772107E+02  0.75280397229E+01  0.62499999970E+02  0.00000000000E+00 0. -1.
</event>
<event>
 4    1  0.1964735E-002  0.9118800E+02  0.7818608E-02  0.1130116E+00
         25   -1    0    0    0    0  0.00000000000E+00  0.00000000000E+00  0.99999998245E-14  0.12500000000E+03  0.12500000000E+03 0.  0.
        -11    1    1    0    0    0 -0.24985594493E+02  0.15726936620E+01 -0.80963727744E+01  0.26311680864E+02  0.51100000000E-03 0. -1.
         11    1    1    0    0    0 -0.34364401505E+02  0.21641171081E+01 -0.11135481514E+02  0.36188319144E+02  0.51100000000E-03 0. -1.
         22    1    1    0    0    0  0.59349995998E+02 -0.37368107700E+01  0.19231854288E+02  0.62499999992E+02  0.00000000000E+00 0. -1.
</event>
<event>
 4    1  0.1964735E-002  0.9118800E+02  0.7818608E-02  0.1130116E+00
         25   -1    0    0    0    0  0.00000000000E+00  0.00000000000E+00  0.99999998245E-14  0.12500000000E+03  0.12500000000E+03 0.  0.
        -11    1    1    0    0    0  0.32702772542E+02  0.97496670577E+01  0.92604932422E+01  0.35359356259E+02  0.51100000000E-03 0. -1.
         11    1    1    0    0    0  0.25294150236E+02  0.71893861738E+01  0.67238349792E+01  0.27142057159E+02  0.51100000000E-03 0.  1.
         22    1    1    0    0    0 -0.57996922778E+02 -0.16939053231E+02 -0.15984328221E+02  0.62498586583E+02  0.00000000000E+00 0. -1.
</event>
<event>
 4    1  0.1964735E-002  0.9118800E+02  0.7818608E-02  0.1130116E+00
         25   -1    0    0    0    0  0.00000000000E+00  0.00000000000E+00  0.99999998245E-14  0.12500000000E+03  0.12500000000E+03 0.  0.
        -11    1    1    0    0    0 -0.49507193188E+01 -0.27410379388E+01 -0.91444820602E+01  0.10753811564E+02  0.51100000000E-03 0.  1.
         11    1    1    0    0    0 -0.24289026460E+02 -0.12678852543E+02 -0.43897608485E+02  0.51746595436E+02  0.51100000000E-03 0. -1.
         22    1    1    0    0    0  0.29239745779E+02  0.15419890482E+02  0.53042090545E+02  0.62499593000E+02  0.00000000000E+00 0. -1.
</event>
<event>
 4    1  0.1964735E-002  0.9118800E+02  0.7818608E-02  0.1130116E+00
         25   -1    0    0    0    0  0.00000000000E+00  0.00000000000E+00  0.99999998245E-14  0.12500000000E+03  0.12500000000E+03 0.  0.
        -11    1    1    0    0    0 -0.11184369088E+02 -0.20884502616E+02  0.19276163855E+02  0.30542152095E+02  0.51100000000E-03 0. -1.
         11    1    1    0    0    0 -0.12131882830E+02 -0.21128272062E+02  0.20687101614E+02  0.31961580605E+02  0.51100000000E-03 0.  1.
         22    1    1    0    0    0  0.23316251918E+02  0.42012774677E+02 -0.39963265468E+02  0.62496267300E+02  0.00000000000E+00 0. -1.
</event>
<event>
 4    1  0.1964735E-002  0.9118800E+02  0.7818608E-02  0.1130116E+00
         25   -1    0    0    0    0  0.00000000000E+00  0.00000000000E+00  0.99999998245E-14  0.12500000000E+03  0.12500000000E+03 0.  0.
        -11    1    1    0    0    0 -0.21736886026E+01 -0.15114621025E+01 -0.21291734867E+00  0.26560824323E+01  0.51100000000E-03 0. -1.
         11    1    1    0    0    0 -0.32832065002E+02 -0.35431326254E+02  0.35900652293E+02  0.60184551238E+02  0.51100000000E-03 0.  1.
         22    1    1    0    0    0  0.35005753604E+02  0.36942788357E+02 -0.35687734945E+02  0.62159366329E+02  0.00000000000E+00 0.  1.
</event>
<event>
 4    1  0.1964735E-002  0.9118800E+02  0.7818608E-02  0.1130116E+00
         25   -1    0    0    0    0  0.00000000000E+00  0.00000000000E+00  0.99999998245E-14  0.12500000000E+03  0.12500000000E+03 0.  0.
        -11    1    1    0    0    0  0.69947110289E+00 -0.35937028221E+00 -0.78118385873E+00  0.11084472499E+01  0.51100000000E-03 0. -1.
         11    1    1    0    0    0  0.38795732652E+02 -0.19716100283E+02 -0.43302305078E+02  0.61391555671E+02  0.51100000000E-03 0.  1.
         22    1    1    0    0    0 -0.39495203755E+02  0.20075470565E+02  0.44083488937E+02  0.62499997079E+02  0.00000000000E+00 0.  1.
</event>
<event>
 4    1  0.1964735E-002  0.9118800E+02  0.7818608E-02  0.1130116E+00
         25   -1    0    0    0    0  0.00000000000E+00  0.00000000000E+00  0.99999998245E-14  0.12500000000E+03  0.12500000000E+03 0.  0.
        -11    1    1    0    0    0 -0.69538353116E+01  0.11194067510E+02  0.91849343637E+01  0.16063187495E+02  0.51100000000E-03 0.  1.
         11    1    1    0    0    0 -0.20108539363E+02  0.32371130428E+02  0.26535526581E+02  0.46436813109E+02  0.51100000000E-03 0. -1.
         22    1    1    0    0    0  0.27062374674E+02 -0.43565197938E+02 -0.35720460945E+02  0.62499999396E+02  0.00000000000E+00 0. -1.
</event>
<event>
 4    1  0.1964735E-002  0.9118800E+02  0.7818608E-02  0.1130116E+00
         25   -1    0    0    0    0  0.00000000000E+00  0.00000000000E+00  0.99999998245E-14  0.12500000000E+03  0.12500000000E+03 0.  0.
        -11    1    1    0    0    0  0.89295957878E+01 -0.57756013288E+01 -0.14186851074E+02  0.17730256493E+02  0.51100000000E-03 0. -1.
         11    1    1    0    0    0  0.22623768976E+02 -0.14636924531E+02 -0.35752725289E+02  0.44769764890E+02  0.51100000000E-03 0.  1.
         22    1    1    0    0    0 -0.31553364764E+02  0.20412525860E+02  0.49939576363E+02  0.62499978618E+02  0.00000000000E+00 0.  1.
</event>
<event>
 4    1  0.1964735E-002  0.9118800E+02  0.7818608E-02  0.1130116E+00
         25   -1    0    0    0    0  0.00000000000E+00  0.00000000000E+00  0.99999998245E-14  0.12500000000E+03  0.12500000000E+03 0.  0.
        -11    1    1    0    0    0  0.23545367765E+00  0.87432432321E+00 -0.13911582544E+01  0.16598804193E+01  0.51100000000E-03 0. -1.
         11    1    1    0    0    0  0.83021302263E+01  0.32410713420E+02 -0.50814801401E+02  0.60840149181E+02  0.51100000000E-03 0.  1.
         22    1    1    0    0    0 -0.85375839039E+01 -0.33285037743E+02  0.52205959655E+02  0.62499970400E+02  0.00000000000E+00 0.  1.
</event>
<event>
 4    1  0.1964735E-002  0.9118800E+02  0.7818608E-02  0.1130116E+00
         25   -1    0    0    0    0  0.00000000000E+00  0.00000000000E+00  0.99999998245E-14  0.12500000000E+03  0.12500000000E+03 0.  0.
        -11    1    1    0    0    0 -0.10557273451E+02 -0.30300324122E+01  0.46106295233E+01  0.11911969779E+02  0.51100000000E-03 0.  1.
         11    1    1    0    0    0 -0.16157430011E+02 -0.40245128633E+02  0.28962109687E+02  0.52149177568E+02  0.51100000000E-03 0. -1.
         22    1    1    0    0    0  0.26714703463E+02  0.43275161045E+02 -0.33572739211E+02  0.60938852653E+02  0.00000000000E+00 0. -1.
</event>
<event>
 4    1  0.1964735E-002  0.9118800E+02  0.7818608E-02  0.1130116E+00
         25   -1    0    0    0    0  0.00000000000E+00  0.00000000000E+00  0.99999998245E-14  0.12500000000E+03  0.12500000000E+03 0.  0.
        -11    1    1    0    0    0 -0.14758562267E+01  0.84884795022E+00 -0.53975110134E+01  0.56596660542E+01  0.51100000000E-03 0.  1.
         11    1    1    0    0    0 -0.14875665297E+02  0.85829146946E+01 -0.54183687849E+02  0.56840336662E+02  0.51100000000E-03 0. -1.
         22    1    1    0    0    0  0.16351521523E+02 -0.94317626448E+01  0.59581198862E+02  0.62499997284E+02  0.00000000000E+00 0. -1.
</event>
<event>
 4    1  0.1964735E-002  0.9118800E+02  0.7818608E-02  0.1130116E+00
         25   -1    0    0    0    0  0.00000000000E+00  0.00000000000E+00  0.99999998245E-14  0.12500000000E+03  0.12500000000E+03 0.  0.
        -11    1    1    0    0    0  0.13852469992E+01  0.69978420546E+01 -0.11861458943E+02  0.13841347881E+02  0.51100000000E-03 0. -1.
         11    1    1    0    0    0  0.51736671542E+02 -0.20469638642E+02  0.38411371300E+01  0.55771351275E+02  0.51100000000E-03 0.  1.
         22    1    1    0    0    0 -0.53121918541E+02  0.13471796587E+02  0.80203218125E+01  0.55387300843E+02  0.00000000000E+00 0.  1.
</event>
<event>
 4    1  0.1964735E-002  0.9118800E+02  0.7818608E-02  0.1130116E+00
         25   -1    0    0    0    0  0.00000000000E+00  0.00000000000E+00  0.99999998245E-14  0.12500000000E+03  0.12500000000E+03 0.  0.
        -11    1    1    0    0    0  0.10267842714E+02 -0.37356203157E+02  0.20187241750E+02  0.43685686879E+02  0.51100000000E-03 0.  1.
         11    1    1    0    0    0  0.34325930274E+01 -0.15657957606E+02  0.98962834448E+01  0.18838544465E+02  0.51100000000E-03 0. -1.
         22    1    1    0    0    0 -0.13700435742E+02  0.53014160764E+02 -0.30083525195E+02  0.62475768656E+02  0.00000000000E+00 0. -1.
</event>
<event>
 4    1  0.1964735E-002  0.9118800E+02  0.7818608E-02  0.1130116E+00
         25   -1    0    0    0    0  0.00000000000E+00  0.00000000000E+00  0.99999998245E-14  0.12500000000E+03  0.12500000000E+03 0.  0.
        -11    1    1    0    0    0  0.49857402994E+02  0.13091518506E+02  0.29708228353E+02  0.59495607588E+02  0.51100000000E-03 0. -1.
         11    1    1    0    0    0  0.25179461803E+01  0.66174057430E+00  0.14994734311E+01  0.30043925154E+01  0.51100000000E-03 0.  1.
         22    1    1    0    0    0 -0.52375349174E+02 -0.13753259080E+02 -0.31207701784E+02  0.62499999897E+02  0.00000000000E+00 0. -1.
</event>
<event>
 4    1  0.1964735E-002  0.9118800E+02  0.7818608E-02  0.1130116E+00
         25   -1    0    0    0    0  0.00000000000E+00  0.00000000000E+00  0.99999998245E-14  0.12500000000E+03  0.12500000000E+03 0.  0.
        -11    1    1    0    0    0 -0.19827038701E+00  0.35151813928E+02  0.15368082600E+02  0.38364922737E+02  0.51100000000E-03 0. -1.
         11    1    1    0    0    0 -0.13274401133E+00  0.22107649741E+02  0.96817480842E+01  0.24135079123E+02  0.51100000000E-03 0.  1.
         22    1    1    0    0    0  0.33101439834E+00 -0.57259463669E+02 -0.25049830684E+02  0.62499998140E+02  0.00000000000E+00 0. -1.
</event>
<event>
 4    1  0.1964735E-002  0.9118800E+02  0.7818608E-02  0.1130116E+00
         25   -1    0    0    0    0  0.00000000000E+00  0.00000000000E+00  0.99999998245E-14  0.12500000000E+03  0.12500000000E+03 0.  0.
        -11    1    1    0    0    0 -0.16922411645E+01  0.15511483941E+02 -0.13679617121E+02  0.20750945498E+02  0.51100000000E-03 0. -1.
         11    1    1    0    0    0 -0.34070947806E+01  0.31151353755E+02 -0.27585677704E+02  0.41749068855E+02  0.51100000000E-03 0.  1.
         22    1    1    0    0    0  0.50993359451E+01 -0.46662837696E+02  0.41265294825E+02  0.62499985647E+02  0.00000000000E+00 0. -1.
</event>
<event>
 4    1  0.1964735E-002  0.9118800E+02  0.7818608E-02  0.1130116E+00
         25   -1    0    0    0    0  0.00000000000E+00  0.00000000000E+00  0.99999998245E-14  0.12500000000E+03  0.12500000000E+03 0.  0.
        -11    1    1    0    0    0 -0.40937818385E+02  0.23851049178E+02  0.37119937674E+01  0.47524271894E+02  0.51100000000E-03 0.  1.
         11    1    1    0    0    0 -0.12877963217E+02  0.75526921436E+01  0.11781628287E+01  0.14975752507E+02  0.51100000000E-03 0. -1.
         22    1    1    0    0    0  0.53815781602E+02 -0.31403741322E+02 -0.48901565961E+01  0.62499975600E+02  0.00000000000E+00 0.  1.
</event>
<event>
 4    1  0.1964735E-002  0.9118800E+02  0.7818608E-02  0.1130116E+00
         25   -1    0    0    0    0  0.00000000000E+00  0.00000000000E+00  0.99999998245E-14  0.12500000000E+03  0.12500000000E+03 0.  0.
        -11    1    1    0    0    0  0.10454320087E+02  0.48630519766E+02 -0.54542955286E+01  0.50039680267E+02  0.51100000000E-03 0. -1.
         11    1    1    0    0    0  0.26096825891E+01  0.12107520824E+02 -0.13627511241E+01  0.12460320807E+02  0.51100000000E-03 0.  1.
         22    1    1    0    0    0 -0.13064002676E+02 -0.60738040591E+02  0.68170466527E+01  0.62499998926E+02  0.00000000000E+00 0. -1.
</event>
<event>
 4    1  0.1964735E-002  0.9118800E+02  0.7818608E-02  0.1130116E+00
         25   -1    0    0    0    0  0.00000000000E+00  0.00000000000E+00  0.99999998245E-14  0.12500000000E+03  0.12500000000E+03 0.  0.
        -11    1    1    0    0    0  0.11333811407E+02  0.21816066661E+01 -0.15414896699E+02  0.19257043624E+02  0.51100000000E-03 0.  1.
         11    1    1    0    0    0  0.25413672301E+02  0.48949381754E+01 -0.34643014465E+02  0.43242960249E+02  0.51100000000E-03 0. -1.
         22    1    1    0    0    0 -0.36747483709E+02 -0.70765448415E+01  0.50057911164E+02  0.62499996127E+02  0.00000000000E+00 0. -1.
</event>
<event>
 4    1  0.1964735E-002  0.9118800E+02  0.7818608E-02  0.1130116E+00
         25   -1    0    0    0    0  0.00000000000E+00  0.00000000000E+00  0.99999998245E-14  0.12500000000E+03  0.12500000000E+03 0.  0.
        -11    1    1    0    0    0 -0.28723937755E+02 -0.36005068537E+02 -0.40067505837E+02  0.61047805733E+02  0.51100000000E-03 0. -1.
         11    1    1    0    0    0  0.34944491751E+01 -0.21433345016E+01  0.29744100179E+01  0.50647974332E+01  0.51100000000E-03 0.  1.
         22    1    1    0    0    0  0.25229488580E+02  0.38148403039E+02  0.37093095819E+02  0.58887396834E+02  0.00000000000E+00 0. -1.
</event>
<event>
 4    1  0.1964735E-002  0.9118800E+02  0.7818608E-02  0.1130116E+00
         25   -1    0    0    0    0  0.00000000000E+00  0.00000000000E+00  0.99999998245E-14  0.12500000000E+03  0.12500000000E+03 0.  0.
        -11    1    1    0    0    0 -0.12669315562E+01  0.12114506072E+00  0.89003754913E+00  0.15530482265E+01  0.51100000000E-03 0. -1.
         11    1    1    0    0    0 -0.50761129421E+02  0.38702260779E+01  0.33509822826E+02  0.60947347244E+02  0.51100000000E-03 0.  1.
         22    1    1    0    0    0  0.52028060977E+02 -0.39913711386E+01 -0.34399860375E+02  0.62499604530E+02  0.00000000000E+00 0.  1.
</event>
<event>
 4    1  0.1964735E-002  0.9118800E+02  0.7818608E-02  0.1130116E+00
         25   -1    0    0    0    0  0.00000000000E+00  0.00000000000E+00  0.99999998245E-14  0.12500000000E+03  0.12500000000E+03 0.  0.
        -11    1    1    0    0    0  0.89892722057E+01  0.37201915080E+01  0.11862625800E+01  0.98007172602E+01  0.51100000000E-03 0. -1.
         11    1    1    0    0    0  0.48411019072E+02  0.19722418323E+02  0.66803919593E+01  0.52699413555E+02  0.51100000000E-03 0.  1.
         22    1    1    0    0    0 -0.57400291278E+02 -0.23442609831E+02 -0.78666545393E+01  0.62499869184E+02  0.00000000000E+00 0.  1.
</event>
<event>
 4    1  0.1964735E-002  0.9118800E+02  0.7818608E-02  0.1130116E+00
         25   -1    0    0    0    0  0.00000000000E+00  0.00000000000E+00  0.99999998245E-14  0.12500000000E+03  0.12500000000E+03 0.  0.
        -11    1    1    0    0    0 -0.26231408568E+02  0.15868551671E+02 -0.48961449323E+02  0.57767821905E+02  0.51100000000E-03 0. -1.
         11    1    1    0    0    0 -0.21331239996E+01  0.13044636420E+01 -0.40176873002E+01  0.47321934549E+01  0.51100000000E-03 0.  1.
         22    1    1    0    0    0  0.28364532567E+02 -0.17173015313E+02  0.52979136623E+02  0.62499984640E+02  0.00000000000E+00 0. -1.
</event>
<event>
 4    1  0.1964735E-002  0.9118800E+02  0.7818608E-02  0.1130116E+00
         25   -1    0    0    0    0  0.00000000000E+00  0.00000000000E+00  0.99999998245E-14  0.12500000000E+03  0.12500000000E+03 0.  0.
        -11    1    1    0    0    0 -0.16583972335E+02  0.34215825710E+01 -0.69691878220E+01  0.18311333782E+02  0.51100000000E-03 0.  1.
         11    1    1    0    0    0 -0.40035699491E+02  0.84510011280E+01 -0.16684415899E+02  0.44188758615E+02  0.51100000000E-03 0. -1.
         22    1    1    0    0    0  0.56619671826E+02 -0.11872583699E+02  0.23653603721E+02  0.62499907603E+02  0.00000000000E+00 0.  1.
</event>
<event>
 4    1  0.1964735E-002  0.9118800E+02  0.7818608E-02  0.1130116E+00
         25   -1    0    0    0    0  0.00000000000E+00  0.00000000000E+00  0.99999998245E-14  0.12500000000E+03  0.12500000000E+03 0.  0.
        -11    1    1    0    0    0 -0.62295926560E+01 -0.26470671456E+01  0.14898839447E+02  0.16364296693E+02  0.51100000000E-03 0.  1.
         11    1    1    0    0    0 -0.15636375835E+02 -0.10790378972E+02  0.42065555556E+02  0.46156684154E+02  0.51100000000E-03 0. -1.
         22    1    1    0    0    0  0.21865968491E+02  0.13437446118E+02 -0.56964395003E+02  0.62479019153E+02  0.00000000000E+00 0. -1.
</event>
<event>
 4    1  0.1964735E-002  0.9118800E+02  0.7818608E-02  0.1130116E+00
         25   -1    0    0    0    0  0.00000000000E+00  0.00000000000E+00  0.99999998245E-14  0.12500000000E+03  0.12500000000E+03 0.  0.
        -11    1    1    0    0    0 -0.30671627158E+02 -0.75351141967E+01 -0.12085136699E+02  0.33816818120E+02  0.51100000000E-03 0. -1.
         11    1    1    0    0    0 -0.27042840367E+02 -0.63949093157E+01 -0.72917932336E+01  0.28729433150E+02  0.51100000000E-03 0.  1.
         22    1    1    0    0    0  0.57714467525E+02  0.13930023512E+02  0.19376929933E+02  0.62453748730E+02  0.00000000000E+00 0. -1.
</event>
<event>
 4    1  0.1964735E-002  0.9118800E+02  0.7818608E-02  0.1130116E+00
         25   -1    0    0    0    0  0.00000000000E+00  0.00000000000E+00  0.99999998245E-14  0.12500000000E+03  0.12500000000E+03 0.  0.
        -11    1    1    0    0    0 -0.10472869384E+01  0.48873308765E+01  0.30149264952E+01  0.58371735506E+01  0.51100000000E-03 0.  1.
         11    1    1    0    0    0  0.33872458499E+02  0.57669090674E+01  0.47108294574E+02  0.58307736218E+02  0.51100000000E-03 0. -1.
         22    1    1    0    0    0 -0.32825171561E+02 -0.10654239944E+02 -0.50123221069E+02  0.60855090231E+02  0.00000000000E+00 0. -1.
</event>
<event>
 4    1  0.1964735E-002  0.9118800E+02  0.7818608E-02  0.1130116E+00
         25   -1    0    0    0    0  0.00000000000E+00  0.00000000000E+00  0.99999998245E-14  0.12500000000E+03  0.12500000000E+03 0.  0.
        -11    1    1    0    0    0  0.10366418531E+02  0.10312536459E+02  0.44082117017E+01  0.15272307358E+02  0.51100000000E-03 0. -1.
         11    1    1    0    0    0  0.32006214929E+02  0.31917866740E+02  0.13686040577E+02  0.47227700752E+02  0.51100000000E-03 0.  1.
         22    1    1    0    0    0 -0.42372633460E+02 -0.42230403200E+02 -0.18094252279E+02  0.62499991890E+02  0.00000000000E+00 0.  1.
</event>
<event>
 4    1  0.1964735E-002  0.9118800E+02  0.7818608E-02  0.1130116E+00
         25   -1    0    0    0    0  0.00000000000E+00  0.00000000000E+00  0.99999998245E-14  0.12500000000E+03  0.12500000000E+03 0.  0.
        -11    1    1    0    0    0 -0.26714730939E+01  0.16557381387E+01 -0.17878775769E+01  0.36159015150E+01  0.51100000000E-03 0.  1.
         11    1    1    0    0    0 -0.43497914758E+02  0.26978188728E+02 -0.29110922506E+02  0.58884098573E+02  0.51100000000E-03 0.  1.
         22    1    1    0    0    0  0.46169387852E+02 -0.28633926867E+02  0.30898800083E+02  0.62499999912E+02  0.00000000000E+00 0.  1.
</event>
<event>
 4    1  0.1964735E-002  0.9118800E+02  0.7818608E-02  0.1130116E+00
         25   -1    0    0    0    0  0.00000000000E+00  0.00000000000E+00  0.99999998245E-14  0.12500000000E+03  0.12500000000E+03 0.  0.
        -11    1    1    0    0    0 -0.46247903505E+02  0.18170996083E+02  0.48722628688E+01  0.49927874208E+02  0.51100000000E-03 0. -1.
         11    1    1    0    0    0 -0.11644203562E+02  0.45797872519E+01  0.12232873163E+01  0.12572126311E+02  0.51100000000E-03 0.  1.
         22    1    1    0    0    0  0.57892107067E+02 -0.22750783335E+02 -0.60955501851E+01  0.62499999480E+02  0.00000000000E+00 0. -1.
</event>
<event>
 4    1  0.1964735E-002  0.9118800E+02  0.7818608E-02  0.1130116E+00
         25   -1    0    0    0    0  0.00000000000E+00  0.00000000000E+00  0.99999998245E-14  0.12500000000E+03  0.12500000000E+03 0.  0.
        -11    1    1    0    0    0  0.34311761036E+02  0.15458520071E+02 -0.92960030266E+01  0.38764396819E+02  0.51100000000E-03 0.  1.
         11    1    1    0    0    0  0.20997569158E+02  0.94482282237E+01 -0.57631270754E+01  0.23735639049E+02  0.51100000000E-03 0. -1.
         22    1    1    0    0    0 -0.55309330194E+02 -0.24906748295E+02  0.15059130102E+02  0.62499964132E+02  0.00000000000E+00 0. -1.
</event>
<event>
 4    1  0.1964735E-002  0.9118800E+02  0.7818608E-02  0.1130116E+00
         25   -1    0    0    0    0  0.00000000000E+00  0.00000000000E+00  0.99999998245E-14  0.12500000000E+03  0.12500000000E+03 0.  0.
        -11    1    1    0    0    0  0.14727715584E+02  0.59625990098E+01  0.23392794672E+01  0.16060212388E+02  0.51100000000E-03 0.  1.
         11    1    1    0    0    0  0.42729336694E+02  0.16955232169E+02  0.65874818747E+01  0.46439972329E+02  0.51100000000E-03 0. -1.
         22    1    1    0    0    0 -0.57457052277E+02 -0.22917831179E+02 -0.89267613419E+01  0.62499815283E+02  0.00000000000E+00 0. -1.
</event>
<event>
 4    1  0.1964735E-002  0.9118800E+02  0.7818608E-02  0.1130116E+00
         25   -1    0    0    0    0  0.00000000000E+00  0.00000000000E+00  0.99999998245E-14  0.12500000000E+03  0.12500000000E+03 0.  0.
        -11    1    1    0    0    0  0.17939119276E+02 -0.27813521302E+02 -0.24041767695E+02  0.40907341172E+02  0.51100000000E-03 0.  1.
         11    1    1    0    0    0  0.94857041746E+01 -0.14682371777E+02 -0.12676452360E+02  0.21592662397E+02  0.51100000000E-03 0. -1.
         22    1    1    0    0    0 -0.27424823451E+02  0.42495893080E+02  0.36718220054E+02  0.62499996431E+02  0.00000000000E+00 0.  1.
</event>
<event>
 4    1  0.1964735E-002  0.9118800E+02  0.7818608E-02  0.1130116E+00
         25   -1    0    0    0    0  0.00000000000E+00  0.00000000000E+00  0.99999998245E-14  0.12500000000E+03  0.12500000000E+03 0.  0.
        -11    1    1    0    0    0 -0.31862329890E+02  0.32535769228E+02  0.21908854420E+02  0.50534960646E+02  0.51100000000E-03 0.  1.
         11    1    1    0    0    0 -0.74180679456E+01  0.64619425668E+01  0.69471574595E+01  0.12043563875E+02  0.51100000000E-03 0. -1.
         22    1    1    0    0    0  0.39280397836E+02 -0.38997711794E+02 -0.28856011879E+02  0.62421475479E+02  0.00000000000E+00 0.  1.
</event>
<event>
 4    1  0.1964735E-002  0.9118800E+02  0.7818608E-02  0.1130116E+00
         25   -1    0    0    0    0  0.00000000000E+00  0.00000000000E+00  0.99999998245E-14  0.12500000000E+03  0.12500000000E+03 0.  0.
        -11    1    1    0    0    0 -0.11121316892E+02  0.44322687777E+01 -0.57023038125E+02  0.58266247289E+02  0.51100000000E-03 0. -1.
         11    1    1    0    0    0  0.10933502150E+01 -0.17905819648E+01 -0.41701177454E+01  0.46681346100E+01  0.51100000000E-03 0.  1.
         22    1    1    0    0    0  0.10027966677E+02 -0.26416868130E+01  0.61193155870E+02  0.62065618101E+02  0.00000000000E+00 0. -1.
</event>
<event>
 4    1  0.1964735E-002  0.9118800E+02  0.7818608E-02  0.1130116E+00
         25   -1    0    0    0    0  0.00000000000E+00  0.00000000000E+00  0.99999998245E-14  0.12500000000E+03  0.12500000000E+03 0.  0.
        -11    1    1    0    0    0  0.36173915829E+02 -0.29290035588E+02 -0.18250020209E+02  0.49995215861E+02  0.51100000000E-03 0. -1.
         11    1    1    0    0    0  0.90717187112E+01 -0.72484147118E+01 -0.46410125031E+01  0.12504982748E+02  0.51100000000E-03 0.  1.
         22    1    1    0    0    0 -0.45245634540E+02  0.36538450300E+02  0.22891032713E+02  0.62499801391E+02  0.00000000000E+00 0. -1.
</event>
<event>
 4    1  0.1964735E-002  0.9118800E+02  0.7818608E-02  0.1130116E+00
         25   -1    0    0    0    0  0.00000000000E+00  0.00000000000E+00  0.99999998245E-14  0.12500000000E+03  0.12500000000E+03 0.  0.
        -11    1    1    0    0    0 -0.61778534802E+01  0.49925053996E+02 -0.88337852199E+01  0.51075558261E+02  0.51100000000E-03 0. -1.
         11    1    1    0    0    0  0.47419099307E+01  0.11067916432E+02  0.41459653695E+01  0.12734736474E+02  0.51100000000E-03 0.  1.
         22    1    1    0    0    0  0.14359435495E+01 -0.60992970428E+02  0.46878198504E+01  0.61189705265E+02  0.00000000000E+00 0. -1.
</event>
<event>
 4    1  0.1964735E-002  0.9118800E+02  0.7818608E-02  0.1130116E+00
         25   -1    0    0    0    0  0.00000000000E+00  0.00000000000E+00  0.99999998245E-14  0.12500000000E+03  0.12500000000E+03 0.  0.
        -11    1    1    0    0    0  0.31488104477E+01  0.41651105648E+00  0.16113875377E+01  0.35616090119E+01  0.51100000000E-03 0. -1.
         11    1    1    0    0    0  0.54958312374E+02  0.36553464440E+01  0.21009477793E+02  0.58950621829E+02  0.51100000000E-03 0.  1.
         22    1    1    0    0    0 -0.58107122822E+02 -0.40718575005E+01 -0.22620865331E+02  0.62487769159E+02  0.00000000000E+00 0. -1.
</event>
<event>
 4    1  0.1964735E-002  0.9118800E+02  0.7818608E-02  0.1130116E+00
         25   -1    0    0    0    0  0.00000000000E+00  0.00000000000E+00  0.99999998245E-14  0.12500000000E+03  0.12500000000E+03 0.  0.
        -11    1    1    0    0    0 -0.31223986952E+02  0.44122185358E+00  0.51967031023E+02  0.60627587380E+02  0.51100000000E-03 0.  1.
         11    1    1    0    0    0 -0.96388982073E+00  0.14785100386E-01  0.16051876762E+01  0.18724128612E+01  0.51100000000E-03 0. -1.
         22    1    1    0    0    0  0.32187876772E+02 -0.45600695396E+00 -0.53572218700E+02  0.62499999759E+02  0.00000000000E+00 0.  1.
</event>
<event>
 4    1  0.1964735E-002  0.9118800E+02  0.7818608E-02  0.1130116E+00
         25   -1    0    0    0    0  0.00000000000E+00  0.00000000000E+00  0.99999998245E-14  0.12500000000E+03  0.12500000000E+03 0.  0.
        -11    1    1    0    0    0  0.76683574816E+00  0.16686145623E+02 -0.15379720728E+02  0.22705754837E+02  0.51100000000E-03 0. -1.
         11    1    1    0    0    0  0.13868269151E+01  0.29677551301E+02 -0.26475982650E+02  0.39795200686E+02  0.51100000000E-03 0.  1.
         22    1    1    0    0    0 -0.21536626633E+01 -0.46363696923E+02  0.41855703378E+02  0.62499044477E+02  0.00000000000E+00 0.  1.
</event>
<event>
 4    1  0.1964735E-002  0.9118800E+02  0.7818608E-02  0.1130116E+00
         25   -1    0    0    0    0  0.00000000000E+00  0.00000000000E+00  0.99999998245E-14  0.12500000000E+03  0.12500000000E+03 0.  0.
        -11    1    1    0    0    0  0.42985929007E+02 -0.31514725478E+02 -0.91626074552E+01  0.54082542380E+02  0.51100000000E-03 0.  1.
         11    1    1    0    0    0 -0.58199105668E+01  0.12011278346E+02  0.23110726520E+02  0.26687971955E+02  0.51100000000E-03 0. -1.
         22    1    1    0    0    0 -0.37166018441E+02  0.19503447133E+02 -0.13948119065E+02  0.44229485666E+02  0.00000000000E+00 0.  1.
</event>
<event>
 4    1  0.1964735E-002  0.9118800E+02  0.7818608E-02  0.1130116E+00
         25   -1    0    0    0    0  0.00000000000E+00  0.00000000000E+00  0.99999998245E-14  0.12500000000E+03  0.12500000000E+03 0.  0.
        -11    1    1    0    0    0 -0.37839069067E+02  0.35996031789E+02 -0.31542321580E+02  0.61011699725E+02  0.51100000000E-03 0. -1.
         11    1    1    0    0    0 -0.26198202892E-01 -0.21725458761E+01 -0.21479497578E+01  0.30552136346E+01  0.51100000000E-03 0.  1.
         22    1    1    0    0    0  0.37865267270E+02 -0.33823485913E+02  0.33690271338E+02  0.60933086640E+02  0.00000000000E+00 0. -1.
</event>
<event>
 4    1  0.1964735E-002  0.9118800E+02  0.7818608E-02  0.1130116E+00
         25   -1    0    0    0    0  0.00000000000E+00  0.00000000000E+00  0.99999998245E-14  0.12500000000E+03  0.12500000000E+03 0.  0.
        -11    1    1    0    0    0  0.29652723649E+02 -0.20679498145E+02 -0.16669714019E+02  0.39809609758E+02  0.51100000000E-03 0. -1.
         11    1    1    0    0    0  0.16733944705E+02 -0.12196463946E+02 -0.92818576792E+01  0.22692102601E+02  0.51100000000E-03 0.  1.
         22    1    1    0    0    0 -0.46386668355E+02  0.32875962091E+02  0.25951571699E+02  0.62498287641E+02  0.00000000000E+00 0. -1.
</event>
<event>
 4    1  0.1964735E-002  0.9118800E+02  0.7818608E-02  0.1130116E+00
         25   -1    0    0    0    0  0.00000000000E+00  0.00000000000E+00  0.99999998245E-14  0.12500000000E+03  0.12500000000E+03 0.  0.
        -11    1    1    0    0    0  0.18802357717E+02  0.74789504340E+01 -0.18742224843E+02  0.27581413083E+02  0.51100000000E-03 0.  1.
         11    1    1    0    0    0  0.23769711783E+02  0.94617818252E+01 -0.23765179888E+02  0.34918595174E+02  0.51100000000E-03 0. -1.
         22    1    1    0    0    0 -0.42572069500E+02 -0.16940732259E+02  0.42507404731E+02  0.62499991743E+02  0.00000000000E+00 0. -1.
</event>
<event>
 4    1  0.1964735E-002  0.9118800E+02  0.7818608E-02  0.1130116E+00
         25   -1    0    0    0    0  0.00000000000E+00  0.00000000000E+00  0.99999998245E-14  0.12500000000E+03  0.12500000000E+03 0.  0.
        -11    1    1    0    0    0  0.25092968062E+02 -0.82851795999E+01  0.32959512797E+02  0.42244890001E+02  0.51100000000E-03 0.  1.
         11    1    1    0    0    0  0.12031459096E+02 -0.39712601801E+01  0.15803245430E+02  0.20255110016E+02  0.51100000000E-03 0. -1.
         22    1    1    0    0    0 -0.37124427158E+02  0.12256439780E+02 -0.48762758226E+02  0.62499999982E+02  0.00000000000E+00 0.  1.
</event>
<event>
 4    1  0.1964735E-002  0.9118800E+02  0.7818608E-02  0.1130116E+00
         25   -1    0    0    0    0  0.00000000000E+00  0.00000000000E+00  0.99999998245E-14  0.12500000000E+03  0.12500000000E+03 0.  0.
        -11    1    1    0    0    0 -0.54530790711E+01  0.69636703287E+01  0.43009379158E+01  0.98349805805E+01  0.51100000000E-03 0. -1.
         11    1    1    0    0    0 -0.29225428920E+02  0.37286118082E+02  0.23004870726E+02  0.52665020408E+02  0.51100000000E-03 0.  1.
         22    1    1    0    0    0  0.34678507991E+02 -0.44249788411E+02 -0.27305808642E+02  0.62499999012E+02  0.00000000000E+00 0.  1.
</event>
<event>
 4    1  0.1964735E-002  0.9118800E+02  0.7818608E-02  0.1130116E+00
         25   -1    0    0    0    0  0.00000000000E+00  0.00000000000E+00  0.99999998245E-14  0.12500000000E+03  0.12500000000E+03 0.  0.
        -11    1    1    0    0    0 -0.23011765954E+02  0.24891020505E+02  0.37905615148E+02  0.50852137951E+02  0.51100000000E-03 0.  1.
         11    1    1    0    0    0 -0.52721009069E+01  0.56974811061E+01  0.86842592897E+01  0.11647862405E+02  0.51100000000E-03 0. -1.
         22    1    1    0    0    0  0.28283866861E+02 -0.30588501611E+02 -0.46589874438E+02  0.62499999645E+02  0.00000000000E+00 0.  1.
</event>
<event>
 4    1  0.1964735E-002  0.9118800E+02  0.7818608E-02  0.1130116E+00
         25   -1    0    0    0    0  0.00000000000E+00  0.00000000000E+00  0.99999998245E-14  0.12500000000E+03  0.12500000000E+03 0.  0.
        -11    1    1    0    0    0 -0.33765816066E+02  0.39784147062E+02 -0.37818375829E+01  0.52318361861E+02  0.51100000000E-03 0.  1.
         11    1    1    0    0    0 -0.77833668811E+01  0.66609505128E+01 -0.76091508609E-01  0.10244747528E+02  0.51100000000E-03 0. -1.
         22    1    1    0    0    0  0.41549182947E+02 -0.46445097575E+02  0.38579290915E+01  0.62436890611E+02  0.00000000000E+00 0.  1.
</event>
<event>
 4    1  0.1964735E-002  0.9118800E+02  0.7818608E-02  0.1130116E+00
         25   -1    0    0    0    0  0.00000000000E+00  0.00000000000E+00  0.99999998245E-14  0.12500000000E+03  0.12500000000E+03 0.  0.
        -11    1    1    0    0    0  0.97757629588E+01 -0.48165086738E+01 -0.17109913720E+02  0.20285794167E+02  0.51100000000E-03 0.  1.
         11    1    1    0    0    0  0.21010766387E+01 -0.19619691350E+02 -0.38253842603E+02  0.43043039924E+02  0.51100000000E-03 0. -1.
         22    1    1    0    0    0 -0.11876839597E+02  0.24436200024E+02  0.55363756323E+02  0.61671165909E+02  0.00000000000E+00 0. -1.
</event>
<event>
 4    1  0.1964735E-002  0.9118800E+02  0.7818608E-02  0.1130116E+00
         25   -1    0    0    0    0  0.00000000000E+00  0.00000000000E+00  0.99999998245E-14  0.12500000000E+03  0.12500000000E+03 0.  0.
        -11    1    1    0    0    0 -0.30917900868E+02 -0.38940343984E+02  0.16163833211E+02  0.52283233336E+02  0.51100000000E-03 0.  1.
         11    1    1    0    0    0 -0.10175553650E+02 -0.42928090495E+01 -0.53919525256E+00  0.11057162086E+02  0.51100000000E-03 0. -1.
         22    1    1    0    0    0  0.41093454518E+02  0.43233153034E+02 -0.15624637958E+02  0.61659604578E+02  0.00000000000E+00 0.  1.
</event>
<event>
 4    1  0.1964735E-002  0.9118800E+02  0.7818608E-02  0.1130116E+00
         25   -1    0    0    0    0  0.00000000000E+00  0.00000000000E+00  0.99999998245E-14  0.12500000000E+03  0.12500000000E+03 0.  0.
        -11    1    1    0    0    0 -0.41844765554E+02  0.97553227964E+01  0.15904804456E+02  0.45816083772E+02  0.51100000000E-03 0. -1.
         11    1    1    0    0    0 -0.15238405744E+02  0.35529819096E+01  0.57896780886E+01  0.16683916288E+02  0.51100000000E-03 0.  1.
         22    1    1    0    0    0  0.57083171298E+02 -0.13308304706E+02 -0.21694482545E+02  0.62499999940E+02  0.00000000000E+00 0. -1.
</event>
<event>
 4    1  0.1964735E-002  0.9118800E+02  0.7818608E-02  0.1130116E+00
         25   -1    0    0    0    0  0.00000000000E+00  0.00000000000E+00  0.99999998245E-14  0.12500000000E+03  0.12500000000E+03 0.  0.
        -11    1    1    0    0    0  0.22550590749E+02 -0.50291941867E+02 -0.19264299781E+01  0.55149974548E+02  0.51100000000E-03 0.  1.
         11    1    1    0    0    0  0.30230917074E+01 -0.66950789131E+01 -0.24481556492E+00  0.73500408194E+01  0.51100000000E-03 0. -1.
         22    1    1    0    0    0 -0.25573682457E+02  0.56987020781E+02  0.21712455431E+01  0.62499984632E+02  0.00000000000E+00 0.  1.
</event>
<event>
 4    1  0.1964735E-002  0.9118800E+02  0.7818608E-02  0.1130116E+00
         25   -1    0    0    0    0  0.00000000000E+00  0.00000000000E+00  0.99999998245E-14  0.12500000000E+03  0.12500000000E+03 0.  0.
        -11    1    1    0    0    0  0.34328502077E+02 -0.64677177846E+01  0.47339465148E+01  0.35251775531E+02  0.51100000000E-03 0. -1.
         11    1    1    0    0    0  0.26621880951E+02 -0.43168640806E+01  0.39059627849E+01  0.27250989090E+02  0.51100000000E-03 0.  1.
         22    1    1    0    0    0 -0.60950383028E+02  0.10784581865E+02 -0.86399092997E+01  0.62497235379E+02  0.00000000000E+00 0. -1.
</event>
<event>
 4    1  0.1964735E-002  0.9118800E+02  0.7818608E-02  0.1130116E+00
         25   -1    0    0    0    0  0.00000000000E+00  0.00000000000E+00  0.99999998245E-14  0.12500000000E+03  0.12500000000E+03 0.  0.
        -11    1    1    0    0    0  0.48157344381E+02 -0.29526832381E+02  0.16845538625E+02  0.58946889826E+02  0.51100000000E-03 0. -1.
         11    1    1    0    0    0  0.29033284063E+01 -0.17791990237E+01  0.10147547913E+01  0.35531102640E+01  0.51100000000E-03 0.  1.
         22    1    1    0    0    0 -0.51060672788E+02  0.31306031404E+02 -0.17860293417E+02  0.62499999910E+02  0.00000000000E+00 0. -1.
</event>
<event>
 4    1  0.1964735E-002  0.9118800E+02  0.7818608E-02  0.1130116E+00
         25   -1    0    0    0    0  0.00000000000E+00  0.00000000000E+00  0.99999998245E-14  0.12500000000E+03  0.12500000000E+03 0.  0.
        -11    1    1    0    0    0  0.24976123023E+02  0.42478554231E+02  0.12772725814E+02  0.50905567630E+02  0.51100000000E-03 0.  1.
         11    1    1    0    0    0  0.56942134389E+01  0.96708562135E+01  0.29122772973E+01  0.11594433402E+02  0.51100000000E-03 0. -1.
         22    1    1    0    0    0 -0.30670336462E+02 -0.52149410444E+02 -0.15685003111E+02  0.62499998968E+02  0.00000000000E+00 0.  1.
</event>
<event>
 4    1  0.1964735E-002  0.9118800E+02  0.7818608E-02  0.1130116E+00
         25   -1    0    0    0    0  0.00000000000E+00  0.00000000000E+00  0.99999998245E-14  0.12500000000E+03  0.12500000000E+03 0.  0.
        -11    1    1    0    0    0  0.24570245111E+02  0.43104319414E+02  0.41052068011E+01  0.49784857337E+02  0.51100000000E-03 0.  1.
         11    1    1    0    0    0  0.61907158594E+01  0.11051540605E+02  0.11036875484E+01  0.12715330867E+02  0.51100000000E-03 0. -1.
         22    1    1    0    0    0 -0.30760960971E+02 -0.54155860018E+02 -0.52088943495E+01  0.62499811796E+02  0.00000000000E+00 0.  1.
</event>
<event>
 4    1  0.1964735E-002  0.9118800E+02  0.7818608E-02  0.1130116E+00
         25   -1    0    0    0    0  0.00000000000E+00  0.00000000000E+00  0.99999998245E-14  0.12500000000E+03  0.12500000000E+03 0.  0.
        -11    1    1    0    0    0 -0.18532763402E+02  0.28572147301E+02 -0.36710902537E+02  0.50075156376E+02  0.51100000000E-03 0.  1.
         11    1    1    0    0    0 -0.45980948055E+01  0.70892398548E+01 -0.91091679928E+01  0.12424843635E+02  0.51100000000E-03 0.  1.
         22    1    1    0    0    0  0.23130858208E+02 -0.35661387156E+02  0.45820070530E+02  0.62499999990E+02  0.00000000000E+00 0.  1.
</event>
<event>
 4    1  0.1964735E-002  0.9118800E+02  0.7818608E-02  0.1130116E+00
         25   -1    0    0    0    0  0.00000000000E+00  0.00000000000E+00  0.99999998245E-14  0.12500000000E+03  0.12500000000E+03 0.  0.
        -11    1    1    0    0    0 -0.29550620147E+02  0.84498244437E+01  0.29141349401E+02  0.42353948215E+02  0.51100000000E-03 0. -1.
         11    1    1    0    0    0 -0.14053019706E+02  0.40266140349E+01  0.13862266798E+02  0.20146052330E+02  0.51100000000E-03 0.  1.
         22    1    1    0    0    0  0.43603639854E+02 -0.12476438479E+02 -0.43003616199E+02  0.62499999455E+02  0.00000000000E+00 0. -1.
</event>
<event>
 4    1  0.1964735E-002  0.9118800E+02  0.7818608E-02  0.1130116E+00
         25   -1    0    0    0    0  0.00000000000E+00  0.00000000000E+00  0.99999998245E-14  0.12500000000E+03  0.12500000000E+03 0.  0.
        -11    1    1    0    0    0  0.41182768290E+02 -0.33380857949E+02  0.15890372423E+02  0.55342623876E+02  0.51100000000E-03 0.  1.
         11    1    1    0    0    0  0.45380945897E+01 -0.48608384964E+01 -0.65323413857E+01  0.93216703242E+01  0.51100000000E-03 0. -1.
         22    1    1    0    0    0 -0.45720862880E+02  0.38241696445E+02 -0.93580310377E+01  0.60335705800E+02  0.00000000000E+00 0.  1.
</event>
<event>
 4    1  0.1964735E-002  0.9118800E+02  0.7818608E-02  0.1130116E+00
         25   -1    0    0    0    0  0.00000000000E+00  0.00000000000E+00  0.99999998245E-14  0.12500000000E+03  0.12500000000E+03 0.  0.
        -11    1    1    0    0    0 -0.24325557098E+02 -0.42771755378E+02 -0.18674021763E+02  0.52629600752E+02  0.51100000000E-03 0. -1.
         11    1    1    0    0    0 -0.44441411168E+01 -0.80716478377E+01 -0.35398309660E+01  0.98707797367E+01  0.51100000000E-03 0.  1.
         22    1    1    0    0    0  0.28769698215E+02  0.50843403216E+02  0.22213852729E+02  0.62499619511E+02  0.00000000000E+00 0. -1.
</event>
<event>
 4    1  0.1964735E-002  0.9118800E+02  0.7818608E-02  0.1130116E+00
         25   -1    0    0    0    0  0.00000000000E+00  0.00000000000E+00  0.99999998245E-14  0.12500000000E+03  0.12500000000E+03 0.  0.
        -11    1    1    0    0    0  0.38102212030E+01 -0.12508530904E+02  0.93440498476E+00  0.13109318973E+02  0.51100000000E-03 0. -1.
         11    1    1    0    0    0  0.16625072785E+02 -0.46513858845E+02  0.89884040936E+00  0.49403846248E+02  0.51100000000E-03 0.  1.
         22    1    1    0    0    0 -0.20435293988E+02  0.59022389749E+02 -0.18332453941E+01  0.62486834779E+02  0.00000000000E+00 0.  1.
</event>
<event>
 4    1  0.1964735E-002  0.9118800E+02  0.7818608E-02  0.1130116E+00
         25   -1    0    0    0    0  0.00000000000E+00  0.00000000000E+00  0.99999998245E-14  0.12500000000E+03  0.12500000000E+03 0.  0.
        -11    1    1    0    0    0  0.28278077502E+02 -0.62097776026E+01 -0.35376514587E+02  0.45713332735E+02  0.51100000000E-03 0. -1.
         11    1    1    0    0    0  0.10385223864E+02 -0.22864748596E+01 -0.12988894155E+02  0.16786667735E+02  0.51100000000E-03 0.  1.
         22    1    1    0    0    0 -0.38663301367E+02  0.84962524622E+01  0.48365408743E+02  0.62499999531E+02  0.00000000000E+00 0. -1.
</event>
<event>
 4    1  0.1964735E-002  0.9118800E+02  0.7818608E-02  0.1130116E+00
         25   -1    0    0    0    0  0.00000000000E+00  0.00000000000E+00  0.99999998245E-14  0.12500000000E+03  0.12500000000E+03 0.  0.
        -11    1    1    0    0    0 -0.34817504561E+02  0.16684487880E+02  0.27002079444E+02  0.47114149193E+02  0.51100000000E-03 0.  1.
         11    1    1    0    0    0 -0.93901283101E+01  0.10519619190E+02  0.70908746464E+01  0.15783453396E+02  0.51100000000E-03 0. -1.
         22    1    1    0    0    0  0.44207632871E+02 -0.27204107071E+02 -0.34092954090E+02  0.62102397411E+02  0.00000000000E+00 0.  1.
</event>
<event>
 4    1  0.1964735E-002  0.9118800E+02  0.7818608E-02  0.1130116E+00
         25   -1    0    0    0    0  0.00000000000E+00  0.00000000000E+00  0.99999998245E-14  0.12500000000E+03  0.12500000000E+03 0.  0.
        -11    1    1    0    0    0 -0.49003469351E+02 -0.30842038977E+02  0.39230174062E+01  0.58034140318E+02  0.51100000000E-03 0. -1.
         11    1    1    0    0    0 -0.38528128079E+01 -0.22216460167E+01  0.43073959685E+00  0.44682674962E+01  0.51100000000E-03 0.  1.
         22    1    1    0    0    0  0.52856282158E+02  0.33063684993E+02 -0.43537570031E+01  0.62497592186E+02  0.00000000000E+00 0. -1.
</event>
<event>
 4    1  0.1964735E-002  0.9118800E+02  0.7818608E-02  0.1130116E+00
         25   -1    0    0    0    0  0.00000000000E+00  0.00000000000E+00  0.99999998245E-14  0.12500000000E+03  0.12500000000E+03 0.  0.
        -11    1    1    0    0    0 -0.24130374528E+01  0.47120415848E+02  0.70716723356E+01  0.47709169867E+02  0.51100000000E-03 0.  1.
         11    1    1    0    0    0 -0.75589368949E+00  0.14607067143E+02  0.21979321672E+01  0.14790831344E+02  0.51100000000E-03 0. -1.
         22    1    1    0    0    0  0.31689311423E+01 -0.61727482991E+02 -0.92696045028E+01  0.62499998789E+02  0.00000000000E+00 0.  1.
</event>
<event>
 4    1  0.1964735E-002  0.9118800E+02  0.7818608E-02  0.1130116E+00
         25   -1    0    0    0    0  0.00000000000E+00  0.00000000000E+00  0.99999998245E-14  0.12500000000E+03  0.12500000000E+03 0.  0.
        -11    1    1    0    0    0  0.47657101957E+02  0.90473134576E+01  0.97140813386E+01  0.49471371764E+02  0.51100000000E-03 0. -1.
         11    1    1    0    0    0  0.12539383547E+02  0.24444007466E+01  0.25564584905E+01  0.13028688155E+02  0.51100000000E-03 0.  1.
         22    1    1    0    0    0 -0.60196485504E+02 -0.11491714204E+02 -0.12270539829E+02  0.62499940081E+02  0.00000000000E+00 0. -1.
</event>
<event>
 4    1  0.1964735E-002  0.9118800E+02  0.7818608E-02  0.1130116E+00
         25   -1    0    0    0    0  0.00000000000E+00  0.00000000000E+00  0.99999998245E-14  0.12500000000E+03  0.12500000000E+03 0.  0.
        -11    1    1    0    0    0 -0.25457364434E+02 -0.11805942285E+02  0.62033893870E+01  0.28739166956E+02  0.51100000000E-03 0. -1.
         11    1    1    0    0    0 -0.29905226053E+02 -0.13869263582E+02  0.72879922115E+01  0.33760833051E+02  0.51100000000E-03 0. -1.
         22    1    1    0    0    0  0.55362590487E+02  0.25675205867E+02 -0.13491381598E+02  0.62499999993E+02  0.00000000000E+00 0. -1.
</event>
<event>
 4    1  0.1964735E-002  0.9118800E+02  0.7818608E-02  0.1130116E+00
         25   -1    0    0    0    0  0.00000000000E+00  0.00000000000E+00  0.99999998245E-14  0.12500000000E+03  0.12500000000E+03 0.  0.
        -11    1    1    0    0    0  0.27551860814E+02 -0.41918892316E+02  0.10653358399E+02  0.51281503613E+02  0.51100000000E-03 0.  1.
         11    1    1    0    0    0  0.60282706919E+01 -0.91695109823E+01  0.23312405945E+01  0.11218496430E+02  0.51100000000E-03 0. -1.
         22    1    1    0    0    0 -0.33580131506E+02  0.51088403299E+02 -0.12984598994E+02  0.62499999957E+02  0.00000000000E+00 0. -1.
</event>
<event>
 4    1  0.1964735E-002  0.9118800E+02  0.7818608E-02  0.1130116E+00
         25   -1    0    0    0    0  0.00000000000E+00  0.00000000000E+00  0.99999998245E-14  0.12500000000E+03  0.12500000000E+03 0.  0.
        -11    1    1    0    0    0 -0.53243871418E+01  0.17826465957E+02 -0.52312741105E+02  0.55522561802E+02  0.51100000000E-03 0.  1.
         11    1    1    0    0    0 -0.34607193634E+00  0.23369403048E+01 -0.65691789261E+01  0.69810577850E+01  0.51100000000E-03 0. -1.
         22    1    1    0    0    0  0.56704590782E+01 -0.20163406261E+02  0.58881920031E+02  0.62496380413E+02  0.00000000000E+00 0.  1.
</event>
<event>
 4    1  0.1964735E-002  0.9118800E+02  0.7818608E-02  0.1130116E+00
         25   -1    0    0    0    0  0.00000000000E+00  0.00000000000E+00  0.99999998245E-14  0.12500000000E+03  0.12500000000E+03 0.  0.
        -11    1    1    0    0    0 -0.55441040719E+02  0.11281725616E+00  0.18592286714E+01  0.55472321524E+02  0.51100000000E-03 0.  1.
         11    1    1    0    0    0 -0.70237169898E+01  0.14885593300E-01  0.23546309814E+00  0.70276784975E+01  0.51100000000E-03 0.  1.
         22    1    1    0    0    0  0.62464757709E+02 -0.12770284946E+00 -0.20946917695E+01  0.62499999978E+02  0.00000000000E+00 0.  1.
</event>
<event>
 4    1  0.1964735E-002  0.9118800E+02  0.7818608E-02  0.1130116E+00
         25   -1    0    0    0    0  0.00000000000E+00  0.00000000000E+00  0.99999998245E-14  0.12500000000E+03  0.12500000000E+03 0.  0.
        -11    1    1    0    0    0 -0.38296125016E+02  0.82779974208E+01  0.30716830151E+02  0.49785962754E+02  0.51100000000E-03 0. -1.
         11    1    1    0    0    0 -0.97781892026E+01  0.20845488850E+01  0.78542218215E+01  0.12714052415E+02  0.51100000000E-03 0.  1.
         22    1    1    0    0    0  0.48074314219E+02 -0.10362546306E+02 -0.38571051972E+02  0.62499984831E+02  0.00000000000E+00 0. -1.
</event>
<event>
 4    1  0.1964735E-002  0.9118800E+02  0.7818608E-02  0.1130116E+00
         25   -1    0    0    0    0  0.00000000000E+00  0.00000000000E+00  0.99999998245E-14  0.12500000000E+03  0.12500000000E+03 0.  0.
        -11    1    1    0    0    0 -0.24949723328E+02  0.40858846724E+02 -0.14178330765E+01  0.47895138591E+02  0.51100000000E-03 0. -1.
         11    1    1    0    0    0 -0.86297120229E+01  0.11781025039E+02  0.13580440574E+01  0.14666586668E+02  0.51100000000E-03 0.  1.
         22    1    1    0    0    0  0.33579435351E+02 -0.52639871764E+02  0.59789019050E-01  0.62438274740E+02  0.00000000000E+00 0.  1.
</event>
<event>
 4    1  0.1964735E-002  0.9118800E+02  0.7818608E-02  0.1130116E+00
         25   -1    0    0    0    0  0.00000000000E+00  0.00000000000E+00  0.99999998245E-14  0.12500000000E+03  0.12500000000E+03 0.  0.
        -11    1    1    0    0    0  0.93227500285E+01 -0.39654170910E+02 -0.41051708299E+02  0.57832600609E+02  0.51100000000E-03 0. -1.
         11    1    1    0    0    0 -0.25377277436E+00 -0.42012345491E+01 -0.23356480819E+01  0.48135251720E+01  0.51100000000E-03 0.  1.
         22    1    1    0    0    0 -0.90689772542E+01  0.43855405459E+02  0.43387356381E+02  0.62353874219E+02  0.00000000000E+00 0. -1.
</event>
<event>
 4    1  0.1964735E-002  0.9118800E+02  0.7818608E-02  0.1130116E+00
         25   -1    0    0    0    0  0.00000000000E+00  0.00000000000E+00  0.99999998245E-14  0.12500000000E+03  0.12500000000E+03 0.  0.
        -11    1    1    0    0    0 -0.81692297528E+01 -0.68722772593E+01  0.37915857129E+02  0.39390058791E+02  0.51100000000E-03 0.  1.
         11    1    1    0    0    0 -0.46510035677E+01 -0.28733496750E+01  0.22463879752E+02  0.23119555928E+02  0.51100000000E-03 0. -1.
         22    1    1    0    0    0  0.12820233320E+02  0.97456269343E+01 -0.60379736881E+02  0.62490385281E+02  0.00000000000E+00 0.  1.
</event>
<event>
 4    1  0.1964735E-002  0.9118800E+02  0.7818608E-02  0.1130116E+00
         25   -1    0    0    0    0  0.00000000000E+00  0.00000000000E+00  0.99999998245E-14  0.12500000000E+03  0.12500000000E+03 0.  0.
        -11    1    1    0    0    0  0.52952698692E+01 -0.48168250730E+01 -0.58484066280E+02  0.58920520158E+02  0.51100000000E-03 0.  1.
         11    1    1    0    0    0  0.29566902154E+00 -0.30401517903E+00 -0.35543229523E+01  0.35795331134E+01  0.51100000000E-03 0. -1.
         22    1    1    0    0    0 -0.55909388908E+01  0.51208402520E+01  0.62038389232E+02  0.62499946729E+02  0.00000000000E+00 0.  1.
</event>
<event>
 4    1  0.1964735E-002  0.9118800E+02  0.7818608E-02  0.1130116E+00
         25   -1    0    0    0    0  0.00000000000E+00  0.00000000000E+00  0.99999998245E-14  0.12500000000E+03  0.12500000000E+03 0.  0.
        -11    1    1    0    0    0 -0.28197923069E+02 -0.70942076673E+01 -0.52341379198E+02  0.59875459284E+02  0.51100000000E-03 0.  1.
         11    1    1    0    0    0  0.20027334844E+01 -0.29243532177E+01 -0.19293537219E+01  0.40354911964E+01  0.51100000000E-03 0. -1.
         22    1    1    0    0    0  0.26195189584E+02  0.10018560885E+02  0.54270732920E+02  0.61089049520E+02  0.00000000000E+00 0.  1.
</event>
<event>
 4    1  0.1964735E-002  0.9118800E+02  0.7818608E-02  0.1130116E+00
         25   -1    0    0    0    0  0.00000000000E+00  0.00000000000E+00  0.99999998245E-14  0.12500000000E+03  0.12500000000E+03 0.  0.
        -11    1    1    0    0    0 -0.69934766357E+00 -0.59887600117E+02 -0.13892200776E+02  0.61481761341E+02  0.51100000000E-03 0.  1.
         11    1    1    0    0    0 -0.23928225994E+00 -0.92894386954E+00 -0.39758080211E+00  0.10383946591E+01  0.51100000000E-03 0. -1.
         22    1    1    0    0    0  0.93862992351E+00  0.60816543987E+02  0.14289781578E+02  0.62479844000E+02  0.00000000000E+00 0.  1.
</event>
<event>
 4    1  0.1964735E-002  0.9118800E+02  0.7818608E-02  0.1130116E+00
         25   -1    0    0    0    0  0.00000000000E+00  0.00000000000E+00  0.99999998245E-14  0.12500000000E+03  0.12500000000E+03 0.  0.
        -11    1    1    0    0    0 -0.13150161771E+02 -0.10731898008E+02  0.83298305072E+01  0.18907312501E+02  0.51100000000E-03 0.  1.
         11    1    1    0    0    0 -0.30741475656E+02 -0.24401365632E+02  0.18971304921E+02  0.43593295137E+02  0.51100000000E-03 0. -1.
         22    1    1    0    0    0  0.43891637427E+02  0.35133263640E+02 -0.27301135428E+02  0.62499392363E+02  0.00000000000E+00 0. -1.
</event>
<event>
 4    1  0.1964735E-002  0.9118800E+02  0.7818608E-02  0.1130116E+00
         25   -1    0    0    0    0  0.00000000000E+00  0.00000000000E+00  0.99999998245E-14  0.12500000000E+03  0.12500000000E+03 0.  0.
        -11    1    1    0    0    0  0.18691217771E+02  0.22996629960E+01  0.92057628154E+01  0.20961778096E+02  0.51100000000E-03 0. -1.
         11    1    1    0    0    0  0.36832599430E+02  0.49543722641E+01  0.18554991145E+02  0.41538823791E+02  0.51100000000E-03 0.  1.
         22    1    1    0    0    0 -0.55523817201E+02 -0.72540352601E+01 -0.27760753960E+02  0.62499398113E+02  0.00000000000E+00 0.  1.
</event>
<event>
 4    1  0.1964735E-002  0.9118800E+02  0.7818608E-02  0.1130116E+00
         25   -1    0    0    0    0  0.00000000000E+00  0.00000000000E+00  0.99999998245E-14  0.12500000000E+03  0.12500000000E+03 0.  0.
        -11    1    1    0    0    0 -0.57732686884E+01 -0.21868267526E+01  0.42893378261E+01  0.75173972785E+01  0.51100000000E-03 0. -1.
         11    1    1    0    0    0 -0.42340328542E+02 -0.15955859523E+02  0.31237728733E+02  0.54982620625E+02  0.51100000000E-03 0.  1.
         22    1    1    0    0    0  0.48113597230E+02  0.18142686276E+02 -0.35527066559E+02  0.62499982096E+02  0.00000000000E+00 0.  1.
</event>
<event>
 4    1  0.1964735E-002  0.9118800E+02  0.7818608E-02  0.1130116E+00
         25   -1    0    0    0    0  0.00000000000E+00  0.00000000000E+00  0.99999998245E-14  0.12500000000E+03  0.12500000000E+03 0.  0.
        -11    1    1    0    0    0  0.12380960622E+02 -0.51566702230E+01  0.50022767939E+01  0.14314405580E+02  0.51100000000E-03 0.  1.
         11    1    1    0    0    0  0.41951759384E+02 -0.17200559797E+02  0.16312124235E+02  0.48186043312E+02  0.51100000000E-03 0. -1.
         22    1    1    0    0    0 -0.54332720006E+02  0.22357230020E+02 -0.21314401029E+02  0.62499551108E+02  0.00000000000E+00 0. -1.
</event>
<event>
 4    1  0.1964735E-002  0.9118800E+02  0.7818608E-02  0.1130116E+00
         25   -1    0    0    0    0  0.00000000000E+00  0.00000000000E+00  0.99999998245E-14  0.12500000000E+03  0.12500000000E+03 0.  0.
        -11    1    1    0    0    0  0.35342730759E+01  0.53238856595E+02 -0.56782471221E-01  0.53356069591E+02  0.51100000000E-03 0. -1.
         11    1    1    0    0    0 -0.14721314175E+01  0.88538393484E+01  0.29553234339E+01  0.94494221505E+01  0.51100000000E-03 0.  1.
         22    1    1    0    0    0 -0.20621416584E+01 -0.62092695944E+02 -0.28985409626E+01  0.62194508258E+02  0.00000000000E+00 0. -1.
</event>
<event>
 4    1  0.1964735E-002  0.9118800E+02  0.7818608E-02  0.1130116E+00
         25   -1    0    0    0    0  0.00000000000E+00  0.00000000000E+00  0.99999998245E-14  0.12500000000E+03  0.12500000000E+03 0.  0.
        -11    1    1    0    0    0  0.49793177407E+02 -0.18847492891E+02 -0.20800098825E+02  0.57159711476E+02  0.51100000000E-03 0.  1.
         11    1    1    0    0    0  0.52377032367E+01 -0.68233811950E+00 -0.12402758875E+01  0.54256248528E+01  0.51100000000E-03 0. -1.
         22    1    1    0    0    0 -0.55030880644E+02  0.19529831010E+02  0.22040374713E+02  0.62414663671E+02  0.00000000000E+00 0.  1.
</event>
<event>
 4    1  0.1964735E-002  0.9118800E+02  0.7818608E-02  0.1130116E+00
         25   -1    0    0    0    0  0.00000000000E+00  0.00000000000E+00  0.99999998245E-14  0.12500000000E+03  0.12500000000E+03 0.  0.
        -11    1    1    0    0    0  0.48936875102E+01  0.49195427478E+01 -0.12462416929E+01  0.70500494263E+01  0.51100000000E-03 0. -1.
         11    1    1    0    0    0  0.38645278561E+02  0.38503640305E+02 -0.99354689153E+01  0.55449990213E+02  0.51100000000E-03 0.  1.
         22    1    1    0    0    0 -0.43538966071E+02 -0.43423183052E+02  0.11181710608E+02  0.62499960361E+02  0.00000000000E+00 0.  1.
</event>
<event>
 4    1  0.1964735E-002  0.9118800E+02  0.7818608E-02  0.1130116E+00
         25   -1    0    0    0    0  0.00000000000E+00  0.00000000000E+00  0.99999998245E-14  0.12500000000E+03  0.12500000000E+03 0.  0.
        -11    1    1    0    0    0  0.24217271460E+02 -0.13082509985E+01  0.18510974663E+02  0.30509735182E+02  0.51100000000E-03 0. -1.
         11    1    1    0    0    0  0.29391121768E+02 -0.17074987920E+02  0.24168250849E+01  0.34076887989E+02  0.51100000000E-03 0.  1.
         22    1    1    0    0    0 -0.53608393228E+02  0.18383238919E+02 -0.20927799748E+02  0.60413376829E+02  0.00000000000E+00 0. -1.
</event>
<event>
 4    1  0.1964735E-002  0.9118800E+02  0.7818608E-02  0.1130116E+00
         25   -1    0    0    0    0  0.00000000000E+00  0.00000000000E+00  0.99999998245E-14  0.12500000000E+03  0.12500000000E+03 0.  0.
        -11    1    1    0    0    0 -0.10429606290E+02  0.14865470461E+00 -0.20393123183E+02  0.22905856435E+02  0.51100000000E-03 0.  1.
         11    1    1    0    0    0 -0.18315804919E+02  0.38733387373E+00 -0.35101279650E+02  0.39594426005E+02  0.51100000000E-03 0. -1.
         22    1    1    0    0    0  0.28745411209E+02 -0.53598857834E+00  0.55494402833E+02  0.62499717560E+02  0.00000000000E+00 0.  1.
</event>
<event>
 4    1  0.1964735E-002  0.9118800E+02  0.7818608E-02  0.1130116E+00
         25   -1    0    0    0    0  0.00000000000E+00  0.00000000000E+00  0.99999998245E-14  0.12500000000E+03  0.12500000000E+03 0.  0.
        -11    1    1    0    0    0 -0.24269616429E+02  0.10590427101E+02  0.29836898321E+02  0.39892504678E+02  0.51100000000E-03 0. -1.
         11    1    1    0    0    0 -0.12634295073E+02  0.78524759470E+01  0.17067924624E+02  0.22640689957E+02  0.51100000000E-03 0.  1.
         22    1    1    0    0    0  0.36903911502E+02 -0.18442903048E+02 -0.46904822946E+02  0.62466805365E+02  0.00000000000E+00 0. -1.
</event>
<event>
 4    1  0.1964735E-002  0.9118800E+02  0.7818608E-02  0.1130116E+00
         25   -1    0    0    0    0  0.00000000000E+00  0.00000000000E+00  0.99999998245E-14  0.12500000000E+03  0.12500000000E+03 0.  0.
        -11    1    1    0    0    0  0.64358859191E+00  0.37456595318E+01 -0.64859165138E+00  0.38554951686E+01  0.51100000000E-03 0. -1.
         11    1    1    0    0    0  0.98484587069E+01  0.57011848246E+02 -0.95831925603E+01  0.58644527103E+02  0.51100000000E-03 0.  1.
         22    1    1    0    0    0 -0.10492047299E+02 -0.60757507777E+02  0.10231784212E+02  0.62499977728E+02  0.00000000000E+00 0.  1.
</event>
<event>
 4    1  0.1964735E-002  0.9118800E+02  0.7818608E-02  0.1130116E+00
         25   -1    0    0    0    0  0.00000000000E+00  0.00000000000E+00  0.99999998245E-14  0.12500000000E+03  0.12500000000E+03 0.  0.
        -11    1    1    0    0    0  0.13987893615E+02  0.29518334245E+02 -0.21694219659E+02  0.39212656009E+02  0.51100000000E-03 0.  1.
         11    1    1    0    0    0  0.62219081471E+01  0.18374744427E+02 -0.12943980476E+02  0.23321449452E+02  0.51100000000E-03 0. -1.
         22    1    1    0    0    0 -0.20209801762E+02 -0.47893078672E+02  0.34638200135E+02  0.62465894539E+02  0.00000000000E+00 0. -1.
</event>
<event>
 4    1  0.1964735E-002  0.9118800E+02  0.7818608E-02  0.1130116E+00
         25   -1    0    0    0    0  0.00000000000E+00  0.00000000000E+00  0.99999998245E-14  0.12500000000E+03  0.12500000000E+03 0.  0.
        -11    1    1    0    0    0 -0.24746139824E+01  0.19827467979E+01  0.73707326534E+00  0.32554994219E+01  0.51100000000E-03 0.  1.
         11    1    1    0    0    0 -0.42545604837E+02  0.41003057407E+02  0.46193221986E+01  0.59268181560E+02  0.51100000000E-03 0. -1.
         22    1    1    0    0    0  0.45020218819E+02 -0.42985804205E+02 -0.53563954639E+01  0.62476319018E+02  0.00000000000E+00 0. -1.
</event>
<event>
 4    1  0.1964735E-002  0.9118800E+02  0.7818608E-02  0.1130116E+00
         25   -1    0    0    0    0  0.00000000000E+00  0.00000000000E+00  0.99999998245E-14  0.12500000000E+03  0.12500000000E+03 0.  0.
        -11    1    1    0    0    0  0.27126568741E+02  0.28126555948E+02  0.39545548458E+02  0.55595002332E+02  0.51100000000E-03 0.  1.
         11    1    1    0    0    0  0.33292192811E+01  0.34385144825E+01  0.49775385557E+01  0.69052858885E+01  0.51100000000E-03 0. -1.
         22    1    1    0    0    0 -0.30455788022E+02 -0.31565070430E+02 -0.44523087014E+02  0.62499711780E+02  0.00000000000E+00 0.  1.
</event>
<event>
 4    1  0.1964735E-002  0.9118800E+02  0.7818608E-02  0.1130116E+00
         25   -1    0    0    0    0  0.00000000000E+00  0.00000000000E+00  0.99999998245E-14  0.12500000000E+03  0.12500000000E+03 0.  0.
        -11    1    1    0    0    0  0.71315090614E+01 -0.13105494823E+02 -0.40500991945E+02  0.43161820684E+02  0.51100000000E-03 0.  1.
         11    1    1    0    0    0  0.31966155219E+01 -0.58726893059E+01 -0.18145477392E+02  0.19338179349E+02  0.51100000000E-03 0. -1.
         22    1    1    0    0    0 -0.10328124583E+02  0.18978184129E+02  0.58646469337E+02  0.62499999967E+02  0.00000000000E+00 0.  1.
</event>
<event>
 4    1  0.1964735E-002  0.9118800E+02  0.7818608E-02  0.1130116E+00
         25   -1    0    0    0    0  0.00000000000E+00  0.00000000000E+00  0.99999998245E-14  0.12500000000E+03  0.12500000000E+03 0.  0.
        -11    1    1    0    0    0 -0.10085355997E+02  0.21333663977E+02  0.24906301733E+02  0.34309816242E+02  0.51100000000E-03 0. -1.
         11    1    1    0    0    0 -0.82859769791E+01  0.17527978827E+02  0.20464579260E+02  0.28190183767E+02  0.51100000000E-03 0. -1.
         22    1    1    0    0    0  0.18371332976E+02 -0.38861642804E+02 -0.45370880994E+02  0.62499999991E+02  0.00000000000E+00 0. -1.
</event>
<event>
 4    1  0.1964735E-002  0.9118800E+02  0.7818608E-02  0.1130116E+00
         25   -1    0    0    0    0  0.00000000000E+00  0.00000000000E+00  0.99999998245E-14  0.12500000000E+03  0.12500000000E+03 0.  0.
        -11    1    1    0    0    0  0.43150003986E+02 -0.21491190439E+02 -0.35828176541E+02  0.60062070768E+02  0.51100000000E-03 0.  1.
         11    1    1    0    0    0  0.17913373907E+01 -0.86289114981E+00 -0.14112840611E+01  0.24382767985E+01  0.51100000000E-03 0. -1.
         22    1    1    0    0    0 -0.44941341377E+02  0.22354081589E+02  0.37239460602E+02  0.62499652433E+02  0.00000000000E+00 0.  1.
</event>
<event>
 4    1  0.1964735E-002  0.9118800E+02  0.7818608E-02  0.1130116E+00
         25   -1    0    0    0    0  0.00000000000E+00  0.00000000000E+00  0.99999998245E-14  0.12500000000E+03  0.12500000000E+03 0.  0.
        -11    1    1    0    0    0 -0.22918942157E+02  0.40575965096E+02 -0.25179184761E+01  0.46669334330E+02  0.51100000000E-03 0. -1.
         11    1    1    0    0    0 -0.77060543511E+01  0.13802443760E+02 -0.84944400282E+00  0.15830738542E+02  0.51100000000E-03 0.  1.
         22    1    1    0    0    0  0.30624996508E+02 -0.54378408857E+02  0.33673624789E+01  0.62499927128E+02  0.00000000000E+00 0. -1.
</event>
<event>
 4    1  0.1964735E-002  0.9118800E+02  0.7818608E-02  0.1130116E+00
         25   -1    0    0    0    0  0.00000000000E+00  0.00000000000E+00  0.99999998245E-14  0.12500000000E+03  0.12500000000E+03 0.  0.
        -11    1    1    0    0    0  0.30393678376E+02  0.33182271838E+02  0.15984815935E+02  0.47753043781E+02  0.51100000000E-03 0.  1.
         11    1    1    0    0    0  0.93596051611E+01  0.10269366445E+02  0.49407574045E+01  0.14746971890E+02  0.51100000000E-03 0. -1.
         22    1    1    0    0    0 -0.39753283537E+02 -0.43451638283E+02 -0.20925573340E+02  0.62499984329E+02  0.00000000000E+00 0.  1.
</event>
<event>
 4    1  0.1964735E-002  0.9118800E+02  0.7818608E-02  0.1130116E+00
         25   -1    0    0    0    0  0.00000000000E+00  0.00000000000E+00  0.99999998245E-14  0.12500000000E+03  0.12500000000E+03 0.  0.
        -11    1    1    0    0    0 -0.25255661990E-01  0.88810770845E-03  0.71379378300E-01  0.75722611982E-01  0.51100000000E-03 0. -1.
         11    1    1    0    0    0 -0.59123531960E+02  0.18315873474E+02  0.82676070824E+01  0.62445308709E+02  0.51100000000E-03 0.  1.
         22    1    1    0    0    0  0.59148787622E+02 -0.18316761582E+02 -0.83389864607E+01  0.62478968679E+02  0.00000000000E+00 0.  1.
</event>
<event>
 4    1  0.1964735E-002  0.9118800E+02  0.7818608E-02  0.1130116E+00
         25   -1    0    0    0    0  0.00000000000E+00  0.00000000000E+00  0.99999998245E-14  0.12500000000E+03  0.12500000000E+03 0.  0.
        -11    1    1    0    0    0 -0.29966897253E+02 -0.84681233769E+01 -0.21612996723E+02  0.37905747217E+02  0.51100000000E-03 0.  1.
         11    1    1    0    0    0 -0.19440658348E+02 -0.54811832387E+01 -0.14031920095E+02  0.24594254380E+02  0.51100000000E-03 0. -1.
         22    1    1    0    0    0  0.49407555601E+02  0.13949306616E+02  0.35644916817E+02  0.62499998403E+02  0.00000000000E+00 0.  1.
</event>
<event>
 4    1  0.1964735E-002  0.9118800E+02  0.7818608E-02  0.1130116E+00
         25   -1    0    0    0    0  0.00000000000E+00  0.00000000000E+00  0.99999998245E-14  0.12500000000E+03  0.12500000000E+03 0.  0.
        -11    1    1    0    0    0  0.78591670306E+01  0.76489931484E+01 -0.18146122149E+02  0.21202720389E+02  0.51100000000E-03 0. -1.
         11    1    1    0    0    0  0.15237924619E+02  0.15412429282E+02 -0.35153659691E+02  0.41297906884E+02  0.51100000000E-03 0.  1.
         22    1    1    0    0    0 -0.23097091650E+02 -0.23061422430E+02  0.53299781839E+02  0.62499372727E+02  0.00000000000E+00 0.  1.
</event>
<event>
 4    1  0.1964735E-002  0.9118800E+02  0.7818608E-02  0.1130116E+00
         25   -1    0    0    0    0  0.00000000000E+00  0.00000000000E+00  0.99999998245E-14  0.12500000000E+03  0.12500000000E+03 0.  0.
        -11    1    1    0    0    0 -0.15366930159E+02  0.75814889651E+01  0.56028808142E+02  0.58590518512E+02  0.51100000000E-03 0.  1.
         11    1    1    0    0    0 -0.10301948884E+01  0.50367270398E+00  0.37375220919E+01  0.39094832586E+01  0.51100000000E-03 0. -1.
         22    1    1    0    0    0  0.16397125047E+02 -0.80851616691E+01 -0.59766330234E+02  0.62499998229E+02  0.00000000000E+00 0.  1.
</event>
<event>
 4    1  0.1964735E-002  0.9118800E+02  0.7818608E-02  0.1130116E+00
         25   -1    0    0    0    0  0.00000000000E+00  0.00000000000E+00  0.99999998245E-14  0.12500000000E+03  0.12500000000E+03 0.  0.
        -11    1    1    0    0    0 -0.12481619821E+02 -0.18256478273E+02  0.15785656006E+02  0.27171248924E+02  0.51100000000E-03 0. -1.
         11    1    1    0    0    0 -0.15678497800E+02 -0.31928861529E+02  0.64229308935E+01  0.36145837012E+02  0.51100000000E-03 0.  1.
         22    1    1    0    0    0  0.28160117620E+02  0.50185339801E+02 -0.22208586900E+02  0.61682914064E+02  0.00000000000E+00 0. -1.
</event>
<event>
 4    1  0.1964735E-002  0.9118800E+02  0.7818608E-02  0.1130116E+00
         25   -1    0    0    0    0  0.00000000000E+00  0.00000000000E+00  0.99999998245E-14  0.12500000000E+03  0.12500000000E+03 0.  0.
        -11    1    1    0    0    0  0.13643163623E+02 -0.18305591926E+02 -0.13295620773E+02  0.26419768004E+02  0.51100000000E-03 0. -1.
         11    1    1    0    0    0  0.18653876415E+02 -0.23871720233E+02 -0.19613103257E+02  0.36090164198E+02  0.51100000000E-03 0.  1.
         22    1    1    0    0    0 -0.32297040037E+02  0.42177312159E+02  0.32908724030E+02  0.62490067798E+02  0.00000000000E+00 0.  1.
</event>
<event>
 4    1  0.1964735E-002  0.9118800E+02  0.7818608E-02  0.1130116E+00
         25   -1    0    0    0    0  0.00000000000E+00  0.00000000000E+00  0.99999998245E-14  0.12500000000E+03  0.12500000000E+03 0.  0.
        -11    1    1    0    0    0  0.94558885826E+01  0.45065780331E+02 -0.96947326070E+01  0.47056627868E+02  0.51100000000E-03 0. -1.
         11    1    1    0    0    0  0.30935243337E+01  0.14796219469E+02 -0.31622668764E+01  0.15443378369E+02  0.51100000000E-03 0.  1.
         22    1    1    0    0    0 -0.12549412916E+02 -0.59861999800E+02  0.12856999483E+02  0.62499993763E+02  0.00000000000E+00 0. -1.
</event>
<event>
 4    1  0.1964735E-002  0.9118800E+02  0.7818608E-02  0.1130116E+00
         25   -1    0    0    0    0  0.00000000000E+00  0.00000000000E+00  0.99999998245E-14  0.12500000000E+03  0.12500000000E+03 0.  0.
        -11    1    1    0    0    0  0.54399151827E+02  0.70644235318E+01  0.88310957809E+01  0.55562235847E+02  0.51100000000E-03 0. -1.
         11    1    1    0    0    0  0.52181203892E+01  0.50488060565E+01  0.22498669428E+01  0.76013896436E+01  0.51100000000E-03 0.  1.
         22    1    1    0    0    0 -0.59617272216E+02 -0.12113229588E+02 -0.11080962724E+02  0.61836374509E+02  0.00000000000E+00 0. -1.
</event>
<event>
 4    1  0.1964735E-002  0.9118800E+02  0.7818608E-02  0.1130116E+00
         25   -1    0    0    0    0  0.00000000000E+00  0.00000000000E+00  0.99999998245E-14  0.12500000000E+03  0.12500000000E+03 0.  0.
        -11    1    1    0    0    0 -0.31635185225E+02  0.98616896031E+01 -0.44928800380E+01  0.33439854027E+02  0.51100000000E-03 0. -1.
         11    1    1    0    0    0 -0.27493087396E+02  0.85662258286E+01 -0.39041015413E+01  0.29060146053E+02  0.51100000000E-03 0.  1.
         22    1    1    0    0    0  0.59128272621E+02 -0.18427915432E+02  0.83969815792E+01  0.62499999920E+02  0.00000000000E+00 0.  1.
</event>
<event>
 4    1  0.1964735E-002  0.9118800E+02  0.7818608E-02  0.1130116E+00
         25   -1    0    0    0    0  0.00000000000E+00  0.00000000000E+00  0.99999998245E-14  0.12500000000E+03  0.12500000000E+03 0.  0.
        -11    1    1    0    0    0  0.25331092925E+02 -0.57909044467E+01 -0.20412582201E+02  0.33043491877E+02  0.51100000000E-03 0. -1.
         11    1    1    0    0    0  0.22580697189E+02 -0.51620648723E+01 -0.18197556752E+02  0.29456508132E+02  0.51100000000E-03 0. -1.
         22    1    1    0    0    0 -0.47911790114E+02  0.10952969319E+02  0.38610138953E+02  0.62499999991E+02  0.00000000000E+00 0. -1.
</event>
<event>
 4    1  0.1964735E-002  0.9118800E+02  0.7818608E-02  0.1130116E+00
         25   -1    0    0    0    0  0.00000000000E+00  0.00000000000E+00  0.99999998245E-14  0.12500000000E+03  0.12500000000E+03 0.  0.
        -11    1    1    0    0    0  0.76173310146E+01  0.82770678691E+01  0.56056889084E+02  0.57174368369E+02  0.51100000000E-03 0.  1.
         11    1    1    0    0    0  0.78419161125E+00 -0.39177620334E+01  0.47953165608E+01  0.62417046560E+01  0.51100000000E-03 0. -1.
         22    1    1    0    0    0 -0.84015226258E+01 -0.43593058357E+01 -0.60852205645E+02  0.61583926975E+02  0.00000000000E+00 0.  1.
</event>
<event>
 4    1  0.1964735E-002  0.9118800E+02  0.7818608E-02  0.1130116E+00
         25   -1    0    0    0    0  0.00000000000E+00  0.00000000000E+00  0.99999998245E-14  0.12500000000E+03  0.12500000000E+03 0.  0.
        -11    1    1    0    0    0  0.10769016964E+02  0.46053433415E+02 -0.31436978491E+01  0.47400140212E+02  0.51100000000E-03 0. -1.
         11    1    1    0    0    0  0.34292815080E+01  0.14671045133E+02 -0.10031103007E+01  0.15099859850E+02  0.51100000000E-03 0. -1.
         22    1    1    0    0    0 -0.14198298472E+02 -0.60724478548E+02  0.41468081498E+01  0.62499999938E+02  0.00000000000E+00 0. -1.
</event>
<event>
 4    1  0.1964735E-002  0.9118800E+02  0.7818608E-02  0.1130116E+00
         25   -1    0    0    0    0  0.00000000000E+00  0.00000000000E+00  0.99999998245E-14  0.12500000000E+03  0.12500000000E+03 0.  0.
        -11    1    1    0    0    0  0.23679320824E+02  0.32631237373E+02  0.13903224368E+02  0.42647479824E+02  0.51100000000E-03 0.  1.
         11    1    1    0    0    0  0.35475548535E+01  0.76848950346E+01  0.20891774625E+02  0.22541273353E+02  0.51100000000E-03 0. -1.
         22    1    1    0    0    0 -0.27226875678E+02 -0.40316132408E+02 -0.34794998994E+02  0.59811246823E+02  0.00000000000E+00 0.  1.
</event>
<event>
 4    1  0.1964735E-002  0.9118800E+02  0.7818608E-02  0.1130116E+00
         25   -1    0    0    0    0  0.00000000000E+00  0.00000000000E+00  0.99999998245E-14  0.12500000000E+03  0.12500000000E+03 0.  0.
        -11    1    1    0    0    0  0.34080916955E+02  0.66924602126E+01  0.22232927230E+00  0.34732511495E+02  0.51100000000E-03 0.  1.
         11    1    1    0    0    0  0.27266783980E+02  0.52438032545E+01  0.25142809933E+00  0.27767574571E+02  0.51100000000E-03 0. -1.
         22    1    1    0    0    0 -0.61347700936E+02 -0.11936263467E+02 -0.47375737163E+00  0.62499913934E+02  0.00000000000E+00 0. -1.
</event>
<event>
 4    1  0.1964735E-002  0.9118800E+02  0.7818608E-02  0.1130116E+00
         25   -1    0    0    0    0  0.00000000000E+00  0.00000000000E+00  0.99999998245E-14  0.12500000000E+03  0.12500000000E+03 0.  0.
        -11    1    1    0    0    0 -0.25355922884E+01 -0.18444614566E+01  0.88931493881E+01  0.94297069211E+01  0.51100000000E-03 0. -1.
         11    1    1    0    0    0 -0.12070257689E+02 -0.96429807767E+01  0.50776212176E+02  0.53074494083E+02  0.51100000000E-03 0.  1.
         22    1    1    0    0    0  0.14605849977E+02  0.11487442233E+02 -0.59669361564E+02  0.62495798996E+02  0.00000000000E+00 0.  1.
</event>
<event>
 4    1  0.1964735E-002  0.9118800E+02  0.7818608E-02  0.1130116E+00
         25   -1    0    0    0    0  0.00000000000E+00  0.00000000000E+00  0.99999998245E-14  0.12500000000E+03  0.12500000000E+03 0.  0.
        -11    1    1    0    0    0  0.30929418239E+02 -0.14792568633E+02 -0.32859837041E+02  0.47489134442E+02  0.51100000000E-03 0.  1.
         11    1    1    0    0    0  0.87715732181E+01 -0.32627451342E+01 -0.11817913152E+02  0.15074782720E+02  0.51100000000E-03 0. -1.
         22    1    1    0    0    0 -0.39700991457E+02  0.18055313767E+02  0.44677750193E+02  0.62436082839E+02  0.00000000000E+00 0.  1.
</event>
<event>
 4    1  0.1964735E-002  0.9118800E+02  0.7818608E-02  0.1130116E+00
         25   -1    0    0    0    0  0.00000000000E+00  0.00000000000E+00  0.99999998245E-14  0.12500000000E+03  0.12500000000E+03 0.  0.
        -11    1    1    0    0    0  0.15299534885E+02  0.30908544207E+02  0.38081869990E+02  0.51377453176E+02  0.51100000000E-03 0.  1.
         11    1    1    0    0    0  0.33117571794E+01  0.66917015851E+01  0.82440549594E+01  0.11122546838E+02  0.51100000000E-03 0. -1.
         22    1    1    0    0    0 -0.18611292064E+02 -0.37600245792E+02 -0.46325924949E+02  0.62499999986E+02  0.00000000000E+00 0.  1.
</event>
<event>
 4    1  0.1964735E-002  0.9118800E+02  0.7818608E-02  0.1130116E+00
         25   -1    0    0    0    0  0.00000000000E+00  0.00000000000E+00  0.99999998245E-14  0.12500000000E+03  0.12500000000E+03 0.  0.
        -11    1    1    0    0    0 -0.17620070845E+02  0.46686625590E+01  0.31362475756E+02  0.36274897553E+02  0.51100000000E-03 0.  1.
         11    1    1    0    0    0 -0.10543703291E+02  0.29946384279E+01  0.23863575242E+02  0.26260383889E+02  0.51100000000E-03 0. -1.
         22    1    1    0    0    0  0.28163774136E+02 -0.76633009869E+01 -0.55226050998E+02  0.62464718558E+02  0.00000000000E+00 0.  1.
</event>
<event>
 4    1  0.1964735E-002  0.9118800E+02  0.7818608E-02  0.1130116E+00
         25   -1    0    0    0    0  0.00000000000E+00  0.00000000000E+00  0.99999998245E-14  0.12500000000E+03  0.12500000000E+03 0.  0.
        -11    1    1    0    0    0  0.16588248436E+02  0.10871090997E+02  0.17802150643E+02  0.26650838138E+02  0.51100000000E-03 0.  1.
         11    1    1    0    0    0  0.22313764382E+02  0.14621214665E+02  0.23947409215E+02  0.35849161881E+02  0.51100000000E-03 0. -1.
         22    1    1    0    0    0 -0.38902012818E+02 -0.25492305662E+02 -0.41749559859E+02  0.62499999981E+02  0.00000000000E+00 0.  1.
</event>
<event>
 4    1  0.1964735E-002  0.9118800E+02  0.7818608E-02  0.1130116E+00
         25   -1    0    0    0    0  0.00000000000E+00  0.00000000000E+00  0.99999998245E-14  0.12500000000E+03  0.12500000000E+03 0.  0.
        -11    1    1    0    0    0  0.28656965939E+02  0.38215695714E+02 -0.13204591707E+01  0.47784984131E+02  0.51100000000E-03 0. -1.
         11    1    1    0    0    0  0.42583144629E+01  0.13862315235E+02 -0.48684628362E+01  0.15297024429E+02  0.51100000000E-03 0.  1.
         22    1    1    0    0    0 -0.32915280402E+02 -0.52078010949E+02  0.61889220069E+01  0.61917991440E+02  0.00000000000E+00 0. -1.
</event>
<event>
 4    1  0.1964735E-002  0.9118800E+02  0.7818608E-02  0.1130116E+00
         25   -1    0    0    0    0  0.00000000000E+00  0.00000000000E+00  0.99999998245E-14  0.12500000000E+03  0.12500000000E+03 0.  0.
        -11    1    1    0    0    0 -0.32232116263E+02  0.22855578647E+02  0.15212408057E+01  0.39542394564E+02  0.51100000000E-03 0.  1.
         11    1    1    0    0    0 -0.18588076944E+02  0.10870902812E+02  0.93975198520E+01  0.23494818834E+02  0.51100000000E-03 0. -1.
         22    1    1    0    0    0  0.50820193207E+02 -0.33726481458E+02 -0.10918760658E+02  0.61962786601E+02  0.00000000000E+00 0.  1.
</event>
<event>
 4    1  0.1964735E-002  0.9118800E+02  0.7818608E-02  0.1130116E+00
         25   -1    0    0    0    0  0.00000000000E+00  0.00000000000E+00  0.99999998245E-14  0.12500000000E+03  0.12500000000E+03 0.  0.
        -11    1    1    0    0    0  0.53662702807E+02 -0.21191664756E+02  0.21958484415E+00  0.57695931793E+02  0.51100000000E-03 0. -1.
         11    1    1    0    0    0  0.44718626188E+01 -0.17541811582E+01  0.77820092447E-01  0.48042442741E+01  0.51100000000E-03 0.  1.
         22    1    1    0    0    0 -0.58134565426E+02  0.22945845915E+02 -0.29740493660E+00  0.62499823933E+02  0.00000000000E+00 0. -1.
</event>
<event>
 4    1  0.1964735E-002  0.9118800E+02  0.7818608E-02  0.1130116E+00
         25   -1    0    0    0    0  0.00000000000E+00  0.00000000000E+00  0.99999998245E-14  0.12500000000E+03  0.12500000000E+03 0.  0.
        -11    1    1    0    0    0 -0.74223794097E+01 -0.19799088254E+02 -0.34917713437E+02  0.40820856479E+02  0.51100000000E-03 0. -1.
         11    1    1    0    0    0  0.12203715485E+02  0.14174607982E+01 -0.21438013462E+02  0.24708870638E+02  0.51100000000E-03 0.  1.
         22    1    1    0    0    0 -0.47813360749E+01  0.18381627456E+02  0.56355726898E+02  0.59470272883E+02  0.00000000000E+00 0. -1.
</event>
<event>
 4    1  0.1964735E-002  0.9118800E+02  0.7818608E-02  0.1130116E+00
         25   -1    0    0    0    0  0.00000000000E+00  0.00000000000E+00  0.99999998245E-14  0.12500000000E+03  0.12500000000E+03 0.  0.
        -11    1    1    0    0    0  0.45525598559E+01  0.84823211122E+01  0.21595142550E+01  0.98660566981E+01  0.51100000000E-03 0. -1.
         11    1    1    0    0    0  0.24295852502E+02  0.45252042612E+02  0.11502009050E+02  0.52633943627E+02  0.51100000000E-03 0.  1.
         22    1    1    0    0    0 -0.28848412358E+02 -0.53734363724E+02 -0.13661523305E+02  0.62499999675E+02  0.00000000000E+00 0.  1.
</event>
<event>
 4    1  0.1964735E-002  0.9118800E+02  0.7818608E-02  0.1130116E+00
         25   -1    0    0    0    0  0.00000000000E+00  0.00000000000E+00  0.99999998245E-14  0.12500000000E+03  0.12500000000E+03 0.  0.
        -11    1    1    0    0    0  0.39294674802E+00  0.81717842785E+00 -0.94666413183E-01  0.91167413073E+00  0.51100000000E-03 0.  1.
         11    1    1    0    0    0  0.26953632311E+02  0.55024516477E+02 -0.62392156723E+01  0.61588339162E+02  0.51100000000E-03 0. -1.
         22    1    1    0    0    0 -0.27346579059E+02 -0.55841694905E+02  0.63338820855E+01  0.62499986707E+02  0.00000000000E+00 0. -1.
</event>
<event>
 4    1  0.1964735E-002  0.9118800E+02  0.7818608E-02  0.1130116E+00
         25   -1    0    0    0    0  0.00000000000E+00  0.00000000000E+00  0.99999998245E-14  0.12500000000E+03  0.12500000000E+03 0.  0.
        -11    1    1    0    0    0  0.15515510982E+02  0.11159595294E+02 -0.56808319598E+01  0.19938392617E+02  0.51100000000E-03 0. -1.
         11    1    1    0    0    0  0.33393424613E+02  0.23422730433E+02 -0.12156593840E+02  0.42562047441E+02  0.51100000000E-03 0.  1.
         22    1    1    0    0    0 -0.48908935595E+02 -0.34582325727E+02  0.17837425800E+02  0.62499559941E+02  0.00000000000E+00 0. -1.
</event>
<event>
 4    1  0.1964735E-002  0.9118800E+02  0.7818608E-02  0.1130116E+00
         25   -1    0    0    0    0  0.00000000000E+00  0.00000000000E+00  0.99999998245E-14  0.12500000000E+03  0.12500000000E+03 0.  0.
        -11    1    1    0    0    0  0.96414458199E+00  0.14807668773E+01  0.33376060765E+01  0.37764877734E+01  0.51100000000E-03 0. -1.
         11    1    1    0    0    0  0.27856620107E+02  0.19856624916E+02  0.47791102673E+02  0.58773006830E+02  0.51100000000E-03 0.  1.
         22    1    1    0    0    0 -0.28820764689E+02 -0.21337391793E+02 -0.51128708750E+02  0.62450505396E+02  0.00000000000E+00 0.  1.
</event>
<event>
 4    1  0.1964735E-002  0.9118800E+02  0.7818608E-02  0.1130116E+00
         25   -1    0    0    0    0  0.00000000000E+00  0.00000000000E+00  0.99999998245E-14  0.12500000000E+03  0.12500000000E+03 0.  0.
        -11    1    1    0    0    0 -0.84415076721E+01  0.38028747869E+02 -0.40461508048E+02  0.56165633176E+02  0.51100000000E-03 0.  1.
         11    1    1    0    0    0 -0.14464308440E+01  0.42822663557E+01 -0.44508211219E+01  0.63434829745E+01  0.51100000000E-03 0. -1.
         22    1    1    0    0    0  0.98879385161E+01 -0.42311014225E+02  0.44912329170E+02  0.62490883850E+02  0.00000000000E+00 0.  1.
</event>
<event>
 4    1  0.1964735E-002  0.9118800E+02  0.7818608E-02  0.1130116E+00
         25   -1    0    0    0    0  0.00000000000E+00  0.00000000000E+00  0.99999998245E-14  0.12500000000E+03  0.12500000000E+03 0.  0.
        -11    1    1    0    0    0  0.14932569481E+01  0.42963404494E+02  0.31259703581E+02  0.53153109131E+02  0.51100000000E-03 0. -1.
         11    1    1    0    0    0  0.27827235498E+00  0.76325389574E+01  0.53887770488E+01  0.93472993310E+01  0.51100000000E-03 0.  1.
         22    1    1    0    0    0 -0.17715293031E+01 -0.50595943452E+02 -0.36648480630E+02  0.62499591538E+02  0.00000000000E+00 0. -1.
</event>
<event>
 4    1  0.1964735E-002  0.9118800E+02  0.7818608E-02  0.1130116E+00
         25   -1    0    0    0    0  0.00000000000E+00  0.00000000000E+00  0.99999998245E-14  0.12500000000E+03  0.12500000000E+03 0.  0.
        -11    1    1    0    0    0 -0.30750477353E+02  0.10809701329E+02 -0.36845058942E+02  0.49193494173E+02  0.51100000000E-03 0. -1.
         11    1    1    0    0    0 -0.84119788284E+01  0.28560617344E+01 -0.99071340497E+01  0.13306756997E+02  0.51100000000E-03 0.  1.
         22    1    1    0    0    0  0.39162456181E+02 -0.13665763063E+02  0.46752192992E+02  0.62499748830E+02  0.00000000000E+00 0. -1.
</event>
<event>
 4    1  0.1964735E-002  0.9118800E+02  0.7818608E-02  0.1130116E+00
         25   -1    0    0    0    0  0.00000000000E+00  0.00000000000E+00  0.99999998245E-14  0.12500000000E+03  0.12500000000E+03 0.  0.
        -11    1    1    0    0    0  0.11924618157E+02 -0.12981789252E+02 -0.13379848261E+02  0.22130153866E+02  0.51100000000E-03 0.  1.
         11    1    1    0    0    0 -0.12569741130E+02 -0.93667740772E+01 -0.41096084431E+02  0.43984349540E+02  0.51100000000E-03 0. -1.
         22    1    1    0    0    0  0.64512297268E+00  0.22348563329E+02  0.54475932692E+02  0.58885496594E+02  0.00000000000E+00 0.  1.
</event>
<event>
 4    1  0.1964735E-002  0.9118800E+02  0.7818608E-02  0.1130116E+00
         25   -1    0    0    0    0  0.00000000000E+00  0.00000000000E+00  0.99999998245E-14  0.12500000000E+03  0.12500000000E+03 0.  0.
        -11    1    1    0    0    0 -0.11830324944E+02  0.43457863114E+02  0.29664256148E+02  0.53930608636E+02  0.51100000000E-03 0.  1.
         11    1    1    0    0    0 -0.18777232078E+01  0.69059698402E+01  0.47134070919E+01  0.85693914926E+01  0.51100000000E-03 0. -1.
         22    1    1    0    0    0  0.13708048152E+02 -0.50363832955E+02 -0.34377663240E+02  0.62499999871E+02  0.00000000000E+00 0.  1.
</event>
<event>
 4    1  0.1964735E-002  0.9118800E+02  0.7818608E-02  0.1130116E+00
         25   -1    0    0    0    0  0.00000000000E+00  0.00000000000E+00  0.99999998245E-14  0.12500000000E+03  0.12500000000E+03 0.  0.
        -11    1    1    0    0    0 -0.58406357397E+01  0.75977342779E+01 -0.22383394301E+01  0.98411765388E+01  0.51100000000E-03 0.  1.
         11    1    1    0    0    0 -0.31733405260E+02  0.40263517239E+02 -0.12034216209E+02  0.52659113075E+02  0.51100000000E-03 0. -1.
         22    1    1    0    0    0  0.37574040999E+02 -0.47861251517E+02  0.14272555639E+02  0.62499710386E+02  0.00000000000E+00 0. -1.
</event>
<event>
 4    1  0.1964735E-002  0.9118800E+02  0.7818608E-02  0.1130116E+00
         25   -1    0    0    0    0  0.00000000000E+00  0.00000000000E+00  0.99999998245E-14  0.12500000000E+03  0.12500000000E+03 0.  0.
        -11    1    1    0    0    0 -0.14957940415E+02  0.16349302263E+02 -0.93151961369E+00  0.22178985437E+02  0.51100000000E-03 0.  1.
         11    1    1    0    0    0 -0.27200467514E+02  0.29716636096E+02 -0.16853335770E+01  0.40321014910E+02  0.51100000000E-03 0. -1.
         22    1    1    0    0    0  0.42158407929E+02 -0.46065938359E+02  0.26168531907E+01  0.62499999653E+02  0.00000000000E+00 0. -1.
</event>
<event>
 4    1  0.1964735E-002  0.9118800E+02  0.7818608E-02  0.1130116E+00
         25   -1    0    0    0    0  0.00000000000E+00  0.00000000000E+00  0.99999998245E-14  0.12500000000E+03  0.12500000000E+03 0.  0.
        -11    1    1    0    0    0  0.22733706883E+02  0.54674309457E+02 -0.13709001127E+02  0.60778600308E+02  0.51100000000E-03 0. -1.
         11    1    1    0    0    0  0.72682982670E+00  0.14842515424E+01 -0.49251929814E+00  0.17244882598E+01  0.51100000000E-03 0.  1.
         22    1    1    0    0    0 -0.23460536710E+02 -0.56158560999E+02  0.14201520425E+02  0.62496911432E+02  0.00000000000E+00 0. -1.
</event>
<event>
 4    1  0.1964735E-002  0.9118800E+02  0.7818608E-02  0.1130116E+00
         25   -1    0    0    0    0  0.00000000000E+00  0.00000000000E+00  0.99999998245E-14  0.12500000000E+03  0.12500000000E+03 0.  0.
        -11    1    1    0    0    0  0.40103836282E+02 -0.35504104321E+01 -0.34461663330E+01  0.40407909640E+02  0.51100000000E-03 0.  1.
         11    1    1    0    0    0  0.18369520240E+02 -0.16338969992E+01  0.16169032114E+02  0.24526444769E+02  0.51100000000E-03 0. -1.
         22    1    1    0    0    0 -0.58473356523E+02  0.51843074313E+01 -0.12722865781E+02  0.60065645591E+02  0.00000000000E+00 0.  1.
</event>
<event>
 4    1  0.1964735E-002  0.9118800E+02  0.7818608E-02  0.1130116E+00
         25   -1    0    0    0    0  0.00000000000E+00  0.00000000000E+00  0.99999998245E-14  0.12500000000E+03  0.12500000000E+03 0.  0.
        -11    1    1    0    0    0 -0.19996469964E+02 -0.25371780329E+01  0.51105842324E+02  0.54937266071E+02  0.51100000000E-03 0. -1.
         11    1    1    0    0    0 -0.26134854300E+01 -0.50131819298E+00  0.70804589417E+01  0.75640283652E+01  0.51100000000E-03 0.  1.
         22    1    1    0    0    0  0.22609955394E+02  0.30384962258E+01 -0.58186301266E+02  0.62498705564E+02  0.00000000000E+00 0. -1.
</event>
<event>
 4    1  0.1964735E-002  0.9118800E+02  0.7818608E-02  0.1130116E+00
         25   -1    0    0    0    0  0.00000000000E+00  0.00000000000E+00  0.99999998245E-14  0.12500000000E+03  0.12500000000E+03 0.  0.
        -11    1    1    0    0    0  0.11403960762E+01 -0.52023490860E+01  0.16206886274E+01  0.55670073748E+01  0.51100000000E-03 0.  1.
         11    1    1    0    0    0  0.11616059343E+02 -0.54011724005E+02  0.13767591400E+02  0.56936330562E+02  0.51100000000E-03 0. -1.
         22    1    1    0    0    0 -0.12756455419E+02  0.59214073091E+02 -0.15388280027E+02  0.62496662063E+02  0.00000000000E+00 0. -1.
</event>
<event>
 4    1  0.1964735E-002  0.9118800E+02  0.7818608E-02  0.1130116E+00
         25   -1    0    0    0    0  0.00000000000E+00  0.00000000000E+00  0.99999998245E-14  0.12500000000E+03  0.12500000000E+03 0.  0.
        -11    1    1    0    0    0 -0.57589174203E+01 -0.18170344135E+02  0.23599648782E+01  0.19206664737E+02  0.51100000000E-03 0. -1.
         11    1    1    0    0    0 -0.12971452865E+02 -0.40958805089E+02  0.53320364820E+01  0.43293335712E+02  0.51100000000E-03 0.  1.
         22    1    1    0    0    0  0.18730370286E+02  0.59129149224E+02 -0.76920013602E+01  0.62499999551E+02  0.00000000000E+00 0.  1.
</event>
<event>
 4    1  0.1964735E-002  0.9118800E+02  0.7818608E-02  0.1130116E+00
         25   -1    0    0    0    0  0.00000000000E+00  0.00000000000E+00  0.99999998245E-14  0.12500000000E+03  0.12500000000E+03 0.  0.
        -11    1    1    0    0    0  0.38768668722E+01 -0.16959734319E+02 -0.34179727209E+02  0.38352528434E+02  0.51100000000E-03 0. -1.
         11    1    1    0    0    0  0.25928353711E+01 -0.10650055739E+02 -0.21516533766E+02  0.24147623239E+02  0.51100000000E-03 0.  1.
         22    1    1    0    0    0 -0.64697022434E+01  0.27609790058E+02  0.55696260976E+02  0.62499848327E+02  0.00000000000E+00 0. -1.
</event>
<event>
 4    1  0.1964735E-002  0.9118800E+02  0.7818608E-02  0.1130116E+00
         25   -1    0    0    0    0  0.00000000000E+00  0.00000000000E+00  0.99999998245E-14  0.12500000000E+03  0.12500000000E+03 0.  0.
        -11    1    1    0    0    0  0.37196144646E+02  0.23145778146E+02 -0.37417579544E+02  0.57613848003E+02  0.51100000000E-03 0. -1.
         11    1    1    0    0    0  0.29807050440E+01  0.21211879522E+01 -0.32431716215E+01  0.48889879643E+01  0.51100000000E-03 0.  1.
         22    1    1    0    0    0 -0.40176849690E+02 -0.25266966098E+02  0.40660751165E+02  0.62497164033E+02  0.00000000000E+00 0. -1.
</event>
<event>
 4    1  0.1964735E-002  0.9118800E+02  0.7818608E-02  0.1130116E+00
         25   -1    0    0    0    0  0.00000000000E+00  0.00000000000E+00  0.99999998245E-14  0.12500000000E+03  0.12500000000E+03 0.  0.
        -11    1    1    0    0    0 -0.23934218181E+02  0.98321728940E+01 -0.14395038210E+02  0.29609720517E+02  0.51100000000E-03 0. -1.
         11    1    1    0    0    0 -0.26585606430E+02  0.10922131549E+02 -0.15990092487E+02  0.32890279489E+02  0.51100000000E-03 0. -1.
         22    1    1    0    0    0  0.50519824612E+02 -0.20754304443E+02  0.30385130697E+02  0.62499999994E+02  0.00000000000E+00 0. -1.
</event>
<event>
 4    1  0.1964735E-002  0.9118800E+02  0.7818608E-02  0.1130116E+00
         25   -1    0    0    0    0  0.00000000000E+00  0.00000000000E+00  0.99999998245E-14  0.12500000000E+03  0.12500000000E+03 0.  0.
        -11    1    1    0    0    0 -0.61870617291E+01  0.26077482372E+01  0.64707850310E+01  0.93247596692E+01  0.51100000000E-03 0. -1.
         11    1    1    0    0    0 -0.27925250449E+02  0.32643550571E+02  0.31808663875E+02  0.53452896126E+02  0.51100000000E-03 0.  1.
         22    1    1    0    0    0  0.34112312178E+02 -0.35251298808E+02 -0.38279448906E+02  0.62222344205E+02  0.00000000000E+00 0.  1.
</event>
<event>
 4    1  0.1964735E-002  0.9118800E+02  0.7818608E-02  0.1130116E+00
         25   -1    0    0    0    0  0.00000000000E+00  0.00000000000E+00  0.99999998245E-14  0.12500000000E+03  0.12500000000E+03 0.  0.
        -11    1    1    0    0    0 -0.25780153727E+02 -0.18384348041E+02  0.44003846082E+02  0.54211982525E+02  0.51100000000E-03 0. -1.
         11    1    1    0    0    0  0.10952275826E+01  0.74865300207E+01  0.87293766794E+01  0.11552041927E+02  0.51100000000E-03 0.  1.
         22    1    1    0    0    0  0.24684926144E+02  0.10897818020E+02 -0.52733222761E+02  0.59235975548E+02  0.00000000000E+00 0. -1.
</event>
<event>
 4    1  0.1964735E-002  0.9118800E+02  0.7818608E-02  0.1130116E+00
         25   -1    0    0    0    0  0.00000000000E+00  0.00000000000E+00  0.99999998245E-14  0.12500000000E+03  0.12500000000E+03 0.  0.
        -11    1    1    0    0    0 -0.24904135013E+01  0.56215664657E+01 -0.68482525293E+01  0.92034087110E+01  0.51100000000E-03 0.  1.
         11    1    1    0    0    0 -0.14476260091E+02  0.32540812402E+02 -0.39649215658E+02  0.53296593517E+02  0.51100000000E-03 0. -1.
         22    1    1    0    0    0  0.16966673592E+02 -0.38162378868E+02  0.46497468187E+02  0.62499997772E+02  0.00000000000E+00 0.  1.
</event>
<event>
 4    1  0.1964735E-002  0.9118800E+02  0.7818608E-02  0.1130116E+00
         25   -1    0    0    0    0  0.00000000000E+00  0.00000000000E+00  0.99999998245E-14  0.12500000000E+03  0.12500000000E+03 0.  0.
        -11    1    1    0    0    0  0.99346474700E+01 -0.52143822003E+02  0.16352786506E+02  0.55543577668E+02  0.51100000000E-03 0. -1.
         11    1    1    0    0    0  0.10279557509E+01 -0.63131752327E+01  0.27862315950E+01  0.69768159863E+01  0.51100000000E-03 0.  1.
         22    1    1    0    0    0 -0.10962603221E+02  0.58456997236E+02 -0.19139018101E+02  0.62479606345E+02  0.00000000000E+00 0. -1.
</event>
<event>
 4    1  0.1964735E-002  0.9118800E+02  0.7818608E-02  0.1130116E+00
         25   -1    0    0    0    0  0.00000000000E+00  0.00000000000E+00  0.99999998245E-14  0.12500000000E+03  0.12500000000E+03 0.  0.
        -11    1    1    0    0    0  0.16502465283E+02 -0.25290523581E+02 -0.38893974050E+01  0.30447813647E+02  0.51100000000E-03 0. -1.
         11    1    1    0    0    0  0.17398132086E+02 -0.26595370214E+02 -0.41635868129E+01  0.32052210100E+02  0.51100000000E-03 0.  1.
         22    1    1    0    0    0 -0.33900597369E+02  0.51885893795E+02  0.80529842179E+01  0.62499976253E+02  0.00000000000E+00 0.  1.
</event>
<event>
 4    1  0.1964735E-002  0.9118800E+02  0.7818608E-02  0.1130116E+00
         25   -1    0    0    0    0  0.00000000000E+00  0.00000000000E+00  0.99999998245E-14  0.12500000000E+03  0.12500000000E+03 0.  0.
        -11    1    1    0    0    0 -0.28344631610E+02  0.18849574044E+02  0.11638298227E+02  0.35974637852E+02  0.51100000000E-03 0.  1.
         11    1    1    0    0    0 -0.21027018165E+02  0.16760101518E+02  0.76792596385E+00  0.26900301232E+02  0.51100000000E-03 0. -1.
         22    1    1    0    0    0  0.49371649775E+02 -0.35609675561E+02 -0.12406224191E+02  0.62125060916E+02  0.00000000000E+00 0.  1.
</event>
<event>
 4    1  0.1964735E-002  0.9118800E+02  0.7818608E-02  0.1130116E+00
         25   -1    0    0    0    0  0.00000000000E+00  0.00000000000E+00  0.99999998245E-14  0.12500000000E+03  0.12500000000E+03 0.  0.
        -11    1    1    0    0    0  0.97329724684E+00  0.91048197347E-01  0.18965328830E+01  0.21336434900E+01  0.51100000000E-03 0. -1.
         11    1    1    0    0    0  0.27562812000E+02  0.23534252006E+01  0.53654921893E+02  0.60366363640E+02  0.51100000000E-03 0.  1.
         22    1    1    0    0    0 -0.28536109247E+02 -0.24444733979E+01 -0.55551454776E+02  0.62499992870E+02  0.00000000000E+00 0.  1.
</event>
<event>
 4    1  0.1964735E-002  0.9118800E+02  0.7818608E-02  0.1130116E+00
         25   -1    0    0    0    0  0.00000000000E+00  0.00000000000E+00  0.99999998245E-14  0.12500000000E+03  0.12500000000E+03 0.  0.
        -11    1    1    0    0    0  0.28100277447E+02  0.26841863086E+02 -0.24913866984E+02  0.46160718960E+02  0.51100000000E-03 0.  1.
         11    1    1    0    0    0  0.98296827087E+01  0.95198105647E+01 -0.89292968286E+01  0.16339577640E+02  0.51100000000E-03 0. -1.
         22    1    1    0    0    0 -0.37929960156E+02 -0.36361673651E+02  0.33843163813E+02  0.62499703399E+02  0.00000000000E+00 0.  1.
</event>
<event>
 4    1  0.1964735E-002  0.9118800E+02  0.7818608E-02  0.1130116E+00
         25   -1    0    0    0    0  0.00000000000E+00  0.00000000000E+00  0.99999998245E-14  0.12500000000E+03  0.12500000000E+03 0.  0.
        -11    1    1    0    0    0 -0.66722580237E+01  0.19693600633E+01 -0.58553058857E+01  0.90929650538E+01  0.51100000000E-03 0.  1.
         11    1    1    0    0    0 -0.31135493575E+02  0.35432293687E+01 -0.43424590743E+02  0.53550616392E+02  0.51100000000E-03 0. -1.
         22    1    1    0    0    0  0.37807751598E+02 -0.55125894320E+01  0.49279896629E+02  0.62356418554E+02  0.00000000000E+00 0. -1.
</event>
<event>
 4    1  0.1964735E-002  0.9118800E+02  0.7818608E-02  0.1130116E+00
         25   -1    0    0    0    0  0.00000000000E+00  0.00000000000E+00  0.99999998245E-14  0.12500000000E+03  0.12500000000E+03 0.  0.
        -11    1    1    0    0    0  0.28055961596E+02  0.43392098794E+02 -0.31687550912E+02  0.60614454563E+02  0.51100000000E-03 0. -1.
         11    1    1    0    0    0  0.89932263837E+00  0.13862039884E+01 -0.91031890540E+00  0.18865374303E+01  0.51100000000E-03 0.  1.
         22    1    1    0    0    0 -0.28955284234E+02 -0.44778302783E+02  0.32597869818E+02  0.62499008007E+02  0.00000000000E+00 0. -1.
</event>
<event>
 4    1  0.1964735E-002  0.9118800E+02  0.7818608E-02  0.1130116E+00
         25   -1    0    0    0    0  0.00000000000E+00  0.00000000000E+00  0.99999998245E-14  0.12500000000E+03  0.12500000000E+03 0.  0.
        -11    1    1    0    0    0  0.12975194382E+02 -0.28336952458E+02 -0.13829471963E+02  0.34096815671E+02  0.51100000000E-03 0.  1.
         11    1    1    0    0    0  0.94129618265E+01 -0.22691569486E+02 -0.14359294299E+02  0.28455236936E+02  0.51100000000E-03 0. -1.
         22    1    1    0    0    0 -0.22388156208E+02  0.51028521944E+02  0.28188766262E+02  0.62447947393E+02  0.00000000000E+00 0.  1.
</event>
<event>
 4    1  0.1964735E-002  0.9118800E+02  0.7818608E-02  0.1130116E+00
         25   -1    0    0    0    0  0.00000000000E+00  0.00000000000E+00  0.99999998245E-14  0.12500000000E+03  0.12500000000E+03 0.  0.
        -11    1    1    0    0    0 -0.16500290431E+00  0.90138465960E+00 -0.37647228265E+02  0.37658379102E+02  0.51100000000E-03 0. -1.
         11    1    1    0    0    0 -0.78746017756E-01  0.14619464357E+01 -0.24803021181E+02  0.24846193839E+02  0.51100000000E-03 0.  1.
         22    1    1    0    0    0  0.24374892206E+00 -0.23633310953E+01  0.62450249446E+02  0.62495427059E+02  0.00000000000E+00 0. -1.
</event>
<event>
 4    1  0.1964735E-002  0.9118800E+02  0.7818608E-02  0.1130116E+00
         25   -1    0    0    0    0  0.00000000000E+00  0.00000000000E+00  0.99999998245E-14  0.12500000000E+03  0.12500000000E+03 0.  0.
        -11    1    1    0    0    0 -0.13100489557E+02 -0.54653792383E+01  0.56904923908E+00  0.14206231526E+02  0.51100000000E-03 0. -1.
         11    1    1    0    0    0 -0.44532861927E+02 -0.18583550402E+02  0.19400883316E+01  0.48293768542E+02  0.51100000000E-03 0. -1.
         22    1    1    0    0    0  0.57633351485E+02  0.24048929640E+02 -0.25091375707E+01  0.62499999932E+02  0.00000000000E+00 0. -1.
</event>
<event>
 4    1  0.1964735E-002  0.9118800E+02  0.7818608E-02  0.1130116E+00
         25   -1    0    0    0    0  0.00000000000E+00  0.00000000000E+00  0.99999998245E-14  0.12500000000E+03  0.12500000000E+03 0.  0.
        -11    1    1    0    0    0 -0.20646521382E+02  0.12206281747E+02  0.49458189317E+02  0.54967123356E+02  0.51100000000E-03 0. -1.
         11    1    1    0    0    0 -0.28510983285E+01  0.16863917609E+01  0.67654938115E+01  0.75329002133E+01  0.51100000000E-03 0.  1.
         22    1    1    0    0    0  0.23497619711E+02 -0.13892673508E+02 -0.56223683128E+02  0.62499976430E+02  0.00000000000E+00 0. -1.
</event>
<event>
 4    1  0.1964735E-002  0.9118800E+02  0.7818608E-02  0.1130116E+00
         25   -1    0    0    0    0  0.00000000000E+00  0.00000000000E+00  0.99999998245E-14  0.12500000000E+03  0.12500000000E+03 0.  0.
        -11    1    1    0    0    0 -0.12365598050E+01 -0.76251605718E+00 -0.61508916537E+01  0.63201249422E+01  0.51100000000E-03 0.  1.
         11    1    1    0    0    0 -0.38985370852E+02 -0.57314559663E+00 -0.41074409821E+02  0.56632983135E+02  0.51100000000E-03 0. -1.
         22    1    1    0    0    0  0.40221930657E+02  0.13356616538E+01  0.47225301475E+02  0.62046891923E+02  0.00000000000E+00 0. -1.
</event>
<event>
 4    1  0.1964735E-002  0.9118800E+02  0.7818608E-02  0.1130116E+00
         25   -1    0    0    0    0  0.00000000000E+00  0.00000000000E+00  0.99999998245E-14  0.12500000000E+03  0.12500000000E+03 0.  0.
        -11    1    1    0    0    0  0.35881117514E+02  0.13442866627E+02  0.31591272773E+01  0.38446655805E+02  0.51100000000E-03 0. -1.
         11    1    1    0    0    0  0.22442493351E+02  0.84156960845E+01  0.20185348310E+01  0.24053355931E+02  0.51100000000E-03 0.  1.
         22    1    1    0    0    0 -0.58323610865E+02 -0.21858562712E+02 -0.51776621083E+01  0.62499988264E+02  0.00000000000E+00 0.  1.
</event>
<event>
 4    1  0.1964735E-002  0.9118800E+02  0.7818608E-02  0.1130116E+00
         25   -1    0    0    0    0  0.00000000000E+00  0.00000000000E+00  0.99999998245E-14  0.12500000000E+03  0.12500000000E+03 0.  0.
        -11    1    1    0    0    0 -0.16533405059E+02  0.19934454353E+02 -0.13717693345E+02  0.29307184514E+02  0.51100000000E-03 0.  1.
         11    1    1    0    0    0 -0.18725144249E+02  0.22576921671E+02 -0.15537521712E+02  0.33192815495E+02  0.51100000000E-03 0. -1.
         22    1    1    0    0    0  0.35258549309E+02 -0.42511376023E+02  0.29255215057E+02  0.62499999990E+02  0.00000000000E+00 0. -1.
</event>
<event>
 4    1  0.1964735E-002  0.9118800E+02  0.7818608E-02  0.1130116E+00
         25   -1    0    0    0    0  0.00000000000E+00  0.00000000000E+00  0.99999998245E-14  0.12500000000E+03  0.12500000000E+03 0.  0.
        -11    1    1    0    0    0 -0.14935500503E+01 -0.55345490709E+01  0.11985097692E+02  0.13285499318E+02  0.51100000000E-03 0.  1.
         11    1    1    0    0    0  0.48086078070E+01 -0.33867474844E+02  0.35917494303E+02  0.49600352404E+02  0.51100000000E-03 0. -1.
         22    1    1    0    0    0 -0.33150577567E+01  0.39402023914E+02 -0.47902591995E+02  0.62114148278E+02  0.00000000000E+00 0. -1.
</event>
<event>
 4    1  0.1964735E-002  0.9118800E+02  0.7818608E-02  0.1130116E+00
         25   -1    0    0    0    0  0.00000000000E+00  0.00000000000E+00  0.99999998245E-14  0.12500000000E+03  0.12500000000E+03 0.  0.
        -11    1    1    0    0    0  0.45117030671E+02 -0.14612695982E+02  0.41590891117E+00  0.47426261933E+02  0.51100000000E-03 0.  1.
         11    1    1    0    0    0  0.14549359060E+02 -0.11638202383E+01 -0.56141126855E+01  0.15638305155E+02  0.51100000000E-03 0. -1.
         22    1    1    0    0    0 -0.59666389731E+02  0.15776516220E+02  0.51982037744E+01  0.61935432913E+02  0.00000000000E+00 0.  1.
</event>
<event>
 4    1  0.1964735E-002  0.9118800E+02  0.7818608E-02  0.1130116E+00
         25   -1    0    0    0    0  0.00000000000E+00  0.00000000000E+00  0.99999998245E-14  0.12500000000E+03  0.12500000000E+03 0.  0.
        -11    1    1    0    0    0  0.13132879508E+02 -0.37462728056E+02 -0.30176665841E+02  0.49865415662E+02  0.51100000000E-03 0. -1.
         11    1    1    0    0    0 -0.20701323666E+02  0.16967387322E+02 -0.10667783017E+02  0.28813861748E+02  0.51100000000E-03 0.  1.
         22    1    1    0    0    0  0.75684441578E+01  0.20495340735E+02  0.40844448858E+02  0.46320722590E+02  0.00000000000E+00 0. -1.
</event>
<event>
 4    1  0.1964735E-002  0.9118800E+02  0.7818608E-02  0.1130116E+00
         25   -1    0    0    0    0  0.00000000000E+00  0.00000000000E+00  0.99999998245E-14  0.12500000000E+03  0.12500000000E+03 0.  0.
        -11    1    1    0    0    0 -0.15922498798E+02 -0.19889923992E+02 -0.18567138392E+02  0.31525762048E+02  0.51100000000E-03 0. -1.
         11    1    1    0    0    0 -0.15600094901E+02 -0.19561551853E+02 -0.18258882655E+02  0.30974248464E+02  0.51100000000E-03 0.  1.
         22    1    1    0    0    0  0.31522593699E+02  0.39451475845E+02  0.36826021047E+02  0.62499989488E+02  0.00000000000E+00 0.  1.
</event>
<event>
 4    1  0.1964735E-002  0.9118800E+02  0.7818608E-02  0.1130116E+00
         25   -1    0    0    0    0  0.00000000000E+00  0.00000000000E+00  0.99999998245E-14  0.12500000000E+03  0.12500000000E+03 0.  0.
        -11    1    1    0    0    0 -0.27238527657E+02 -0.27437639378E+02  0.39869271233E+01  0.38867171645E+02  0.51100000000E-03 0.  1.
         11    1    1    0    0    0 -0.16562069560E+02 -0.16683587083E+02  0.24220552083E+01  0.23632828391E+02  0.51100000000E-03 0. -1.
         22    1    1    0    0    0  0.43800597217E+02  0.44121226461E+02 -0.64089823316E+01  0.62499999964E+02  0.00000000000E+00 0.  1.
</event>
<event>
 4    1  0.1964735E-002  0.9118800E+02  0.7818608E-02  0.1130116E+00
         25   -1    0    0    0    0  0.00000000000E+00  0.00000000000E+00  0.99999998245E-14  0.12500000000E+03  0.12500000000E+03 0.  0.
        -11    1    1    0    0    0 -0.37196016513E+02 -0.12867351723E+02 -0.48441808959E+01  0.39655749566E+02  0.51100000000E-03 0. -1.
         11    1    1    0    0    0 -0.10695490383E+02 -0.14999991730E+02 -0.17678156723E+02  0.25532537904E+02  0.51100000000E-03 0.  1.
         22    1    1    0    0    0  0.47891506896E+02  0.27867343454E+02  0.22522337619E+02  0.59811712530E+02  0.00000000000E+00 0. -1.
</event>
<event>
 4    1  0.1964735E-002  0.9118800E+02  0.7818608E-02  0.1130116E+00
         25   -1    0    0    0    0  0.00000000000E+00  0.00000000000E+00  0.99999998245E-14  0.12500000000E+03  0.12500000000E+03 0.  0.
        -11    1    1    0    0    0 -0.46308782588E+01  0.13108640784E+02  0.74285573228E+00  0.13922403943E+02  0.51100000000E-03 0. -1.
         11    1    1    0    0    0 -0.15014284956E+02  0.46189675961E+02  0.11290154054E+01  0.48581782534E+02  0.51100000000E-03 0.  1.
         22    1    1    0    0    0  0.19645163214E+02 -0.59298316744E+02 -0.18718711377E+01  0.62495813524E+02  0.00000000000E+00 0.  1.
</event>
<event>
 4    1  0.1964735E-002  0.9118800E+02  0.7818608E-02  0.1130116E+00
         25   -1    0    0    0    0  0.00000000000E+00  0.00000000000E+00  0.99999998245E-14  0.12500000000E+03  0.12500000000E+03 0.  0.
        -11    1    1    0    0    0 -0.21797537795E+02  0.21200077533E+01  0.34309726197E+02  0.40703616532E+02  0.51100000000E-03 0.  1.
         11    1    1    0    0    0 -0.11672877424E+02  0.11377550828E+01  0.18372038005E+02  0.21796383524E+02  0.51100000000E-03 0. -1.
         22    1    1    0    0    0  0.33470415219E+02 -0.32577628361E+01 -0.52681764202E+02  0.62499999945E+02  0.00000000000E+00 0.  1.
</event>
<event>
 4    1  0.1964735E-002  0.9118800E+02  0.7818608E-02  0.1130116E+00
         25   -1    0    0    0    0  0.00000000000E+00  0.00000000000E+00  0.99999998245E-14  0.12500000000E+03  0.12500000000E+03 0.  0.
        -11    1    1    0    0    0 -0.43058987763E+02 -0.23132454674E+02 -0.19939435030E+02  0.52789847091E+02  0.51100000000E-03 0.  1.
         11    1    1    0    0    0  0.66778411242E+01  0.44766025635E+01 -0.15914974555E+02  0.17830309811E+02  0.51100000000E-03 0. -1.
         22    1    1    0    0    0  0.36381146638E+02  0.18655852110E+02  0.35854409585E+02  0.54379843098E+02  0.00000000000E+00 0.  1.
</event>
<event>
 4    1  0.1964735E-002  0.9118800E+02  0.7818608E-02  0.1130116E+00
         25   -1    0    0    0    0  0.00000000000E+00  0.00000000000E+00  0.99999998245E-14  0.12500000000E+03  0.12500000000E+03 0.  0.
        -11    1    1    0    0    0  0.29592953553E+02  0.15776064616E+02  0.52573560695E+02  0.62358691448E+02  0.51100000000E-03 0.  1.
         11    1    1    0    0    0 -0.21662833774E+01 -0.33119736163E-01 -0.56973638685E+01  0.60953946467E+01  0.51100000000E-03 0. -1.
         22    1    1    0    0    0 -0.27426670176E+02 -0.15742944880E+02 -0.46876196826E+02  0.56545913905E+02  0.00000000000E+00 0.  1.
</event>
<event>
 4    1  0.1964735E-002  0.9118800E+02  0.7818608E-02  0.1130116E+00
         25   -1    0    0    0    0  0.00000000000E+00  0.00000000000E+00  0.99999998245E-14  0.12500000000E+03  0.12500000000E+03 0.  0.
        -11    1    1    0    0    0  0.26456666839E+02 -0.33700859418E+02  0.78122225946E+01  0.43551509364E+02  0.51100000000E-03 0.  1.
         11    1    1    0    0    0  0.11514519615E+02 -0.14655846135E+02  0.34157617979E+01  0.18948493787E+02  0.51100000000E-03 0. -1.
         22    1    1    0    0    0 -0.37971186454E+02  0.48356705552E+02 -0.11227984393E+02  0.62499996849E+02  0.00000000000E+00 0. -1.
</event>
<event>
 4    1  0.1964735E-002  0.9118800E+02  0.7818608E-02  0.1130116E+00
         25   -1    0    0    0    0  0.00000000000E+00  0.00000000000E+00  0.99999998245E-14  0.12500000000E+03  0.12500000000E+03 0.  0.
        -11    1    1    0    0    0  0.12495606066E+02  0.35314419784E+02  0.23828349339E+02  0.44396381025E+02  0.51100000000E-03 0.  1.
         11    1    1    0    0    0  0.17765963100E+02  0.11356109128E+02 -0.34521731390E+01  0.21366051555E+02  0.51100000000E-03 0. -1.
         22    1    1    0    0    0 -0.30261569166E+02 -0.46670528912E+02 -0.20376176200E+02  0.59237567420E+02  0.00000000000E+00 0. -1.
</event>
<event>
 4    1  0.1964735E-002  0.9118800E+02  0.7818608E-02  0.1130116E+00
         25   -1    0    0    0    0  0.00000000000E+00  0.00000000000E+00  0.99999998245E-14  0.12500000000E+03  0.12500000000E+03 0.  0.
        -11    1    1    0    0    0 -0.66144961240E+01  0.10102925782E+02 -0.30846437089E+01  0.12463374158E+02  0.51100000000E-03 0. -1.
         11    1    1    0    0    0 -0.26376252470E+02  0.40270619462E+02 -0.13653080341E+02  0.50038346188E+02  0.51100000000E-03 0.  1.
         22    1    1    0    0    0  0.32990748594E+02 -0.50373545244E+02  0.16737724050E+02  0.62498279653E+02  0.00000000000E+00 0.  1.
</event>
<event>
 4    1  0.1964735E-002  0.9118800E+02  0.7818608E-02  0.1130116E+00
         25   -1    0    0    0    0  0.00000000000E+00  0.00000000000E+00  0.99999998245E-14  0.12500000000E+03  0.12500000000E+03 0.  0.
        -11    1    1    0    0    0  0.32215352890E+01  0.35740453622E+02 -0.46278327411E+02  0.58561436996E+02  0.51100000000E-03 0.  1.
         11    1    1    0    0    0  0.23434995242E+00  0.24522297409E+01 -0.30734167302E+01  0.39388121637E+01  0.51100000000E-03 0. -1.
         22    1    1    0    0    0 -0.34558852414E+01 -0.38192683363E+02  0.49351744142E+02  0.62499750840E+02  0.00000000000E+00 0.  1.
</event>
<event>
 4    1  0.1964735E-002  0.9118800E+02  0.7818608E-02  0.1130116E+00
         25   -1    0    0    0    0  0.00000000000E+00  0.00000000000E+00  0.99999998245E-14  0.12500000000E+03  0.12500000000E+03 0.  0.
        -11    1    1    0    0    0  0.43951347078E+02 -0.17298786249E+02  0.80850468437E+01  0.47920109541E+02  0.51100000000E-03 0. -1.
         11    1    1    0    0    0  0.13372724719E+02 -0.52625960002E+01  0.24593745031E+01  0.14579890475E+02  0.51100000000E-03 0. -1.
         22    1    1    0    0    0 -0.57324071797E+02  0.22561382249E+02 -0.10544421347E+02  0.62499999984E+02  0.00000000000E+00 0. -1.
</event>
<event>
 4    1  0.1964735E-002  0.9118800E+02  0.7818608E-02  0.1130116E+00
         25   -1    0    0    0    0  0.00000000000E+00  0.00000000000E+00  0.99999998245E-14  0.12500000000E+03  0.12500000000E+03 0.  0.
        -11    1    1    0    0    0  0.33761991371E+02 -0.81282659279E+01  0.41117548325E+02  0.53820010673E+02  0.51100000000E-03 0.  1.
         11    1    1    0    0    0 -0.39656184402E+01 -0.11877536139E+01  0.10258641683E+02  0.11062396563E+02  0.51100000000E-03 0. -1.
         22    1    1    0    0    0 -0.29796372931E+02  0.93160195418E+01 -0.51376190009E+02  0.60117592764E+02  0.00000000000E+00 0.  1.
</event>
<event>
 4    1  0.1964735E-002  0.9118800E+02  0.7818608E-02  0.1130116E+00
         25   -1    0    0    0    0  0.00000000000E+00  0.00000000000E+00  0.99999998245E-14  0.12500000000E+03  0.12500000000E+03 0.  0.
        -11    1    1    0    0    0 -0.27014925426E+02  0.18317644765E+02 -0.13193033915E+02  0.35205091246E+02  0.51100000000E-03 0. -1.
         11    1    1    0    0    0 -0.20945613338E+02  0.14198925578E+02 -0.10231512252E+02  0.27294908846E+02  0.51100000000E-03 0.  1.
         22    1    1    0    0    0  0.47960538764E+02 -0.32516570343E+02  0.23424546167E+02  0.62499999908E+02  0.00000000000E+00 0. -1.
</event>
<event>
 4    1  0.1964735E-002  0.9118800E+02  0.7818608E-02  0.1130116E+00
         25   -1    0    0    0    0  0.00000000000E+00  0.00000000000E+00  0.99999998245E-14  0.12500000000E+03  0.12500000000E+03 0.  0.
        -11    1    1    0    0    0  0.23481610109E+02  0.46183588807E+02  0.27547490312E+02  0.58678566029E+02  0.51100000000E-03 0. -1.
         11    1    1    0    0    0  0.15287329668E+01  0.30082133267E+01  0.17935958026E+01  0.38214340328E+01  0.51100000000E-03 0.  1.
         22    1    1    0    0    0 -0.25010343076E+02 -0.49191802134E+02 -0.29341086115E+02  0.62499999939E+02  0.00000000000E+00 0. -1.
</event>
<event>
 4    1  0.1964735E-002  0.9118800E+02  0.7818608E-02  0.1130116E+00
         25   -1    0    0    0    0  0.00000000000E+00  0.00000000000E+00  0.99999998245E-14  0.12500000000E+03  0.12500000000E+03 0.  0.
        -11    1    1    0    0    0 -0.81517685878E+00  0.13225730546E+02 -0.70113452809E+01  0.14991445050E+02  0.51100000000E-03 0. -1.
         11    1    1    0    0    0  0.24742029298E+02  0.29941472352E+02 -0.29368503982E+02  0.48694648647E+02  0.51100000000E-03 0.  1.
         22    1    1    0    0    0 -0.23926852440E+02 -0.43167202899E+02  0.36379849263E+02  0.61313906303E+02  0.00000000000E+00 0.  1.
</event>
<event>
 4    1  0.1964735E-002  0.9118800E+02  0.7818608E-02  0.1130116E+00
         25   -1    0    0    0    0  0.00000000000E+00  0.00000000000E+00  0.99999998245E-14  0.12500000000E+03  0.12500000000E+03 0.  0.
        -11    1    1    0    0    0  0.84500009739E+00  0.36050988468E+01  0.82039403024E+01  0.90008554931E+01  0.51100000000E-03 0.  1.
         11    1    1    0    0    0  0.50029455705E+01  0.21439511171E+02  0.48759372410E+02  0.53499144869E+02  0.51100000000E-03 0.  1.
         22    1    1    0    0    0 -0.58479456679E+01 -0.25044610018E+02 -0.56963312713E+02  0.62499999638E+02  0.00000000000E+00 0.  1.
</event>
<event>
 4    1  0.1964735E-002  0.9118800E+02  0.7818608E-02  0.1130116E+00
         25   -1    0    0    0    0  0.00000000000E+00  0.00000000000E+00  0.99999998245E-14  0.12500000000E+03  0.12500000000E+03 0.  0.
        -11    1    1    0    0    0 -0.44032456825E+02 -0.10078352865E+02 -0.38666566861E+02  0.59460355226E+02  0.51100000000E-03 0.  1.
         11    1    1    0    0    0  0.66883649708E+01  0.40998777108E+01 -0.37634940798E+01  0.87009833454E+01  0.51100000000E-03 0. -1.
         22    1    1    0    0    0  0.37344091854E+02  0.59784751540E+01  0.42430060941E+02  0.56838661429E+02  0.00000000000E+00 0.  1.
</event>
<event>
 4    1  0.1964735E-002  0.9118800E+02  0.7818608E-02  0.1130116E+00
         25   -1    0    0    0    0  0.00000000000E+00  0.00000000000E+00  0.99999998245E-14  0.12500000000E+03  0.12500000000E+03 0.  0.
        -11    1    1    0    0    0 -0.31982037166E+02 -0.20547219023E+02 -0.19874270662E+02  0.42895518944E+02  0.51100000000E-03 0.  1.
         11    1    1    0    0    0 -0.14610745948E+02 -0.93954324647E+01 -0.90877751132E+01  0.19604481761E+02  0.51100000000E-03 0.  1.
         22    1    1    0    0    0  0.46592783114E+02  0.29942651487E+02  0.28962045775E+02  0.62499999295E+02  0.00000000000E+00 0.  1.
</event>
<event>
 4    1  0.1964735E-002  0.9118800E+02  0.7818608E-02  0.1130116E+00
         25   -1    0    0    0    0  0.00000000000E+00  0.00000000000E+00  0.99999998245E-14  0.12500000000E+03  0.12500000000E+03 0.  0.
        -11    1    1    0    0    0 -0.29524454159E+01  0.38919596685E+01  0.42649015453E+00  0.49036902541E+01  0.51100000000E-03 0. -1.
         11    1    1    0    0    0 -0.34639394813E+02  0.45739598232E+02  0.50335362637E+01  0.57596310707E+02  0.51100000000E-03 0.  1.
         22    1    1    0    0    0  0.37591840229E+02 -0.49631557900E+02 -0.54600264182E+01  0.62499999039E+02  0.00000000000E+00 0.  1.
</event>
<event>
 4    1  0.1964735E-002  0.9118800E+02  0.7818608E-02  0.1130116E+00
         25   -1    0    0    0    0  0.00000000000E+00  0.00000000000E+00  0.99999998245E-14  0.12500000000E+03  0.12500000000E+03 0.  0.
        -11    1    1    0    0    0 -0.74500620615E+01 -0.77462288047E+00  0.31257769636E+01  0.81162766842E+01  0.51100000000E-03 0.  1.
         11    1    1    0    0    0 -0.49809127202E+02 -0.56401941980E+01  0.21091319256E+02  0.54383864256E+02  0.51100000000E-03 0. -1.
         22    1    1    0    0    0  0.57259189263E+02  0.64148170785E+01 -0.24217096220E+02  0.62499859060E+02  0.00000000000E+00 0. -1.
</event>
<event>
 4    1  0.1964735E-002  0.9118800E+02  0.7818608E-02  0.1130116E+00
         25   -1    0    0    0    0  0.00000000000E+00  0.00000000000E+00  0.99999998245E-14  0.12500000000E+03  0.12500000000E+03 0.  0.
        -11    1    1    0    0    0  0.34822344503E+01  0.15321359664E+02  0.24646518677E+02  0.29228768395E+02  0.51100000000E-03 0.  1.
         11    1    1    0    0    0  0.39651878662E+01  0.17441210806E+02  0.28054523772E+02  0.33271231620E+02  0.51100000000E-03 0. -1.
         22    1    1    0    0    0 -0.74474223165E+01 -0.32762570470E+02 -0.52701042449E+02  0.62499999985E+02  0.00000000000E+00 0.  1.
</event>
<event>
 4    1  0.1964735E-002  0.9118800E+02  0.7818608E-02  0.1130116E+00
         25   -1    0    0    0    0  0.00000000000E+00  0.00000000000E+00  0.99999998245E-14  0.12500000000E+03  0.12500000000E+03 0.  0.
        -11    1    1    0    0    0 -0.12582803889E+02 -0.43662360554E+01 -0.33041651945E+02  0.35625015573E+02  0.51100000000E-03 0. -1.
         11    1    1    0    0    0 -0.94928705093E+01 -0.32905892743E+01 -0.24926335927E+02  0.26874984489E+02  0.51100000000E-03 0.  1.
         22    1    1    0    0    0  0.22075674398E+02  0.76568253297E+01  0.57967987873E+02  0.62499999938E+02  0.00000000000E+00 0.  1.
</event>
<event>
 4    1  0.1964735E-002  0.9118800E+02  0.7818608E-02  0.1130116E+00
         25   -1    0    0    0    0  0.00000000000E+00  0.00000000000E+00  0.99999998245E-14  0.12500000000E+03  0.12500000000E+03 0.  0.
        -11    1    1    0    0    0  0.34188938685E+02  0.17107273608E+01 -0.45876959479E+02  0.57240768057E+02  0.51100000000E-03 0.  1.
         11    1    1    0    0    0  0.62909958882E+01  0.12555111887E+01 -0.11815775231E+00  0.64161436336E+01  0.51100000000E-03 0. -1.
         22    1    1    0    0    0 -0.40479934573E+02 -0.29662385495E+01  0.45995117231E+02  0.61343088309E+02  0.00000000000E+00 0.  1.
</event>
<event>
 4    1  0.1964735E-002  0.9118800E+02  0.7818608E-02  0.1130116E+00
         25   -1    0    0    0    0  0.00000000000E+00  0.00000000000E+00  0.99999998245E-14  0.12500000000E+03  0.12500000000E+03 0.  0.
        -11    1    1    0    0    0 -0.11281906133E+02  0.21491911779E+02  0.10995747177E+02  0.26647516472E+02  0.51100000000E-03 0. -1.
         11    1    1    0    0    0 -0.15172809177E+02  0.28917751522E+02  0.14796962343E+02  0.35852483683E+02  0.51100000000E-03 0.  1.
         22    1    1    0    0    0  0.26454715310E+02 -0.50409663300E+02 -0.25792709520E+02  0.62499999845E+02  0.00000000000E+00 0.  1.
</event>
<event>
 4    1  0.1964735E-002  0.9118800E+02  0.7818608E-02  0.1130116E+00
         25   -1    0    0    0    0  0.00000000000E+00  0.00000000000E+00  0.99999998245E-14  0.12500000000E+03  0.12500000000E+03 0.  0.
        -11    1    1    0    0    0 -0.26702146754E+02  0.27878313414E+02 -0.41242333938E+02  0.56490132846E+02  0.51100000000E-03 0. -1.
         11    1    1    0    0    0 -0.28351071908E+01  0.29709413709E+01 -0.43879612237E+01  0.60098693309E+01  0.51100000000E-03 0.  1.
         22    1    1    0    0    0  0.29537253945E+02 -0.30849254785E+02  0.45630295161E+02  0.62499997823E+02  0.00000000000E+00 0. -1.
</event>
<event>
 4    1  0.1964735E-002  0.9118800E+02  0.7818608E-02  0.1130116E+00
         25   -1    0    0    0    0  0.00000000000E+00  0.00000000000E+00  0.99999998245E-14  0.12500000000E+03  0.12500000000E+03 0.  0.
        -11    1    1    0    0    0 -0.27661087952E+02  0.11562817954E+02 -0.19616111547E+02  0.35827731972E+02  0.51100000000E-03 0.  1.
         11    1    1    0    0    0 -0.19520802551E+02  0.65074919696E+01 -0.17068665509E+02  0.26734781213E+02  0.51100000000E-03 0. -1.
         22    1    1    0    0    0  0.47181890503E+02 -0.18070309923E+02  0.36684777056E+02  0.62437486816E+02  0.00000000000E+00 0. -1.
</event>
<event>
 4    1  0.1964735E-002  0.9118800E+02  0.7818608E-02  0.1130116E+00
         25   -1    0    0    0    0  0.00000000000E+00  0.00000000000E+00  0.99999998245E-14  0.12500000000E+03  0.12500000000E+03 0.  0.
        -11    1    1    0    0    0  0.38779938266E+02 -0.21705240630E+01 -0.15105309485E+02  0.41674514532E+02  0.51100000000E-03 0.  1.
         11    1    1    0    0    0  0.18135134726E+02 -0.74512076627E+01 -0.79662227237E+01  0.21162804916E+02  0.51100000000E-03 0. -1.
         22    1    1    0    0    0 -0.56915072991E+02  0.96217317256E+01  0.23071532208E+02  0.62162680552E+02  0.00000000000E+00 0.  1.
</event>
<event>
 4    1  0.1964735E-002  0.9118800E+02  0.7818608E-02  0.1130116E+00
         25   -1    0    0    0    0  0.00000000000E+00  0.00000000000E+00  0.99999998245E-14  0.12500000000E+03  0.12500000000E+03 0.  0.
        -11    1    1    0    0    0  0.50816135847E+02 -0.20036327733E+02 -0.10047786464E+02  0.55540004542E+02  0.51100000000E-03 0.  1.
         11    1    1    0    0    0  0.63677237451E+01 -0.25118988917E+01 -0.12585688702E+01  0.69599955171E+01  0.51100000000E-03 0. -1.
         22    1    1    0    0    0 -0.57183859592E+02  0.22548226624E+02  0.11306355334E+02  0.62499999941E+02  0.00000000000E+00 0.  1.
</event>
<event>
 4    1  0.1964735E-002  0.9118800E+02  0.7818608E-02  0.1130116E+00
         25   -1    0    0    0    0  0.00000000000E+00  0.00000000000E+00  0.99999998245E-14  0.12500000000E+03  0.12500000000E+03 0.  0.
        -11    1    1    0    0    0 -0.13648589631E+02  0.17445025646E+02 -0.76353892269E+01  0.23428872948E+02  0.51100000000E-03 0.  1.
         11    1    1    0    0    0 -0.22760426911E+02  0.29092630818E+02 -0.12733215157E+02  0.39071127058E+02  0.51100000000E-03 0.  1.
         22    1    1    0    0    0  0.36409016542E+02 -0.46537656464E+02  0.20368604384E+02  0.62499999994E+02  0.00000000000E+00 0.  1.
</event>
<event>
 4    1  0.1964735E-002  0.9118800E+02  0.7818608E-02  0.1130116E+00
         25   -1    0    0    0    0  0.00000000000E+00  0.00000000000E+00  0.99999998245E-14  0.12500000000E+03  0.12500000000E+03 0.  0.
        -11    1    1    0    0    0  0.79090429350E+01 -0.12240560582E+01 -0.38538502875E+00  0.80124774735E+01  0.51100000000E-03 0.  1.
         11    1    1    0    0    0  0.53784790869E+02 -0.83196239530E+01 -0.26211145710E+01  0.54487522547E+02  0.51100000000E-03 0.  1.
         22    1    1    0    0    0 -0.61693833804E+02  0.95436800113E+01  0.30064995997E+01  0.62499999979E+02  0.00000000000E+00 0.  1.
</event>
<event>
 4    1  0.1964735E-002  0.9118800E+02  0.7818608E-02  0.1130116E+00
         25   -1    0    0    0    0  0.00000000000E+00  0.00000000000E+00  0.99999998245E-14  0.12500000000E+03  0.12500000000E+03 0.  0.
        -11    1    1    0    0    0 -0.96100241301E+01 -0.26701111025E+02 -0.53443242487E+02  0.60510181470E+02  0.51100000000E-03 0.  1.
         11    1    1    0    0    0 -0.24867461087E+00 -0.11800873213E+01 -0.16010137808E+01  0.20044177547E+01  0.51100000000E-03 0. -1.
         22    1    1    0    0    0  0.98586987410E+01  0.27881198346E+02  0.55044256267E+02  0.62485400776E+02  0.00000000000E+00 0.  1.
</event>
<event>
 4    1  0.1964735E-002  0.9118800E+02  0.7818608E-02  0.1130116E+00
         25   -1    0    0    0    0  0.00000000000E+00  0.00000000000E+00  0.99999998245E-14  0.12500000000E+03  0.12500000000E+03 0.  0.
        -11    1    1    0    0    0  0.32888441044E+02  0.35303481117E+02  0.13205956423E+02  0.50023820512E+02  0.51100000000E-03 0.  1.
         11    1    1    0    0    0  0.82041332461E+01  0.88065180259E+01  0.32851975653E+01  0.12476180720E+02  0.51100000000E-03 0. -1.
         22    1    1    0    0    0 -0.41092574290E+02 -0.44109999143E+02 -0.16491153988E+02  0.62499998768E+02  0.00000000000E+00 0.  1.
</event>
<event>
 4    1  0.1964735E-002  0.9118800E+02  0.7818608E-02  0.1130116E+00
         25   -1    0    0    0    0  0.00000000000E+00  0.00000000000E+00  0.99999998245E-14  0.12500000000E+03  0.12500000000E+03 0.  0.
        -11    1    1    0    0    0 -0.10661126160E+02  0.14833117221E+02 -0.60586256200E+01  0.19245464976E+02  0.51100000000E-03 0. -1.
         11    1    1    0    0    0 -0.11231167475E+02 -0.25202113093E+02 -0.42971436549E+02  0.51066916752E+02  0.51100000000E-03 0.  1.
         22    1    1    0    0    0  0.21892293635E+02  0.10368995872E+02  0.49030062169E+02  0.54687618272E+02  0.00000000000E+00 0. -1.
</event>
<event>
 4    1  0.1964735E-002  0.9118800E+02  0.7818608E-02  0.1130116E+00
         25   -1    0    0    0    0  0.00000000000E+00  0.00000000000E+00  0.99999998245E-14  0.12500000000E+03  0.12500000000E+03 0.  0.
        -11    1    1    0    0    0  0.30405810355E+02 -0.32476040541E+02 -0.25247150157E+02  0.51152957919E+02  0.51100000000E-03 0.  1.
         11    1    1    0    0    0  0.68325633131E+01 -0.71056056904E+01 -0.56204171904E+01  0.11347362835E+02  0.51100000000E-03 0. -1.
         22    1    1    0    0    0 -0.37238373668E+02  0.39581646232E+02  0.30867567347E+02  0.62499679246E+02  0.00000000000E+00 0.  1.
</event>
<event>
 4    1  0.1964735E-002  0.9118800E+02  0.7818608E-02  0.1130116E+00
         25   -1    0    0    0    0  0.00000000000E+00  0.00000000000E+00  0.99999998245E-14  0.12500000000E+03  0.12500000000E+03 0.  0.
        -11    1    1    0    0    0  0.13006885847E+02 -0.25002516015E+02 -0.50377585219E+02  0.57725262921E+02  0.51100000000E-03 0. -1.
         11    1    1    0    0    0  0.99043478989E+00 -0.20445617825E+01 -0.42001253933E+01  0.47751698960E+01  0.51100000000E-03 0.  1.
         22    1    1    0    0    0 -0.13997320637E+02  0.27047077797E+02  0.54577710612E+02  0.62499567183E+02  0.00000000000E+00 0. -1.
</event>
<event>
 4    1  0.1964735E-002  0.9118800E+02  0.7818608E-02  0.1130116E+00
         25   -1    0    0    0    0  0.00000000000E+00  0.00000000000E+00  0.99999998245E-14  0.12500000000E+03  0.12500000000E+03 0.  0.
        -11    1    1    0    0    0 -0.35784709936E+01 -0.87628272025E+01 -0.48856970469E+01  0.10651883924E+02  0.51100000000E-03 0. -1.
         11    1    1    0    0    0 -0.24312606597E+02 -0.37930152835E+02 -0.25782236573E+02  0.51908795561E+02  0.51100000000E-03 0.  1.
         22    1    1    0    0    0  0.27891077590E+02  0.46692980037E+02  0.30667933620E+02  0.62439320515E+02  0.00000000000E+00 0.  1.
</event>
<event>
 4    1  0.1964735E-002  0.9118800E+02  0.7818608E-02  0.1130116E+00
         25   -1    0    0    0    0  0.00000000000E+00  0.00000000000E+00  0.99999998245E-14  0.12500000000E+03  0.12500000000E+03 0.  0.
        -11    1    1    0    0    0 -0.22847040511E+02  0.44985380469E+02 -0.43928193704E+01  0.50645518838E+02  0.51100000000E-03 0. -1.
         11    1    1    0    0    0 -0.53424490948E+01  0.10534113956E+02 -0.10097337955E+01  0.11854487833E+02  0.51100000000E-03 0.  1.
         22    1    1    0    0    0  0.28189489606E+02 -0.55519494425E+02  0.54025531659E+01  0.62499993330E+02  0.00000000000E+00 0. -1.
</event>
<event>
 4    1  0.1964735E-002  0.9118800E+02  0.7818608E-02  0.1130116E+00
         25   -1    0    0    0    0  0.00000000000E+00  0.00000000000E+00  0.99999998245E-14  0.12500000000E+03  0.12500000000E+03 0.  0.
        -11    1    1    0    0    0  0.55796497575E+02 -0.53834277938E+01  0.62723621193E+01  0.56405433810E+02  0.51100000000E-03 0. -1.
         11    1    1    0    0    0  0.60212157304E+01 -0.66789748233E+00  0.66785880311E+00  0.60948471319E+01  0.51100000000E-03 0.  1.
         22    1    1    0    0    0 -0.61817713305E+02  0.60513252761E+01 -0.69402209224E+01  0.62499719058E+02  0.00000000000E+00 0. -1.
</event>
<event>
 4    1  0.1964735E-002  0.9118800E+02  0.7818608E-02  0.1130116E+00
         25   -1    0    0    0    0  0.00000000000E+00  0.00000000000E+00  0.99999998245E-14  0.12500000000E+03  0.12500000000E+03 0.  0.
        -11    1    1    0    0    0  0.12651488079E+01  0.11538555891E+02  0.32519852098E+00  0.11612261963E+02  0.51100000000E-03 0. -1.
         11    1    1    0    0    0  0.53330421124E+02 -0.17197441203E+02  0.11591280927E+02  0.57221006588E+02  0.51100000000E-03 0.  1.
         22    1    1    0    0    0 -0.54595569932E+02  0.56588853120E+01 -0.11916479448E+02  0.56166731448E+02  0.00000000000E+00 0.  1.
</event>
<event>
 4    1  0.1964735E-002  0.9118800E+02  0.7818608E-02  0.1130116E+00
         25   -1    0    0    0    0  0.00000000000E+00  0.00000000000E+00  0.99999998245E-14  0.12500000000E+03  0.12500000000E+03 0.  0.
        -11    1    1    0    0    0 -0.52302976198E+01 -0.37140587027E+01 -0.10128894803E+02  0.11989360092E+02  0.51100000000E-03 0.  1.
         11    1    1    0    0    0 -0.48851991641E+01 -0.18101944047E+02 -0.47229683896E+02  0.50815239745E+02  0.51100000000E-03 0. -1.
         22    1    1    0    0    0  0.10115496784E+02  0.21816002749E+02  0.57358578698E+02  0.62195400163E+02  0.00000000000E+00 0. -1.
</event>
<event>
 4    1  0.1964735E-002  0.9118800E+02  0.7818608E-02  0.1130116E+00
         25   -1    0    0    0    0  0.00000000000E+00  0.00000000000E+00  0.99999998245E-14  0.12500000000E+03  0.12500000000E+03 0.  0.
        -11    1    1    0    0    0 -0.43338131331E+01  0.39672114023E+01  0.87266363888E+00  0.59398859139E+01  0.51100000000E-03 0. -1.
         11    1    1    0    0    0 -0.49519566418E+02 -0.41393308924E+01 -0.29786131550E+02  0.57935612118E+02  0.51100000000E-03 0.  1.
         22    1    1    0    0    0  0.53853379551E+02  0.17211949016E+00  0.28913467911E+02  0.61124501968E+02  0.00000000000E+00 0.  1.
</event>
<event>
 4    1  0.1964735E-002  0.9118800E+02  0.7818608E-02  0.1130116E+00
         25   -1    0    0    0    0  0.00000000000E+00  0.00000000000E+00  0.99999998245E-14  0.12500000000E+03  0.12500000000E+03 0.  0.
        -11    1    1    0    0    0 -0.99767306003E+01 -0.80725627153E+01 -0.15567778961E+02  0.20175657717E+02  0.51100000000E-03 0.  1.
         11    1    1    0    0    0 -0.25504327651E+02 -0.19224188717E+02 -0.27913701280E+02  0.42417153136E+02  0.51100000000E-03 0. -1.
         22    1    1    0    0    0  0.35481058251E+02  0.27296751433E+02  0.43481480241E+02  0.62407189148E+02  0.00000000000E+00 0. -1.
</event>
<event>
 4    1  0.1964735E-002  0.9118800E+02  0.7818608E-02  0.1130116E+00
         25   -1    0    0    0    0  0.00000000000E+00  0.00000000000E+00  0.99999998245E-14  0.12500000000E+03  0.12500000000E+03 0.  0.
        -11    1    1    0    0    0 -0.22539467153E+02  0.17377365605E+02  0.44938593875E+02  0.53192834429E+02  0.51100000000E-03 0.  1.
         11    1    1    0    0    0 -0.41789739397E+01  0.38894588789E+01  0.73798020815E+01  0.93302300391E+01  0.51100000000E-03 0. -1.
         22    1    1    0    0    0  0.26718441093E+02 -0.21266824484E+02 -0.52318395956E+02  0.62476935532E+02  0.00000000000E+00 0.  1.
</event>
<event>
 4    1  0.1964735E-002  0.9118800E+02  0.7818608E-02  0.1130116E+00
         25   -1    0    0    0    0  0.00000000000E+00  0.00000000000E+00  0.99999998245E-14  0.12500000000E+03  0.12500000000E+03 0.  0.
        -11    1    1    0    0    0  0.11826747078E+02  0.25858992759E+02 -0.14957608761E+02  0.32129262566E+02  0.51100000000E-03 0. -1.
         11    1    1    0    0    0  0.11180930571E+02  0.24443433083E+02 -0.14138142158E+02  0.30370737450E+02  0.51100000000E-03 0.  1.
         22    1    1    0    0    0 -0.23007677649E+02 -0.50302425842E+02  0.29095750919E+02  0.62499999983E+02  0.00000000000E+00 0. -1.
</event>
<event>
 4    1  0.1964735E-002  0.9118800E+02  0.7818608E-02  0.1130116E+00
         25   -1    0    0    0    0  0.00000000000E+00  0.00000000000E+00  0.99999998245E-14  0.12500000000E+03  0.12500000000E+03 0.  0.
        -11    1    1    0    0    0  0.34421013319E+02 -0.35812245112E+02 -0.36040205024E+02  0.61369531824E+02  0.51100000000E-03 0. -1.
         11    1    1    0    0    0  0.60585035244E+00 -0.46492465425E+00 -0.85552868933E+00  0.11467951792E+01  0.51100000000E-03 0.  1.
         22    1    1    0    0    0 -0.35026863671E+02  0.36277169767E+02  0.36895733713E+02  0.62483672997E+02  0.00000000000E+00 0. -1.
</event>
<event>
 4    1  0.1964735E-002  0.9118800E+02  0.7818608E-02  0.1130116E+00
         25   -1    0    0    0    0  0.00000000000E+00  0.00000000000E+00  0.99999998245E-14  0.12500000000E+03  0.12500000000E+03 0.  0.
        -11    1    1    0    0    0  0.14320860194E+01 -0.89433923386E+01 -0.61503420985E+02  0.62166759044E+02  0.51100000000E-03 0.  1.
         11    1    1    0    0    0  0.36849621608E-01  0.43549217955E-01 -0.33529160565E+00  0.34011049813E+00  0.51100000000E-03 0. -1.
         22    1    1    0    0    0 -0.14689356410E+01  0.88998431207E+01  0.61838712591E+02  0.62493130458E+02  0.00000000000E+00 0.  1.
</event>
<event>
 4    1  0.1964735E-002  0.9118800E+02  0.7818608E-02  0.1130116E+00
         25   -1    0    0    0    0  0.00000000000E+00  0.00000000000E+00  0.99999998245E-14  0.12500000000E+03  0.12500000000E+03 0.  0.
        -11    1    1    0    0    0 -0.64756067636E+01 -0.11692100894E+02  0.34131412591E+02  0.36655041018E+02  0.51100000000E-03 0. -1.
         11    1    1    0    0    0 -0.45661530595E+01 -0.82475077596E+01  0.24064304914E+02  0.25844959069E+02  0.51100000000E-03 0.  1.
         22    1    1    0    0    0  0.11041759823E+02  0.19939608653E+02 -0.58195717505E+02  0.62499999914E+02  0.00000000000E+00 0. -1.
</event>
<event>
 4    1  0.1964735E-002  0.9118800E+02  0.7818608E-02  0.1130116E+00
         25   -1    0    0    0    0  0.00000000000E+00  0.00000000000E+00  0.99999998245E-14  0.12500000000E+03  0.12500000000E+03 0.  0.
        -11    1    1    0    0    0  0.63788352472E+01  0.25505482419E+00  0.26894270228E+02  0.27641569482E+02  0.51100000000E-03 0. -1.
         11    1    1    0    0    0  0.80445507722E+01  0.32182637735E+00  0.33915952130E+02  0.34858430523E+02  0.51100000000E-03 0. -1.
         22    1    1    0    0    0 -0.14423386019E+02 -0.57688120154E+00 -0.60810222358E+02  0.62499999995E+02  0.00000000000E+00 0. -1.
</event>
<event>
 4    1  0.1964735E-002  0.9118800E+02  0.7818608E-02  0.1130116E+00
         25   -1    0    0    0    0  0.00000000000E+00  0.00000000000E+00  0.99999998245E-14  0.12500000000E+03  0.12500000000E+03 0.  0.
        -11    1    1    0    0    0  0.43874225879E+01 -0.12078011865E+02  0.96569326015E+01  0.16074333427E+02  0.51100000000E-03 0.  1.
         11    1    1    0    0    0  0.12680587264E+02 -0.34902062605E+02  0.27863800873E+02  0.46425668189E+02  0.51100000000E-03 0. -1.
         22    1    1    0    0    0 -0.17068009852E+02  0.46980074470E+02 -0.37520733475E+02  0.62499998384E+02  0.00000000000E+00 0. -1.
</event>
<event>
 4    1  0.1964735E-002  0.9118800E+02  0.7818608E-02  0.1130116E+00
         25   -1    0    0    0    0  0.00000000000E+00  0.00000000000E+00  0.99999998245E-14  0.12500000000E+03  0.12500000000E+03 0.  0.
        -11    1    1    0    0    0  0.19987442218E+02 -0.12105227297E+02  0.37453139621E+01  0.23665623830E+02  0.51100000000E-03 0. -1.
         11    1    1    0    0    0  0.32769573847E+02 -0.19930133963E+02  0.60872979077E+01  0.38834397201E+02  0.51100000000E-03 0.  1.
         22    1    1    0    0    0 -0.52757016064E+02  0.32035361260E+02 -0.98326118698E+01  0.62499978970E+02  0.00000000000E+00 0.  1.
</event>
<event>
 4    1  0.1964735E-002  0.9118800E+02  0.7818608E-02  0.1130116E+00
         25   -1    0    0    0    0  0.00000000000E+00  0.00000000000E+00  0.99999998245E-14  0.12500000000E+03  0.12500000000E+03 0.  0.
        -11    1    1    0    0    0 -0.19233721764E+02 -0.54397819685E+01  0.10523438787E+02  0.22589157685E+02  0.51100000000E-03 0. -1.
         11    1    1    0    0    0 -0.34228301467E+02 -0.82286554674E+01  0.18813639967E+02  0.39915416084E+02  0.51100000000E-03 0.  1.
         22    1    1    0    0    0  0.53462023231E+02  0.13668437436E+02 -0.29337078754E+02  0.62495426230E+02  0.00000000000E+00 0.  1.
</event>
<event>
 4    1  0.1964735E-002  0.9118800E+02  0.7818608E-02  0.1130116E+00
         25   -1    0    0    0    0  0.00000000000E+00  0.00000000000E+00  0.99999998245E-14  0.12500000000E+03  0.12500000000E+03 0.  0.
        -11    1    1    0    0    0 -0.25133933613E+02  0.56861530134E+01  0.62980434730E+01  0.26527576347E+02  0.51100000000E-03 0. -1.
         11    1    1    0    0    0 -0.34067286769E+02  0.75291443150E+01  0.87615433427E+01  0.35972665788E+02  0.51100000000E-03 0.  1.
         22    1    1    0    0    0  0.59201220382E+02 -0.13215297328E+02 -0.15059586816E+02  0.62499757865E+02  0.00000000000E+00 0. -1.
</event>
<event>
 4    1  0.1964735E-002  0.9118800E+02  0.7818608E-02  0.1130116E+00
         25   -1    0    0    0    0  0.00000000000E+00  0.00000000000E+00  0.99999998245E-14  0.12500000000E+03  0.12500000000E+03 0.  0.
        -11    1    1    0    0    0 -0.11504401140E+02  0.14117956569E+01  0.15690328684E+02  0.19507199364E+02  0.51100000000E-03 0.  1.
         11    1    1    0    0    0  0.24609718805E+02  0.53242481340E+01  0.40342293515E+02  0.47555089362E+02  0.51100000000E-03 0. -1.
         22    1    1    0    0    0 -0.13105317666E+02 -0.67360437910E+01 -0.56032622200E+02  0.57937711274E+02  0.00000000000E+00 0. -1.
</event>
<event>
 4    1  0.1964735E-002  0.9118800E+02  0.7818608E-02  0.1130116E+00
         25   -1    0    0    0    0  0.00000000000E+00  0.00000000000E+00  0.99999998245E-14  0.12500000000E+03  0.12500000000E+03 0.  0.
        -11    1    1    0    0    0 -0.31578029329E+02 -0.30992911639E+02  0.14902127135E+02  0.46688391508E+02  0.51100000000E-03 0. -1.
         11    1    1    0    0    0 -0.10651635309E+02 -0.10508849540E+02  0.51103776607E+01  0.15811679655E+02  0.51100000000E-03 0.  1.
         22    1    1    0    0    0  0.42229664638E+02  0.41501761180E+02 -0.20012504796E+02  0.62499928837E+02  0.00000000000E+00 0. -1.
</event>
<event>
 4    1  0.1964735E-002  0.9118800E+02  0.7818608E-02  0.1130116E+00
         25   -1    0    0    0    0  0.00000000000E+00  0.00000000000E+00  0.99999998245E-14  0.12500000000E+03  0.12500000000E+03 0.  0.
        -11    1    1    0    0    0 -0.50793234315E+02 -0.16104272413E+01 -0.30286082499E+02  0.59159047672E+02  0.51100000000E-03 0. -1.
         11    1    1    0    0    0 -0.29520914486E+01  0.17906915349E+00 -0.15691804416E+01  0.33480198927E+01  0.51100000000E-03 0.  1.
         22    1    1    0    0    0  0.53745325763E+02  0.14313580878E+01  0.31855262941E+02  0.62492932435E+02  0.00000000000E+00 0. -1.
</event>
<event>
 4    1  0.1964735E-002  0.9118800E+02  0.7818608E-02  0.1130116E+00
         25   -1    0    0    0    0  0.00000000000E+00  0.00000000000E+00  0.99999998245E-14  0.12500000000E+03  0.12500000000E+03 0.  0.
        -11    1    1    0    0    0  0.15843884762E+02  0.70175499957E+01 -0.22486097004E+02  0.28388364712E+02  0.51100000000E-03 0.  1.
         11    1    1    0    0    0  0.19038877379E+02  0.84330912824E+01 -0.27018656184E+02  0.34111635298E+02  0.51100000000E-03 0. -1.
         22    1    1    0    0    0 -0.34882762141E+02 -0.15450641278E+02  0.49504753188E+02  0.62499999990E+02  0.00000000000E+00 0. -1.
</event>
<event>
 4    1  0.1964735E-002  0.9118800E+02  0.7818608E-02  0.1130116E+00
         25   -1    0    0    0    0  0.00000000000E+00  0.00000000000E+00  0.99999998245E-14  0.12500000000E+03  0.12500000000E+03 0.  0.
        -11    1    1    0    0    0  0.82116460964E+01 -0.35615958681E+02 -0.16648139176E+02  0.40163269074E+02  0.51100000000E-03 0.  1.
         11    1    1    0    0    0  0.25621768361E+01 -0.20502342542E+02 -0.85798626667E+01  0.22372412554E+02  0.51100000000E-03 0. -1.
         22    1    1    0    0    0 -0.10773822932E+02  0.56118301223E+02  0.25228001843E+02  0.62464318372E+02  0.00000000000E+00 0.  1.
</event>
<event>
 4    1  0.1964735E-002  0.9118800E+02  0.7818608E-02  0.1130116E+00
         25   -1    0    0    0    0  0.00000000000E+00  0.00000000000E+00  0.99999998245E-14  0.12500000000E+03  0.12500000000E+03 0.  0.
        -11    1    1    0    0    0 -0.81033623124E+01 -0.28745515193E+02 -0.33715242170E+02  0.45040944477E+02  0.51100000000E-03 0. -1.
         11    1    1    0    0    0 -0.31273135669E+01 -0.11122380322E+02 -0.13089367846E+02  0.17459065985E+02  0.51100000000E-03 0.  1.
         22    1    1    0    0    0  0.11230675879E+02  0.39867895515E+02  0.46804610017E+02  0.62499989539E+02  0.00000000000E+00 0. -1.
</event>
<event>
 4    1  0.1964735E-002  0.9118800E+02  0.7818608E-02  0.1130116E+00
         25   -1    0    0    0    0  0.00000000000E+00  0.00000000000E+00  0.99999998245E-14  0.12500000000E+03  0.12500000000E+03 0.  0.
        -11    1    1    0    0    0 -0.40911622635E+02  0.25574320027E+02 -0.35066395176E+02  0.59644436307E+02  0.51100000000E-03 0.  1.
         11    1    1    0    0    0 -0.19588886637E+01  0.12249817145E+01 -0.16782190712E+01  0.28555637814E+01  0.51100000000E-03 0. -1.
         22    1    1    0    0    0  0.42870511298E+02 -0.26799301741E+02  0.36744614247E+02  0.62499999912E+02  0.00000000000E+00 0.  1.
</event>
<event>
 4    1  0.1964735E-002  0.9118800E+02  0.7818608E-02  0.1130116E+00
         25   -1    0    0    0    0  0.00000000000E+00  0.00000000000E+00  0.99999998245E-14  0.12500000000E+03  0.12500000000E+03 0.  0.
        -11    1    1    0    0    0  0.31307723008E+02  0.12985796278E+02  0.20736596201E+02  0.39734252820E+02  0.51100000000E-03 0.  1.
         11    1    1    0    0    0  0.17928566450E+02  0.74866667820E+01  0.11865764075E+02  0.22765764468E+02  0.51100000000E-03 0. -1.
         22    1    1    0    0    0 -0.49236289458E+02 -0.20472463060E+02 -0.32602360277E+02  0.62499982712E+02  0.00000000000E+00 0.  1.
</event>
<event>
 4    1  0.1964735E-002  0.9118800E+02  0.7818608E-02  0.1130116E+00
         25   -1    0    0    0    0  0.00000000000E+00  0.00000000000E+00  0.99999998245E-14  0.12500000000E+03  0.12500000000E+03 0.  0.
        -11    1    1    0    0    0 -0.64989895410E+01 -0.47015862023E+02  0.11379077497E+02  0.48807904603E+02  0.51100000000E-03 0.  1.
         11    1    1    0    0    0 -0.17643015233E+01 -0.13155365508E+02  0.33630765065E+01  0.13692577747E+02  0.51100000000E-03 0. -1.
         22    1    1    0    0    0  0.82632910644E+01  0.60171227531E+02 -0.14742154004E+02  0.62499517650E+02  0.00000000000E+00 0.  1.
</event>
<event>
 4    1  0.1964735E-002  0.9118800E+02  0.7818608E-02  0.1130116E+00
         25   -1    0    0    0    0  0.00000000000E+00  0.00000000000E+00  0.99999998245E-14  0.12500000000E+03  0.12500000000E+03 0.  0.
        -11    1    1    0    0    0  0.21396338681E+02 -0.92291860507E+01 -0.22388732456E+02  0.32314648774E+02  0.51100000000E-03 0. -1.
         11    1    1    0    0    0  0.19987166842E+02 -0.86225523802E+01 -0.20912201745E+02  0.30185351249E+02  0.51100000000E-03 0.  1.
         22    1    1    0    0    0 -0.41383505524E+02  0.17851738431E+02  0.43300934201E+02  0.62499999977E+02  0.00000000000E+00 0. -1.
</event>
<event>
 4    1  0.1964735E-002  0.9118800E+02  0.7818608E-02  0.1130116E+00
         25   -1    0    0    0    0  0.00000000000E+00  0.00000000000E+00  0.99999998245E-14  0.12500000000E+03  0.12500000000E+03 0.  0.
        -11    1    1    0    0    0 -0.21039071466E+02  0.50732580783E+01  0.31913580777E+02  0.38559786228E+02  0.51100000000E-03 0. -1.
         11    1    1    0    0    0 -0.43865736455E+01  0.97178364247E+01  0.22324144484E+02  0.24739559421E+02  0.51100000000E-03 0.  1.
         22    1    1    0    0    0  0.25425645112E+02 -0.14791094503E+02 -0.54237725261E+02  0.61700654351E+02  0.00000000000E+00 0. -1.
</event>
<event>
 4    1  0.1964735E-002  0.9118800E+02  0.7818608E-02  0.1130116E+00
         25   -1    0    0    0    0  0.00000000000E+00  0.00000000000E+00  0.99999998245E-14  0.12500000000E+03  0.12500000000E+03 0.  0.
        -11    1    1    0    0    0 -0.41262944583E+01 -0.10910438821E+01 -0.56491233274E+02  0.56652238435E+02  0.51100000000E-03 0. -1.
         11    1    1    0    0    0 -0.39164373197E+00  0.24418352050E-02 -0.58351919315E+01  0.58483207773E+01  0.51100000000E-03 0.  1.
         22    1    1    0    0    0  0.45179381902E+01  0.10886020469E+01  0.62326425205E+02  0.62499440787E+02  0.00000000000E+00 0. -1.
</event>
<event>
 4    1  0.1964735E-002  0.9118800E+02  0.7818608E-02  0.1130116E+00
         25   -1    0    0    0    0  0.00000000000E+00  0.00000000000E+00  0.99999998245E-14  0.12500000000E+03  0.12500000000E+03 0.  0.
        -11    1    1    0    0    0  0.20511705986E+01 -0.41534321076E+01  0.86538895773E+01  0.98157070135E+01  0.51100000000E-03 0. -1.
         11    1    1    0    0    0  0.11383639215E+02 -0.21870717802E+02  0.46559050122E+02  0.52684539359E+02  0.51100000000E-03 0.  1.
         22    1    1    0    0    0 -0.13434809813E+02  0.26024149910E+02 -0.55212939699E+02  0.62499753627E+02  0.00000000000E+00 0.  1.
</event>
<event>
 4    1  0.1964735E-002  0.9118800E+02  0.7818608E-02  0.1130116E+00
         25   -1    0    0    0    0  0.00000000000E+00  0.00000000000E+00  0.99999998245E-14  0.12500000000E+03  0.12500000000E+03 0.  0.
        -11    1    1    0    0    0  0.31201369748E+02 -0.54569194889E+01  0.21661875826E+02  0.38373692929E+02  0.51100000000E-03 0. -1.
         11    1    1    0    0    0  0.49667908198E+00 -0.32873376540E+02 -0.16007013181E+02  0.36566788846E+02  0.51100000000E-03 0.  1.
         22    1    1    0    0    0 -0.31698048830E+02  0.38330296029E+02 -0.56548626448E+01  0.50059518224E+02  0.00000000000E+00 0.  1.
</event>
<event>
 4    1  0.1964735E-002  0.9118800E+02  0.7818608E-02  0.1130116E+00
         25   -1    0    0    0    0  0.00000000000E+00  0.00000000000E+00  0.99999998245E-14  0.12500000000E+03  0.12500000000E+03 0.  0.
        -11    1    1    0    0    0 -0.56836761328E+00  0.24785698167E+00 -0.21653869772E+00  0.65678314224E+00  0.51100000000E-03 0.  1.
         11    1    1    0    0    0 -0.50945220386E+02  0.25970419568E+02 -0.23554811251E+02  0.61844218048E+02  0.51100000000E-03 0. -1.
         22    1    1    0    0    0  0.51513587999E+02 -0.26218276549E+02  0.23771349949E+02  0.62498998809E+02  0.00000000000E+00 0. -1.
</event>
<event>
 4    1  0.1964735E-002  0.9118800E+02  0.7818608E-02  0.1130116E+00
         25   -1    0    0    0    0  0.00000000000E+00  0.00000000000E+00  0.99999998245E-14  0.12500000000E+03  0.12500000000E+03 0.  0.
        -11    1    1    0    0    0  0.97059027150E+01  0.65201006518E+01 -0.23957250648E+01  0.11935483185E+02  0.51100000000E-03 0.  1.
         11    1    1    0    0    0  0.41539517117E+02  0.26731651498E+02 -0.10807016763E+02  0.50565841096E+02  0.51100000000E-03 0. -1.
         22    1    1    0    0    0 -0.51245419832E+02 -0.33251752150E+02  0.13202741828E+02  0.62498675719E+02  0.00000000000E+00 0. -1.
</event>
<event>
 4    1  0.1964735E-002  0.9118800E+02  0.7818608E-02  0.1130116E+00
         25   -1    0    0    0    0  0.00000000000E+00  0.00000000000E+00  0.99999998245E-14  0.12500000000E+03  0.12500000000E+03 0.  0.
        -11    1    1    0    0    0 -0.26285239956E+01 -0.40069903627E+02 -0.22850868281E+02  0.46202472840E+02  0.51100000000E-03 0.  1.
         11    1    1    0    0    0 -0.94413289013E+00 -0.14128201326E+02 -0.80692056668E+01  0.16297531714E+02  0.51100000000E-03 0. -1.
         22    1    1    0    0    0  0.35726568857E+01  0.54198104953E+02  0.30920073948E+02  0.62499995446E+02  0.00000000000E+00 0.  1.
</event>
<event>
 4    1  0.1964735E-002  0.9118800E+02  0.7818608E-02  0.1130116E+00
         25   -1    0    0    0    0  0.00000000000E+00  0.00000000000E+00  0.99999998245E-14  0.12500000000E+03  0.12500000000E+03 0.  0.
        -11    1    1    0    0    0  0.23090142064E+02 -0.35743845747E+01 -0.23771767899E+02  0.33332084167E+02  0.51100000000E-03 0.  1.
         11    1    1    0    0    0  0.20205225279E+02 -0.31263015882E+01 -0.20802461982E+02  0.29167915849E+02  0.51100000000E-03 0.  1.
         22    1    1    0    0    0 -0.43295367344E+02  0.67006861629E+01  0.44574229881E+02  0.62499999984E+02  0.00000000000E+00 0.  1.
</event>
<event>
 4    1  0.1964735E-002  0.9118800E+02  0.7818608E-02  0.1130116E+00
         25   -1    0    0    0    0  0.00000000000E+00  0.00000000000E+00  0.99999998245E-14  0.12500000000E+03  0.12500000000E+03 0.  0.
        -11    1    1    0    0    0 -0.24931695103E+01  0.47085572712E+01  0.72173625981E+00  0.53765518014E+01  0.51100000000E-03 0.  1.
         11    1    1    0    0    0 -0.33062715520E+02  0.43233409524E+02  0.17575195507E+02  0.57194041245E+02  0.51100000000E-03 0. -1.
         22    1    1    0    0    0  0.35555885030E+02 -0.47941966795E+02 -0.18296931767E+02  0.62429406953E+02  0.00000000000E+00 0. -1.
</event>
<event>
 4    1  0.1964735E-002  0.9118800E+02  0.7818608E-02  0.1130116E+00
         25   -1    0    0    0    0  0.00000000000E+00  0.00000000000E+00  0.99999998245E-14  0.12500000000E+03  0.12500000000E+03 0.  0.
        -11    1    1    0    0    0 -0.69733951867E+00 -0.61717715198E+00  0.14341088898E+01  0.17099294167E+01  0.51100000000E-03 0. -1.
         11    1    1    0    0    0 -0.23506869178E+02 -0.23285952136E+02  0.50996779502E+02  0.60790459657E+02  0.51100000000E-03 0.  1.
         22    1    1    0    0    0  0.24204208697E+02  0.23903129288E+02 -0.52430888392E+02  0.62499610926E+02  0.00000000000E+00 0.  1.
</event>
<event>
 4    1  0.1964735E-002  0.9118800E+02  0.7818608E-02  0.1130116E+00
         25   -1    0    0    0    0  0.00000000000E+00  0.00000000000E+00  0.99999998245E-14  0.12500000000E+03  0.12500000000E+03 0.  0.
        -11    1    1    0    0    0  0.18408851443E+01 -0.37663816175E+01  0.13507942363E+02  0.14143514265E+02  0.51100000000E-03 0.  1.
         11    1    1    0    0    0 -0.39916059700E+01 -0.49800345706E+02  0.12159981276E+02  0.51418600677E+02  0.51100000000E-03 0. -1.
         22    1    1    0    0    0  0.21507208257E+01  0.53566727324E+02 -0.25667923639E+02  0.59437885058E+02  0.00000000000E+00 0. -1.
</event>
<event>
 4    1  0.1964735E-002  0.9118800E+02  0.7818608E-02  0.1130116E+00
         25   -1    0    0    0    0  0.00000000000E+00  0.00000000000E+00  0.99999998245E-14  0.12500000000E+03  0.12500000000E+03 0.  0.
        -11    1    1    0    0    0 -0.14856368527E+02 -0.12623732719E+02 -0.73833129946E+00  0.19509368183E+02  0.51100000000E-03 0. -1.
         11    1    1    0    0    0 -0.32736559846E+02 -0.27818912390E+02 -0.16187026044E+01  0.42990631950E+02  0.51100000000E-03 0.  1.
         22    1    1    0    0    0  0.47592928373E+02  0.40442645108E+02  0.23570339039E+01  0.62499999866E+02  0.00000000000E+00 0.  1.
</event>
<event>
 4    1  0.1964735E-002  0.9118800E+02  0.7818608E-02  0.1130116E+00
         25   -1    0    0    0    0  0.00000000000E+00  0.00000000000E+00  0.99999998245E-14  0.12500000000E+03  0.12500000000E+03 0.  0.
        -11    1    1    0    0    0 -0.35793716187E+02 -0.39661265261E+02 -0.14575237551E+02  0.55377284427E+02  0.51100000000E-03 0.  1.
         11    1    1    0    0    0 -0.46514135029E+01 -0.50987876518E+01 -0.17624914892E+01  0.71231776339E+01  0.51100000000E-03 0. -1.
         22    1    1    0    0    0  0.40445129690E+02  0.44760052913E+02  0.16337729040E+02  0.62499537939E+02  0.00000000000E+00 0.  1.
</event>
<event>
 4    1  0.1964735E-002  0.9118800E+02  0.7818608E-02  0.1130116E+00
         25   -1    0    0    0    0  0.00000000000E+00  0.00000000000E+00  0.99999998245E-14  0.12500000000E+03  0.12500000000E+03 0.  0.
        -11    1    1    0    0    0  0.90809127689E+01  0.28378710494E+02  0.49485308961E+02  0.57763396621E+02  0.51100000000E-03 0.  1.
         11    1    1    0    0    0  0.79386088585E+00  0.22823736339E+01  0.40740804891E+01  0.47368319163E+01  0.51100000000E-03 0. -1.
         22    1    1    0    0    0 -0.98747736547E+01 -0.30661084128E+02 -0.53559389450E+02  0.62499771462E+02  0.00000000000E+00 0.  1.
</event>
<event>
 4    1  0.1964735E-002  0.9118800E+02  0.7818608E-02  0.1130116E+00
         25   -1    0    0    0    0  0.00000000000E+00  0.00000000000E+00  0.99999998245E-14  0.12500000000E+03  0.12500000000E+03 0.  0.
        -11    1    1    0    0    0 -0.58046926324E-01 -0.16644758665E+02  0.17364018510E+01  0.16735186050E+02  0.51100000000E-03 0.  1.
         11    1    1    0    0    0 -0.15974468269E+00 -0.45517524368E+02  0.47484369307E+01  0.45764813957E+02  0.51100000000E-03 0.  1.
         22    1    1    0    0    0  0.21779160902E+00  0.62162283034E+02 -0.64848387817E+01  0.62499999993E+02  0.00000000000E+00 0.  1.
</event>
<event>
 4    1  0.1964735E-002  0.9118800E+02  0.7818608E-02  0.1130116E+00
         25   -1    0    0    0    0  0.00000000000E+00  0.00000000000E+00  0.99999998245E-14  0.12500000000E+03  0.12500000000E+03 0.  0.
        -11    1    1    0    0    0  0.19085124375E+02  0.95642807892E+01  0.10822263403E+02  0.23934051576E+02  0.51100000000E-03 0.  1.
         11    1    1    0    0    0  0.30732603614E+02  0.16088193002E+02  0.16857105141E+02  0.38567925442E+02  0.51100000000E-03 0. -1.
         22    1    1    0    0    0 -0.49817727989E+02 -0.25652473791E+02 -0.27679368544E+02  0.62498022981E+02  0.00000000000E+00 0. -1.
</event>
<event>
 4    1  0.1964735E-002  0.9118800E+02  0.7818608E-02  0.1130116E+00
         25   -1    0    0    0    0  0.00000000000E+00  0.00000000000E+00  0.99999998245E-14  0.12500000000E+03  0.12500000000E+03 0.  0.
        -11    1    1    0    0    0  0.14955734629E+01  0.54792312128E+02 -0.12901396911E+02  0.56310569620E+02  0.51100000000E-03 0. -1.
         11    1    1    0    0    0  0.46936575862E+00  0.60649227543E+01 -0.11727309516E+01  0.61950698444E+01  0.51100000000E-03 0.  1.
         22    1    1    0    0    0 -0.19649392215E+01 -0.60857234883E+02  0.14074127863E+02  0.62494360536E+02  0.00000000000E+00 0. -1.
</event>
<event>
 4    1  0.1964735E-002  0.9118800E+02  0.7818608E-02  0.1130116E+00
         25   -1    0    0    0    0  0.00000000000E+00  0.00000000000E+00  0.99999998245E-14  0.12500000000E+03  0.12500000000E+03 0.  0.
        -11    1    1    0    0    0 -0.15590139927E+02 -0.17352719054E+01 -0.59982093966E+01  0.16794110508E+02  0.51100000000E-03 0.  1.
         11    1    1    0    0    0 -0.41406753376E+02 -0.32690171295E+01 -0.19112605416E+02  0.45721957353E+02  0.51100000000E-03 0. -1.
         22    1    1    0    0    0  0.56996893303E+02  0.50042890349E+01  0.25110814813E+02  0.62483932139E+02  0.00000000000E+00 0. -1.
</event>
<event>
 4    1  0.1964735E-002  0.9118800E+02  0.7818608E-02  0.1130116E+00
         25   -1    0    0    0    0  0.00000000000E+00  0.00000000000E+00  0.99999998245E-14  0.12500000000E+03  0.12500000000E+03 0.  0.
        -11    1    1    0    0    0 -0.35089115055E+02  0.28091553758E+02 -0.42881560555E+01  0.45152737132E+02  0.51100000000E-03 0. -1.
         11    1    1    0    0    0 -0.12831567699E+02  0.11469803860E+02 -0.22766454087E+01  0.17360548516E+02  0.51100000000E-03 0.  1.
         22    1    1    0    0    0  0.47920682754E+02 -0.39561357618E+02  0.65648014643E+01  0.62486714352E+02  0.00000000000E+00 0. -1.
</event>
<event>
 4    1  0.1964735E-002  0.9118800E+02  0.7818608E-02  0.1130116E+00
         25   -1    0    0    0    0  0.00000000000E+00  0.00000000000E+00  0.99999998245E-14  0.12500000000E+03  0.12500000000E+03 0.  0.
        -11    1    1    0    0    0 -0.95890214416E+01  0.15004784851E+02  0.10374486292E+02  0.20608805562E+02  0.51100000000E-03 0.  1.
         11    1    1    0    0    0 -0.19459733009E+02  0.30482170063E+02  0.21143060047E+02  0.41891203001E+02  0.51100000000E-03 0. -1.
         22    1    1    0    0    0  0.29048754451E+02 -0.45486954913E+02 -0.31517546338E+02  0.62499991437E+02  0.00000000000E+00 0. -1.
</event>
<event>
 4    1  0.1964735E-002  0.9118800E+02  0.7818608E-02  0.1130116E+00
         25   -1    0    0    0    0  0.00000000000E+00  0.00000000000E+00  0.99999998245E-14  0.12500000000E+03  0.12500000000E+03 0.  0.
        -11    1    1    0    0    0 -0.17496926888E+02  0.82863458079E+01 -0.73126018416E+01  0.20694929894E+02  0.51100000000E-03 0. -1.
         11    1    1    0    0    0 -0.34996595711E+02  0.15435343554E+02 -0.16902830504E+02  0.41817666377E+02  0.51100000000E-03 0.  1.
         22    1    1    0    0    0  0.52493522599E+02 -0.23721689362E+02  0.24215432345E+02  0.62487403728E+02  0.00000000000E+00 0.  1.
</event>
<event>
 4    1  0.1964735E-002  0.9118800E+02  0.7818608E-02  0.1130116E+00
         25   -1    0    0    0    0  0.00000000000E+00  0.00000000000E+00  0.99999998245E-14  0.12500000000E+03  0.12500000000E+03 0.  0.
        -11    1    1    0    0    0 -0.60243111148E+01 -0.30146462312E+01  0.90147369157E+00  0.67965484906E+01  0.51100000000E-03 0. -1.
         11    1    1    0    0    0 -0.49377248889E+02 -0.24699287332E+02  0.73964191480E+01  0.55703451590E+02  0.51100000000E-03 0.  1.
         22    1    1    0    0    0  0.55401560004E+02  0.27713933563E+02 -0.82978928395E+01  0.62499999920E+02  0.00000000000E+00 0.  1.
</event>
<event>
 4    1  0.1964735E-002  0.9118800E+02  0.7818608E-02  0.1130116E+00
         25   -1    0    0    0    0  0.00000000000E+00  0.00000000000E+00  0.99999998245E-14  0.12500000000E+03  0.12500000000E+03 0.  0.
        -11    1    1    0    0    0 -0.21256045258E+02 -0.10406779188E+02 -0.28095976277E+01  0.23833051676E+02  0.51100000000E-03 0.  1.
         11    1    1    0    0    0 -0.34502946478E+02 -0.16851003279E+02 -0.45523110098E+01  0.38666951819E+02  0.51100000000E-03 0. -1.
         22    1    1    0    0    0  0.55758991736E+02  0.27257782467E+02  0.73619086376E+01  0.62499996506E+02  0.00000000000E+00 0. -1.
</event>
<event>
 4    1  0.1964735E-002  0.9118800E+02  0.7818608E-02  0.1130116E+00
         25   -1    0    0    0    0  0.00000000000E+00  0.00000000000E+00  0.99999998245E-14  0.12500000000E+03  0.12500000000E+03 0.  0.
        -11    1    1    0    0    0 -0.30203740298E+02 -0.30042011954E+02  0.74254766942E+01  0.43242642318E+02  0.51100000000E-03 0.  1.
         11    1    1    0    0    0 -0.12977121528E+02 -0.13739735261E+02  0.37204442652E+01  0.19262079690E+02  0.51100000000E-03 0. -1.
         22    1    1    0    0    0  0.43180861826E+02  0.43781747215E+02 -0.11145920959E+02  0.62495277992E+02  0.00000000000E+00 0.  1.
</event>
<event>
 4    1  0.1964735E-002  0.9118800E+02  0.7818608E-02  0.1130116E+00
         25   -1    0    0    0    0  0.00000000000E+00  0.00000000000E+00  0.99999998245E-14  0.12500000000E+03  0.12500000000E+03 0.  0.
        -11    1    1    0    0    0 -0.18165694059E+02  0.16488718872E+02  0.44221260425E+02  0.50570645285E+02  0.51100000000E-03 0.  1.
         11    1    1    0    0    0 -0.43050084532E+01  0.38946111613E+01  0.10421545929E+02  0.11929363507E+02  0.51100000000E-03 0. -1.
         22    1    1    0    0    0  0.22470702512E+02 -0.20383330034E+02 -0.54642806354E+02  0.62499991207E+02  0.00000000000E+00 0.  1.
</event>
<event>
 4    1  0.1964735E-002  0.9118800E+02  0.7818608E-02  0.1130116E+00
         25   -1    0    0    0    0  0.00000000000E+00  0.00000000000E+00  0.99999998245E-14  0.12500000000E+03  0.12500000000E+03 0.  0.
        -11    1    1    0    0    0  0.48498050867E+01  0.21680771526E+00 -0.18116918845E+01  0.51816833857E+01  0.51100000000E-03 0.  1.
         11    1    1    0    0    0  0.53217395014E+02  0.38345021343E+01 -0.20945692181E+02  0.57319425676E+02  0.51100000000E-03 0. -1.
         22    1    1    0    0    0 -0.58067200100E+02 -0.40513098495E+01  0.22757384065E+02  0.62498890938E+02  0.00000000000E+00 0. -1.
</event>
<event>
 4    1  0.1964735E-002  0.9118800E+02  0.7818608E-02  0.1130116E+00
         25   -1    0    0    0    0  0.00000000000E+00  0.00000000000E+00  0.99999998245E-14  0.12500000000E+03  0.12500000000E+03 0.  0.
        -11    1    1    0    0    0  0.33125198688E+01 -0.39240330523E+02 -0.89848396833E+01  0.40391876310E+02  0.51100000000E-03 0. -1.
         11    1    1    0    0    0  0.28816261228E+01 -0.21432746868E+02 -0.46365870228E+01  0.22117060087E+02  0.51100000000E-03 0.  1.
         22    1    1    0    0    0 -0.61941459916E+01  0.60673077391E+02  0.13621426706E+02  0.62491063603E+02  0.00000000000E+00 0. -1.
</event>
<event>
 4    1  0.1964735E-002  0.9118800E+02  0.7818608E-02  0.1130116E+00
         25   -1    0    0    0    0  0.00000000000E+00  0.00000000000E+00  0.99999998245E-14  0.12500000000E+03  0.12500000000E+03 0.  0.
        -11    1    1    0    0    0 -0.20819791947E+02 -0.87898275060E+01 -0.48753909449E+02  0.53737030911E+02  0.51100000000E-03 0. -1.
         11    1    1    0    0    0 -0.42131563724E+01 -0.19404953702E+01 -0.74680733565E+01  0.87913780956E+01  0.51100000000E-03 0.  1.
         22    1    1    0    0    0  0.25032948319E+02  0.10730322876E+02  0.56221982806E+02  0.62471590993E+02  0.00000000000E+00 0. -1.
</event>
<event>
 4    1  0.1964735E-002  0.9118800E+02  0.7818608E-02  0.1130116E+00
         25   -1    0    0    0    0  0.00000000000E+00  0.00000000000E+00  0.99999998245E-14  0.12500000000E+03  0.12500000000E+03 0.  0.
        -11    1    1    0    0    0 -0.66053048783E+01  0.14064071803E+02  0.46179610626E+02  0.48723552888E+02  0.51100000000E-03 0. -1.
         11    1    1    0    0    0 -0.18746866936E+01  0.39763066891E+01  0.13056226469E+02  0.13776447835E+02  0.51100000000E-03 0.  1.
         22    1    1    0    0    0  0.84799915718E+01 -0.18040378492E+02 -0.59235837095E+02  0.62499999276E+02  0.00000000000E+00 0. -1.
</event>
<event>
 4    1  0.1964735E-002  0.9118800E+02  0.7818608E-02  0.1130116E+00
         25   -1    0    0    0    0  0.00000000000E+00  0.00000000000E+00  0.99999998245E-14  0.12500000000E+03  0.12500000000E+03 0.  0.
        -11    1    1    0    0    0 -0.20634689155E+01  0.16082281682E+02  0.16339920707E+01  0.16296245531E+02  0.51100000000E-03 0.  1.
         11    1    1    0    0    0 -0.58499173091E+01  0.45597207895E+02  0.46324968341E+01  0.46203754474E+02  0.51100000000E-03 0.  1.
         22    1    1    0    0    0  0.79133862246E+01 -0.61679489577E+02 -0.62664889048E+01  0.62499999994E+02  0.00000000000E+00 0.  1.
</event>
<event>
 4    1  0.1964735E-002  0.9118800E+02  0.7818608E-02  0.1130116E+00
         25   -1    0    0    0    0  0.00000000000E+00  0.00000000000E+00  0.99999998245E-14  0.12500000000E+03  0.12500000000E+03 0.  0.
        -11    1    1    0    0    0 -0.44985646602E+01  0.67673658781E+01  0.34159862376E+02  0.35113110411E+02  0.51100000000E-03 0. -1.
         11    1    1    0    0    0 -0.44718315647E+01  0.52423574110E+01  0.26510903636E+02  0.27391743293E+02  0.51100000000E-03 0.  1.
         22    1    1    0    0    0  0.89703962249E+01 -0.12009723289E+02 -0.60670766013E+02  0.62495146295E+02  0.00000000000E+00 0.  1.
</event>
<event>
 4    1  0.1964735E-002  0.9118800E+02  0.7818608E-02  0.1130116E+00
         25   -1    0    0    0    0  0.00000000000E+00  0.00000000000E+00  0.99999998245E-14  0.12500000000E+03  0.12500000000E+03 0.  0.
        -11    1    1    0    0    0  0.44895574411E+01  0.95664964736E+00  0.14898797675E+01  0.48260798323E+01  0.51100000000E-03 0.  1.
         11    1    1    0    0    0  0.33291864669E+02  0.15235658785E+02  0.45069041420E+02  0.58066272883E+02  0.51100000000E-03 0. -1.
         22    1    1    0    0    0 -0.37781422110E+02 -0.16192308432E+02 -0.46558921188E+02  0.62107647284E+02  0.00000000000E+00 0. -1.
</event>
<event>
 4    1  0.1964735E-002  0.9118800E+02  0.7818608E-02  0.1130116E+00
         25   -1    0    0    0    0  0.00000000000E+00  0.00000000000E+00  0.99999998245E-14  0.12500000000E+03  0.12500000000E+03 0.  0.
        -11    1    1    0    0    0  0.13765646600E+02 -0.28973015363E+01  0.11342405046E+02  0.18070349609E+02  0.51100000000E-03 0. -1.
         11    1    1    0    0    0  0.37585763611E+02 -0.79594395318E+01  0.22457552652E+02  0.44501505314E+02  0.51100000000E-03 0.  1.
         22    1    1    0    0    0 -0.51351410211E+02  0.10856741068E+02 -0.33799957698E+02  0.62428145076E+02  0.00000000000E+00 0.  1.
</event>
<event>
 4    1  0.1964735E-002  0.9118800E+02  0.7818608E-02  0.1130116E+00
         25   -1    0    0    0    0  0.00000000000E+00  0.00000000000E+00  0.99999998245E-14  0.12500000000E+03  0.12500000000E+03 0.  0.
        -11    1    1    0    0    0  0.44714063301E+02 -0.13704086815E+01 -0.12779762120E+02  0.46524700933E+02  0.51100000000E-03 0.  1.
         11    1    1    0    0    0  0.15223788619E+02  0.78653266973E+01  0.31356722570E+01  0.17420090262E+02  0.51100000000E-03 0. -1.
         22    1    1    0    0    0 -0.59937851920E+02 -0.64949180159E+01  0.96440898631E+01  0.61055208804E+02  0.00000000000E+00 0.  1.
</event>
<event>
 4    1  0.1964735E-002  0.9118800E+02  0.7818608E-02  0.1130116E+00
         25   -1    0    0    0    0  0.00000000000E+00  0.00000000000E+00  0.99999998245E-14  0.12500000000E+03  0.12500000000E+03 0.  0.
        -11    1    1    0    0    0 -0.11071724257E+02 -0.20826094617E+01  0.25816358197E+02  0.28167440264E+02  0.51100000000E-03 0. -1.
         11    1    1    0    0    0 -0.13496171085E+02 -0.25494854663E+01  0.31465507722E+02  0.34332560151E+02  0.51100000000E-03 0.  1.
         22    1    1    0    0    0  0.24567895342E+02  0.46320949281E+01 -0.57281865919E+02  0.62499999585E+02  0.00000000000E+00 0. -1.
</event>
