<event>
 5    1  0.9034917E-005  0.9118800E+02  0.7818608E-02  0.1130116E+00
         25   -1    0    0    0    0  0.00000000000E+00  0.00000000000E+00  0.99999998245E-14  0.12500000000E+03  0.12500000000E+03 0.  0.
        -13    1    3    3    0    0  0.12498065058E+02 -0.47070344840E+02 -0.23332557833E+02  0.54002207479E+02  0.10566000000E+00 0. -1.
         23    2    1    0    0    0  0.26606876348E+02 -0.13335376596E+02 -0.53124928960E+01  0.94767885970E+02  0.89816320858E+02 0.  0.
         13    1    3    3    0    0  0.14108811290E+02  0.33734968244E+02  0.18020064937E+02  0.40765678491E+02  0.10566000000E+00 0.  1.
         22    1    1    0    0    0 -0.26606876348E+02  0.13335376596E+02  0.53124928960E+01  0.30232114030E+02  0.00000000000E+00 0. -1.
</event>
<event>
 5    1  0.9034917E-005  0.9118800E+02  0.7818608E-02  0.1130116E+00
         25   -1    0    0    0    0  0.00000000000E+00  0.00000000000E+00  0.99999998245E-14  0.12500000000E+03  0.12500000000E+03 0.  0.
        -13    1    3    3    0    0  0.27601131185E+02  0.10456082155E+02 -0.44099348976E+02  0.53065203673E+02  0.10566000000E+00 0.  1.
         23    2    1    0    0    0  0.13617345033E+02 -0.17991972697E+02 -0.81142948016E+01  0.10102115625E+03  0.98134036213E+02 0.  0.
         13    1    3    3    0    0 -0.13983786152E+02 -0.28448054852E+02  0.35985054174E+02  0.47955952581E+02  0.10566000000E+00 0. -1.
         22    1    1    0    0    0 -0.13617345033E+02  0.17991972697E+02  0.81142948016E+01  0.23978843746E+02  0.00000000000E+00 0.  1.
</event>
<event>
 5    1  0.9034917E-005  0.9118800E+02  0.7818608E-02  0.1130116E+00
         25   -1    0    0    0    0  0.00000000000E+00  0.00000000000E+00  0.99999998245E-14  0.12500000000E+03  0.12500000000E+03 0.  0.
        -13    1    3    3    0    0 -0.10392222674E+02 -0.33650832678E+02  0.53302238110E+01  0.35620208898E+02  0.10566000000E+00 0.  1.
         23    2    1    0    0    0  0.48513479060E+01  0.19498964731E+02  0.23740838762E+02  0.93897385524E+02  0.88596537072E+02 0.  0.
         13    1    3    3    0    0  0.15243570580E+02  0.53149797409E+02  0.18410614951E+02  0.58277176627E+02  0.10566000000E+00 0. -1.
         22    1    1    0    0    0 -0.48513479060E+01 -0.19498964731E+02 -0.23740838762E+02  0.31102614476E+02  0.00000000000E+00 0. -1.
</event>
<event>
 5    1  0.9034917E-005  0.9118800E+02  0.7818608E-02  0.1130116E+00
         25   -1    0    0    0    0  0.00000000000E+00  0.00000000000E+00  0.99999998245E-14  0.12500000000E+03  0.12500000000E+03 0.  0.
        -13    1    3    3    0    0 -0.23692529878E+02 -0.22991210043E+02 -0.34474624300E+02  0.47733034640E+02  0.10566000000E+00 0.  1.
         23    2    1    0    0    0 -0.20294643449E+02 -0.12867926097E+02  0.13877516963E+02  0.97250377448E+02  0.93207265607E+02 0.  0.
         13    1    3    3    0    0  0.33978864295E+01  0.10123283946E+02  0.48352141263E+02  0.49517342808E+02  0.10566000000E+00 0. -1.
         22    1    1    0    0    0  0.20294643449E+02  0.12867926097E+02 -0.13877516963E+02  0.27749622552E+02  0.00000000000E+00 0. -1.
</event>
<event>
 5    1  0.9034917E-005  0.9118800E+02  0.7818608E-02  0.1130116E+00
         25   -1    0    0    0    0  0.00000000000E+00  0.00000000000E+00  0.99999998245E-14  0.12500000000E+03  0.12500000000E+03 0.  0.
        -13    1    3    3    0    0  0.60750385905E+00 -0.23847484890E+02 -0.43795368446E+02  0.49871004180E+02  0.10566000000E+00 0.  1.
         23    2    1    0    0    0  0.22797232893E+02  0.30277191159E+01 -0.29631355993E+02  0.87491358747E+02  0.79043277303E+02 0.  0.
         13    1    3    3    0    0  0.22189729034E+02  0.26875204006E+02  0.14164012453E+02  0.37620354567E+02  0.10566000000E+00 0. -1.
         22    1    1    0    0    0 -0.22797232893E+02 -0.30277191159E+01  0.29631355993E+02  0.37508641253E+02  0.00000000000E+00 0.  1.
</event>
<event>
 5    1  0.9034917E-005  0.9118800E+02  0.7818608E-02  0.1130116E+00
         25   -1    0    0    0    0  0.00000000000E+00  0.00000000000E+00  0.99999998245E-14  0.12500000000E+03  0.12500000000E+03 0.  0.
        -13    1    3    3    0    0 -0.13744859081E+02  0.20450463593E+01  0.29853842108E+02  0.32929719380E+02  0.10566000000E+00 0. -1.
         23    2    1    0    0    0 -0.14348541737E+02 -0.21135258221E+02 -0.22986969653E+02  0.90634602230E+02  0.83866862094E+02 0.  0.
         13    1    3    3    0    0 -0.60368265551E+00 -0.23180304580E+02 -0.52840811761E+02  0.57704882851E+02  0.10566000000E+00 0.  1.
         22    1    1    0    0    0  0.14348541737E+02  0.21135258221E+02  0.22986969653E+02  0.34365397770E+02  0.00000000000E+00 0.  1.
</event>
<event>
 5    1  0.9034917E-005  0.9118800E+02  0.7818608E-02  0.1130116E+00
         25   -1    0    0    0    0  0.00000000000E+00  0.00000000000E+00  0.99999998245E-14  0.12500000000E+03  0.12500000000E+03 0.  0.
        -13    1    3    3    0    0 -0.38853109585E+02  0.17968705801E+02  0.59303848971E+01  0.43215959340E+02  0.10566000000E+00 0. -1.
         23    2    1    0    0    0  0.10747656877E+02  0.24146887648E+02 -0.11532509422E+02  0.96162817666E+02  0.91737148509E+02 0.  0.
         13    1    3    3    0    0  0.49600766462E+02  0.61781818463E+01 -0.17462894319E+02  0.52946858326E+02  0.10566000000E+00 0.  1.
         22    1    1    0    0    0 -0.10747656877E+02 -0.24146887648E+02  0.11532509422E+02  0.28837182334E+02  0.00000000000E+00 0.  1.
</event>
<event>
 5    1  0.9034917E-005  0.9118800E+02  0.7818608E-02  0.1130116E+00
         25   -1    0    0    0    0  0.00000000000E+00  0.00000000000E+00  0.99999998245E-14  0.12500000000E+03  0.12500000000E+03 0.  0.
        -13    1    3    3    0    0 -0.14063860606E+02 -0.30641110687E+02  0.16201663982E+02  0.37405546635E+02  0.10566000000E+00 0.  1.
         23    2    1    0    0    0 -0.20237780970E+02  0.69271619532E+01 -0.24052247146E+02  0.92812052814E+02  0.87051784608E+02 0.  0.
         13    1    3    3    0    0 -0.61739203640E+01  0.37568272640E+02 -0.40253911128E+02  0.55406506179E+02  0.10566000000E+00 0. -1.
         22    1    1    0    0    0  0.20237780970E+02 -0.69271619532E+01  0.24052247146E+02  0.32187947186E+02  0.00000000000E+00 0. -1.
</event>
<event>
 5    1  0.9034917E-005  0.9118800E+02  0.7818608E-02  0.1130116E+00
         25   -1    0    0    0    0  0.00000000000E+00  0.00000000000E+00  0.99999998245E-14  0.12500000000E+03  0.12500000000E+03 0.  0.
        -13    1    3    3    0    0 -0.44259294751E+02 -0.14537636283E+02 -0.22685747523E+02  0.51815850328E+02  0.10566000000E+00 0.  1.
         23    2    1    0    0    0 -0.15005648226E+02 -0.25783959222E+02  0.63040379663E+01  0.94508641773E+02  0.89454795530E+02 0.  0.
         13    1    3    3    0    0  0.29253646525E+02 -0.11246322939E+02  0.28989785489E+02  0.42692791445E+02  0.10566000000E+00 0. -1.
         22    1    1    0    0    0  0.15005648226E+02  0.25783959222E+02 -0.63040379663E+01  0.30491358227E+02  0.00000000000E+00 0.  1.
</event>
<event>
 5    1  0.9034917E-005  0.9118800E+02  0.7818608E-02  0.1130116E+00
         25   -1    0    0    0    0  0.00000000000E+00  0.00000000000E+00  0.99999998245E-14  0.12500000000E+03  0.12500000000E+03 0.  0.
        -13    1    3    3    0    0  0.12376881300E+02 -0.21572283104E+02 -0.40591958105E+02  0.47605344404E+02  0.10566000000E+00 0.  1.
         23    2    1    0    0    0 -0.19954352242E+02 -0.17787800834E+02 -0.18545072380E+01  0.98204081860E+02  0.94477618857E+02 0.  0.
         13    1    3    3    0    0 -0.32331233542E+02  0.37844822700E+01  0.38737450867E+02  0.50598737456E+02  0.10566000000E+00 0. -1.
         22    1    1    0    0    0  0.19954352242E+02  0.17787800834E+02  0.18545072380E+01  0.26795918140E+02  0.00000000000E+00 0.  1.
</event>
<event>
 5    1  0.9034917E-005  0.9118800E+02  0.7818608E-02  0.1130116E+00
         25   -1    0    0    0    0  0.00000000000E+00  0.00000000000E+00  0.99999998245E-14  0.12500000000E+03  0.12500000000E+03 0.  0.
        -13    1    3    3    0    0 -0.23702307580E+02 -0.41799497992E+02  0.30315310641E+02  0.56815725291E+02  0.10566000000E+00 0.  1.
         23    2    1    0    0    0  0.53868302174E+01 -0.25865260131E+02  0.20954015207E+02  0.91279081051E+02  0.84821991623E+02 0.  0.
         13    1    3    3    0    0  0.29089137798E+02  0.15934237861E+02 -0.93612954341E+01  0.34463355760E+02  0.10566000000E+00 0. -1.
         22    1    1    0    0    0 -0.53868302174E+01  0.25865260131E+02 -0.20954015207E+02  0.33720918949E+02  0.00000000000E+00 0.  1.
</event>
<event>
 5    1  0.9034917E-005  0.9118800E+02  0.7818608E-02  0.1130116E+00
         25   -1    0    0    0    0  0.00000000000E+00  0.00000000000E+00  0.99999998245E-14  0.12500000000E+03  0.12500000000E+03 0.  0.
        -13    1    3    3    0    0 -0.40043073427E+02 -0.47714136337E+02 -0.16550131945E+01  0.62312412636E+02  0.10566000000E+00 0. -1.
         23    2    1    0    0    0 -0.17729757359E+02 -0.25248789369E+02 -0.29846389332E+01  0.94003972348E+02  0.88746791982E+02 0.  0.
         13    1    3    3    0    0  0.22313316068E+02  0.22465346967E+02 -0.13296257387E+01  0.31691559712E+02  0.10566000000E+00 0.  1.
         22    1    1    0    0    0  0.17729757359E+02  0.25248789369E+02  0.29846389332E+01  0.30996027652E+02  0.00000000000E+00 0. -1.
</event>
<event>
 5    1  0.9034917E-005  0.9118800E+02  0.7818608E-02  0.1130116E+00
         25   -1    0    0    0    0  0.00000000000E+00  0.00000000000E+00  0.99999998245E-14  0.12500000000E+03  0.12500000000E+03 0.  0.
        -13    1    3    3    0    0  0.33652453551E+02 -0.38122219705E+02 -0.30278164503E+01  0.50940849048E+02  0.10566000000E+00 0.  1.
         23    2    1    0    0    0  0.60951786682E+00 -0.19793247389E+02  0.21327870011E+02  0.95896354293E+02  0.91373347171E+02 0.  0.
         13    1    3    3    0    0 -0.33042935684E+02  0.18328972316E+02  0.24355686462E+02  0.44955505245E+02  0.10566000000E+00 0. -1.
         22    1    1    0    0    0 -0.60951786682E+00  0.19793247389E+02 -0.21327870011E+02  0.29103645707E+02  0.00000000000E+00 0.  1.
</event>
<event>
 5    1  0.9034917E-005  0.9118800E+02  0.7818608E-02  0.1130116E+00
         25   -1    0    0    0    0  0.00000000000E+00  0.00000000000E+00  0.99999998245E-14  0.12500000000E+03  0.12500000000E+03 0.  0.
        -13    1    3    3    0    0 -0.19325118585E+02  0.18148217690E+02 -0.15812849198E+02  0.30868679555E+02  0.10566000000E+00 0.  1.
         23    2    1    0    0    0 -0.89948417851E+01 -0.11086658560E+02  0.33197026726E+02  0.88863263011E+02  0.81183839233E+02 0.  0.
         13    1    3    3    0    0  0.10330276800E+02 -0.29234876250E+02  0.49009875924E+02  0.57994583456E+02  0.10566000000E+00 0. -1.
         22    1    1    0    0    0  0.89948417851E+01  0.11086658560E+02 -0.33197026726E+02  0.36136736989E+02  0.00000000000E+00 0. -1.
</event>
<event>
 5    1  0.9034917E-005  0.9118800E+02  0.7818608E-02  0.1130116E+00
         25   -1    0    0    0    0  0.00000000000E+00  0.00000000000E+00  0.99999998245E-14  0.12500000000E+03  0.12500000000E+03 0.  0.
        -13    1    3    3    0    0 -0.23115520885E+01  0.37815173362E+02  0.13331373380E+02  0.40163008972E+02  0.10566000000E+00 0. -1.
         23    2    1    0    0    0  0.11309837338E+02  0.25051307761E+01  0.37956280579E+02  0.85315401776E+02  0.75523840237E+02 0.  0.
         13    1    3    3    0    0  0.13621389426E+02 -0.35310042586E+02  0.24624907199E+02  0.45152392804E+02  0.10566000000E+00 0.  1.
         22    1    1    0    0    0 -0.11309837338E+02 -0.25051307761E+01 -0.37956280579E+02  0.39684598224E+02  0.00000000000E+00 0.  1.
</event>
<event>
 5    1  0.9034917E-005  0.9118800E+02  0.7818608E-02  0.1130116E+00
         25   -1    0    0    0    0  0.00000000000E+00  0.00000000000E+00  0.99999998245E-14  0.12500000000E+03  0.12500000000E+03 0.  0.
        -13    1    3    3    0    0 -0.20934514178E+02 -0.16695358792E+02  0.46349045158E+02  0.53527880961E+02  0.10566000000E+00 0.  1.
         23    2    1    0    0    0  0.55458199517E+01 -0.25210410047E+02  0.16319546484E+02  0.94460705786E+02  0.89387786898E+02 0.  0.
         13    1    3    3    0    0  0.26480334130E+02 -0.85150512549E+01 -0.30029498674E+02  0.40932824825E+02  0.10566000000E+00 0. -1.
         22    1    1    0    0    0 -0.55458199517E+01  0.25210410047E+02 -0.16319546484E+02  0.30539294214E+02  0.00000000000E+00 0.  1.
</event>
<event>
 5    1  0.9034917E-005  0.9118800E+02  0.7818608E-02  0.1130116E+00
         25   -1    0    0    0    0  0.00000000000E+00  0.00000000000E+00  0.99999998245E-14  0.12500000000E+03  0.12500000000E+03 0.  0.
        -13    1    3    3    0    0  0.61733852126E+02  0.29761791456E+01 -0.72156025344E+01  0.62225414619E+02  0.10566000000E+00 0.  1.
         23    2    1    0    0    0  0.42211942427E+02  0.27493335189E+01 -0.11001285932E+01  0.82684314951E+02  0.71035756754E+02 0.  0.
         13    1    3    3    0    0 -0.19521909698E+02 -0.22684562669E+00  0.61154739412E+01  0.20458900331E+02  0.10566000000E+00 0. -1.
         22    1    1    0    0    0 -0.42211942427E+02 -0.27493335189E+01  0.11001285932E+01  0.42315685049E+02  0.00000000000E+00 0.  1.
</event>
<event>
 5    1  0.9034917E-005  0.9118800E+02  0.7818608E-02  0.1130116E+00
         25   -1    0    0    0    0  0.00000000000E+00  0.00000000000E+00  0.99999998245E-14  0.12500000000E+03  0.12500000000E+03 0.  0.
        -13    1    3    3    0    0 -0.10452381049E+02 -0.13547687099E+01 -0.34686537530E+02  0.36252651182E+02  0.10566000000E+00 0.  1.
         23    2    1    0    0    0 -0.53595845142E+01  0.16393899903E+02  0.22673682130E+02  0.96511739936E+02  0.92211360384E+02 0.  0.
         13    1    3    3    0    0  0.50927965352E+01  0.17748668613E+02  0.57360219659E+02  0.60259088754E+02  0.10566000000E+00 0. -1.
         22    1    1    0    0    0  0.53595845142E+01 -0.16393899903E+02 -0.22673682130E+02  0.28488260064E+02  0.00000000000E+00 0. -1.
</event>
<event>
 5    1  0.9034917E-005  0.9118800E+02  0.7818608E-02  0.1130116E+00
         25   -1    0    0    0    0  0.00000000000E+00  0.00000000000E+00  0.99999998245E-14  0.12500000000E+03  0.12500000000E+03 0.  0.
        -13    1    3    3    0    0  0.11057554402E+02 -0.47623373056E+02 -0.24040645075E+02  0.54481363330E+02  0.10566000000E+00 0. -1.
         23    2    1    0    0    0 -0.14167104579E+02 -0.24670331100E+02  0.58125684444E+00  0.96545300068E+02  0.92256842656E+02 0.  0.
         13    1    3    3    0    0 -0.25224658981E+02  0.22953041957E+02  0.24621901919E+02  0.42063936738E+02  0.10566000000E+00 0.  1.
         22    1    1    0    0    0  0.14167104579E+02  0.24670331100E+02 -0.58125684444E+00  0.28454699932E+02  0.00000000000E+00 0. -1.
</event>
<event>
 5    1  0.9034917E-005  0.9118800E+02  0.7818608E-02  0.1130116E+00
         25   -1    0    0    0    0  0.00000000000E+00  0.00000000000E+00  0.99999998245E-14  0.12500000000E+03  0.12500000000E+03 0.  0.
        -13    1    3    3    0    0  0.19076132488E+02 -0.48603362224E+02  0.17822993091E+02  0.55171150948E+02  0.10566000000E+00 0.  1.
         23    2    1    0    0    0  0.46039755511E+01 -0.89529244685E+01  0.25057458651E+02  0.97995784006E+02  0.94201624198E+02 0.  0.
         13    1    3    3    0    0 -0.14472156937E+02  0.39650437755E+02  0.72344655594E+01  0.42824633058E+02  0.10566000000E+00 0. -1.
         22    1    1    0    0    0 -0.46039755511E+01  0.89529244685E+01 -0.25057458651E+02  0.27004215994E+02  0.00000000000E+00 0.  1.
</event>
<event>
 5    1  0.9034917E-005  0.9118800E+02  0.7818608E-02  0.1130116E+00
         25   -1    0    0    0    0  0.00000000000E+00  0.00000000000E+00  0.99999998245E-14  0.12500000000E+03  0.12500000000E+03 0.  0.
        -13    1    3    3    0    0 -0.31477089913E+02  0.13202947730E+02 -0.12565867066E+02  0.36373578286E+02  0.10566000000E+00 0. -1.
         23    2    1    0    0    0  0.42922202651E+01 -0.18507369130E+02  0.22421784582E+02  0.95611527928E+02  0.90982866420E+02 0.  0.
         13    1    3    3    0    0  0.35769310178E+02 -0.31710316860E+02  0.34987651647E+02  0.59237949642E+02  0.10566000000E+00 0.  1.
         22    1    1    0    0    0 -0.42922202651E+01  0.18507369130E+02 -0.22421784582E+02  0.29388472072E+02  0.00000000000E+00 0.  1.
</event>
<event>
 5    1  0.9034917E-005  0.9118800E+02  0.7818608E-02  0.1130116E+00
         25   -1    0    0    0    0  0.00000000000E+00  0.00000000000E+00  0.99999998245E-14  0.12500000000E+03  0.12500000000E+03 0.  0.
        -13    1    3    3    0    0 -0.30166614060E+02 -0.94080131801E+01 -0.18427755027E+02  0.36580440610E+02  0.10566000000E+00 0.  1.
         23    2    1    0    0    0  0.49677461175E+01 -0.10949417572E+02  0.27826988901E+02  0.94686478958E+02  0.89702952791E+02 0.  0.
         13    1    3    3    0    0  0.35134360178E+02 -0.15414043923E+01  0.46254743928E+02  0.58106038348E+02  0.10566000000E+00 0. -1.
         22    1    1    0    0    0 -0.49677461175E+01  0.10949417572E+02 -0.27826988901E+02  0.30313521042E+02  0.00000000000E+00 0. -1.
</event>
<event>
 5    1  0.9034917E-005  0.9118800E+02  0.7818608E-02  0.1130116E+00
         25   -1    0    0    0    0  0.00000000000E+00  0.00000000000E+00  0.99999998245E-14  0.12500000000E+03  0.12500000000E+03 0.  0.
        -13    1    3    3    0    0  0.25615425453E+02  0.29953528065E+01 -0.32416899526E+02  0.41424493944E+02  0.10566000000E+00 0.  1.
         23    2    1    0    0    0  0.16129732460E+02 -0.26851506230E+02  0.81112312628E+01  0.92643181111E+02  0.86808958511E+02 0.  0.
         13    1    3    3    0    0 -0.94856929934E+01 -0.29846859036E+02  0.40528130789E+02  0.51218687167E+02  0.10566000000E+00 0. -1.
         22    1    1    0    0    0 -0.16129732460E+02  0.26851506230E+02 -0.81112312628E+01  0.32356818889E+02  0.00000000000E+00 0. -1.
</event>
<event>
 5    1  0.9034917E-005  0.9118800E+02  0.7818608E-02  0.1130116E+00
         25   -1    0    0    0    0  0.00000000000E+00  0.00000000000E+00  0.99999998245E-14  0.12500000000E+03  0.12500000000E+03 0.  0.
        -13    1    3    3    0    0  0.43120520487E+02  0.18412881191E+02  0.15832469540E+02  0.49488298987E+02  0.10566000000E+00 0. -1.
         23    2    1    0    0    0  0.19044353754E+02 -0.20460369405E+02  0.36339942413E+01  0.96812768134E+02  0.92618529645E+02 0.  0.
         13    1    3    3    0    0 -0.24076166733E+02 -0.38873250596E+02 -0.12198475299E+02  0.47324469148E+02  0.10566000000E+00 0.  1.
         22    1    1    0    0    0 -0.19044353754E+02  0.20460369405E+02 -0.36339942413E+01  0.28187231866E+02  0.00000000000E+00 0.  1.
</event>
<event>
 5    1  0.9034917E-005  0.9118800E+02  0.7818608E-02  0.1130116E+00
         25   -1    0    0    0    0  0.00000000000E+00  0.00000000000E+00  0.99999998245E-14  0.12500000000E+03  0.12500000000E+03 0.  0.
        -13    1    3    3    0    0 -0.36800160349E+02  0.44256541013E+02  0.81671795488E+01  0.58134389220E+02  0.10566000000E+00 0. -1.
         23    2    1    0    0    0 -0.18798957206E+01  0.27261113735E+02  0.59477350719E+01  0.97034344591E+02  0.92917092871E+02 0.  0.
         13    1    3    3    0    0  0.34920264628E+02 -0.16995427278E+02 -0.22194444769E+01  0.38899955371E+02  0.10566000000E+00 0.  1.
         22    1    1    0    0    0  0.18798957206E+01 -0.27261113735E+02 -0.59477350719E+01  0.27965655409E+02  0.00000000000E+00 0. -1.
</event>
<event>
 5    1  0.9034917E-005  0.9118800E+02  0.7818608E-02  0.1130116E+00
         25   -1    0    0    0    0  0.00000000000E+00  0.00000000000E+00  0.99999998245E-14  0.12500000000E+03  0.12500000000E+03 0.  0.
        -13    1    3    3    0    0 -0.16301309620E+02  0.52378383725E+02 -0.19961852251E+02  0.58375632641E+02  0.10566000000E+00 0.  1.
         23    2    1    0    0    0 -0.21395590929E+02  0.16996640502E+02 -0.12768211649E+02  0.94839026404E+02  0.89915274570E+02 0.  0.
         13    1    3    3    0    0 -0.50942813083E+01 -0.35381743223E+02  0.71936406023E+01  0.36463393763E+02  0.10566000000E+00 0. -1.
         22    1    1    0    0    0  0.21395590929E+02 -0.16996640502E+02  0.12768211649E+02  0.30160973596E+02  0.00000000000E+00 0.  1.
</event>
<event>
 5    1  0.9034917E-005  0.9118800E+02  0.7818608E-02  0.1130116E+00
         25   -1    0    0    0    0  0.00000000000E+00  0.00000000000E+00  0.99999998245E-14  0.12500000000E+03  0.12500000000E+03 0.  0.
        -13    1    3    3    0    0 -0.25643051501E+02 -0.44883320154E+02  0.28538848119E+02  0.59047062030E+02  0.10566000000E+00 0.  1.
         23    2    1    0    0    0 -0.11799813097E+02 -0.27029498824E+02 -0.77994266903E-01  0.95507026618E+02  0.90839180173E+02 0.  0.
         13    1    3    3    0    0  0.13843238404E+02  0.17853821330E+02 -0.28616842386E+02  0.36459964588E+02  0.10566000000E+00 0. -1.
         22    1    1    0    0    0  0.11799813097E+02  0.27029498824E+02  0.77994266903E-01  0.29492973382E+02  0.00000000000E+00 0.  1.
</event>
<event>
 5    1  0.9034917E-005  0.9118800E+02  0.7818608E-02  0.1130116E+00
         25   -1    0    0    0    0  0.00000000000E+00  0.00000000000E+00  0.99999998245E-14  0.12500000000E+03  0.12500000000E+03 0.  0.
        -13    1    3    3    0    0 -0.31905599101E+02 -0.34948889542E+02  0.36185993163E+02  0.59572052168E+02  0.10566000000E+00 0.  1.
         23    2    1    0    0    0 -0.24103317511E+02 -0.67530851114E+01  0.13746860574E+02  0.96442159585E+02  0.92116990269E+02 0.  0.
         13    1    3    3    0    0  0.78022815905E+01  0.28195804431E+02 -0.22439132589E+02  0.36870107417E+02  0.10566000000E+00 0. -1.
         22    1    1    0    0    0  0.24103317511E+02  0.67530851114E+01 -0.13746860574E+02  0.28557840415E+02  0.00000000000E+00 0.  1.
</event>
<event>
 5    1  0.9034917E-005  0.9118800E+02  0.7818608E-02  0.1130116E+00
         25   -1    0    0    0    0  0.00000000000E+00  0.00000000000E+00  0.99999998245E-14  0.12500000000E+03  0.12500000000E+03 0.  0.
        -13    1    3    3    0    0  0.35899311624E+02 -0.12220460898E+02  0.46642757063E+02  0.60113710500E+02  0.10566000000E+00 0.  1.
         23    2    1    0    0    0  0.16225350032E+02  0.57797051918E+01  0.25891839588E+02  0.93902502785E+02  0.88603756672E+02 0.  0.
         13    1    3    3    0    0 -0.19673961593E+02  0.18000166090E+02 -0.20750917474E+02  0.33788792285E+02  0.10566000000E+00 0. -1.
         22    1    1    0    0    0 -0.16225350032E+02 -0.57797051918E+01 -0.25891839588E+02  0.31097497215E+02  0.00000000000E+00 0.  1.
</event>
<event>
 5    1  0.9034917E-005  0.9118800E+02  0.7818608E-02  0.1130116E+00
         25   -1    0    0    0    0  0.00000000000E+00  0.00000000000E+00  0.99999998245E-14  0.12500000000E+03  0.12500000000E+03 0.  0.
        -13    1    3    3    0    0  0.15726975589E+02  0.78574841211E+00 -0.38595001092E+02  0.41683815025E+02  0.10566000000E+00 0.  1.
         23    2    1    0    0    0  0.17846392325E+02  0.21735509404E+02  0.10402479610E+02  0.95014375609E+02  0.90158715065E+02 0.  0.
         13    1    3    3    0    0  0.21194167360E+01  0.20949760992E+02  0.48997480702E+02  0.53330560583E+02  0.10566000000E+00 0. -1.
         22    1    1    0    0    0 -0.17846392325E+02 -0.21735509404E+02 -0.10402479610E+02  0.29985624391E+02  0.00000000000E+00 0. -1.
</event>
<event>
 5    1  0.9034917E-005  0.9118800E+02  0.7818608E-02  0.1130116E+00
         25   -1    0    0    0    0  0.00000000000E+00  0.00000000000E+00  0.99999998245E-14  0.12500000000E+03  0.12500000000E+03 0.  0.
        -13    1    3    3    0    0 -0.20460497323E+02 -0.86194916034E+01  0.48085687330E+02  0.52963875200E+02  0.10566000000E+00 0. -1.
         23    2    1    0    0    0 -0.27403814148E+02  0.53715177102E+01  0.80515430508E+01  0.95937144361E+02  0.91429131519E+02 0.  0.
         13    1    3    3    0    0 -0.69433168252E+01  0.13991009314E+02 -0.40034144279E+02  0.42973269161E+02  0.10566000000E+00 0.  1.
         22    1    1    0    0    0  0.27403814148E+02 -0.53715177102E+01 -0.80515430508E+01  0.29062855639E+02  0.00000000000E+00 0.  1.
</event>
<event>
 5    1  0.9034917E-005  0.9118800E+02  0.7818608E-02  0.1130116E+00
         25   -1    0    0    0    0  0.00000000000E+00  0.00000000000E+00  0.99999998245E-14  0.12500000000E+03  0.12500000000E+03 0.  0.
        -13    1    3    3    0    0 -0.36448697706E+02  0.19247949438E+02 -0.74229291824E+01  0.41882002862E+02  0.10566000000E+00 0.  1.
         23    2    1    0    0    0  0.16297328503E+02  0.22150774096E+02 -0.12183071409E+02  0.94921985798E+02  0.90030530652E+02 0.  0.
         13    1    3    3    0    0  0.52746026209E+02  0.29028246582E+01 -0.47601422268E+01  0.53039982936E+02  0.10566000000E+00 0. -1.
         22    1    1    0    0    0 -0.16297328503E+02 -0.22150774096E+02  0.12183071409E+02  0.30078014202E+02  0.00000000000E+00 0. -1.
</event>
<event>
 5    1  0.9034917E-005  0.9118800E+02  0.7818608E-02  0.1130116E+00
         25   -1    0    0    0    0  0.00000000000E+00  0.00000000000E+00  0.99999998245E-14  0.12500000000E+03  0.12500000000E+03 0.  0.
        -13    1    3    3    0    0  0.15419942190E+02  0.15066630712E+02  0.45534007492E+02  0.50379906516E+02  0.10566000000E+00 0.  1.
         23    2    1    0    0    0 -0.19396567832E+02 -0.14314326866E+01  0.22462506611E+02  0.95287375639E+02  0.90536423111E+02 0.  0.
         13    1    3    3    0    0 -0.34816510022E+02 -0.16498063399E+02 -0.23071500882E+02  0.44907469123E+02  0.10566000000E+00 0. -1.
         22    1    1    0    0    0  0.19396567832E+02  0.14314326866E+01 -0.22462506611E+02  0.29712624361E+02  0.00000000000E+00 0. -1.
</event>
<event>
 5    1  0.9034917E-005  0.9118800E+02  0.7818608E-02  0.1130116E+00
         25   -1    0    0    0    0  0.00000000000E+00  0.00000000000E+00  0.99999998245E-14  0.12500000000E+03  0.12500000000E+03 0.  0.
        -13    1    3    3    0    0 -0.12040032039E+01  0.37348427574E+02  0.33425648242E+02  0.50136212366E+02  0.10566000000E+00 0. -1.
         23    2    1    0    0    0  0.26677585587E+02  0.11866744120E+02  0.13719462478E+02  0.92739546819E+02  0.86947608966E+02 0.  0.
         13    1    3    3    0    0  0.27881588791E+02 -0.25481683454E+02 -0.19706185764E+02  0.42603334453E+02  0.10566000000E+00 0.  1.
         22    1    1    0    0    0 -0.26677585587E+02 -0.11866744120E+02 -0.13719462478E+02  0.32260453181E+02  0.00000000000E+00 0. -1.
</event>
<event>
 5    1  0.9034917E-005  0.9118800E+02  0.7818608E-02  0.1130116E+00
         25   -1    0    0    0    0  0.00000000000E+00  0.00000000000E+00  0.99999998245E-14  0.12500000000E+03  0.12500000000E+03 0.  0.
        -13    1    3    3    0    0  0.38167164065E+02  0.33855502607E+01 -0.13427896059E+02  0.40601895521E+02  0.10566000000E+00 0.  1.
         23    2    1    0    0    0 -0.14316345700E+02  0.21943316134E+02 -0.11724248723E+02  0.96295908214E+02  0.91918317290E+02 0.  0.
         13    1    3    3    0    0 -0.52483509765E+02  0.18557765874E+02  0.17036473363E+01  0.55694012692E+02  0.10566000000E+00 0. -1.
         22    1    1    0    0    0  0.14316345700E+02 -0.21943316134E+02  0.11724248723E+02  0.28704091786E+02  0.00000000000E+00 0. -1.
</event>
<event>
 5    1  0.9034917E-005  0.9118800E+02  0.7818608E-02  0.1130116E+00
         25   -1    0    0    0    0  0.00000000000E+00  0.00000000000E+00  0.99999998245E-14  0.12500000000E+03  0.12500000000E+03 0.  0.
        -13    1    3    3    0    0  0.27221625862E+02 -0.11868955694E+02  0.22593563416E+02  0.37314464966E+02  0.10566000000E+00 0.  1.
         23    2    1    0    0    0 -0.13841775190E+02  0.24597027169E+02 -0.20067245786E+00  0.96775033119E+02  0.92567587631E+02 0.  0.
         13    1    3    3    0    0 -0.41063401051E+02  0.36465982863E+02 -0.22794235874E+02  0.59460568154E+02  0.10566000000E+00 0. -1.
         22    1    1    0    0    0  0.13841775190E+02 -0.24597027169E+02  0.20067245786E+00  0.28224966881E+02  0.00000000000E+00 0. -1.
</event>
<event>
 5    1  0.9034917E-005  0.9118800E+02  0.7818608E-02  0.1130116E+00
         25   -1    0    0    0    0  0.00000000000E+00  0.00000000000E+00  0.99999998245E-14  0.12500000000E+03  0.12500000000E+03 0.  0.
        -13    1    3    3    0    0 -0.26943196172E+02 -0.30321002713E+02 -0.28308830981E+02  0.49464129438E+02  0.10566000000E+00 0. -1.
         23    2    1    0    0    0  0.11652516029E+01  0.58283234035E+01 -0.29136744473E+02  0.95263203880E+02  0.90503043982E+02 0.  0.
         13    1    3    3    0    0  0.28108447775E+02  0.36149326117E+02 -0.82791349196E+00  0.45799074442E+02  0.10566000000E+00 0.  1.
         22    1    1    0    0    0 -0.11652516029E+01 -0.58283234035E+01  0.29136744473E+02  0.29736796120E+02  0.00000000000E+00 0. -1.
</event>
<event>
 5    1  0.9034917E-005  0.9118800E+02  0.7818608E-02  0.1130116E+00
         25   -1    0    0    0    0  0.00000000000E+00  0.00000000000E+00  0.99999998245E-14  0.12500000000E+03  0.12500000000E+03 0.  0.
        -13    1    3    3    0    0 -0.12670496908E+02 -0.18556398099E+01  0.48729065192E+02  0.50383706191E+02  0.10566000000E+00 0.  1.
         23    2    1    0    0    0  0.19777539346E+02 -0.10387989846E+02  0.24968980449E+02  0.91496099029E+02  0.85141204814E+02 0.  0.
         13    1    3    3    0    0  0.32448036253E+02 -0.85323500365E+01 -0.23760084743E+02  0.41112392838E+02  0.10566000000E+00 0. -1.
         22    1    1    0    0    0 -0.19777539346E+02  0.10387989846E+02 -0.24968980449E+02  0.33503900971E+02  0.00000000000E+00 0.  1.
</event>
<event>
 5    1  0.9034917E-005  0.9118800E+02  0.7818608E-02  0.1130116E+00
         25   -1    0    0    0    0  0.00000000000E+00  0.00000000000E+00  0.99999998245E-14  0.12500000000E+03  0.12500000000E+03 0.  0.
        -13    1    3    3    0    0  0.28798928204E+02 -0.19398650995E+02 -0.46967844977E+02  0.58409550178E+02  0.10566000000E+00 0. -1.
         23    2    1    0    0    0  0.66162704240E+01  0.52944467723E+01 -0.25958451760E+02  0.97693454654E+02  0.93799593088E+02 0.  0.
         13    1    3    3    0    0 -0.22182657780E+02  0.24693097767E+02  0.21009393217E+02  0.39283904477E+02  0.10566000000E+00 0.  1.
         22    1    1    0    0    0 -0.66162704240E+01 -0.52944467723E+01  0.25958451760E+02  0.27306545346E+02  0.00000000000E+00 0. -1.
</event>
<event>
 5    1  0.9034917E-005  0.9118800E+02  0.7818608E-02  0.1130116E+00
         25   -1    0    0    0    0  0.00000000000E+00  0.00000000000E+00  0.99999998245E-14  0.12500000000E+03  0.12500000000E+03 0.  0.
        -13    1    3    3    0    0 -0.24753891337E+02 -0.51334610288E+02  0.72186834083E+01  0.57446652678E+02  0.10566000000E+00 0. -1.
         23    2    1    0    0    0 -0.58164835185E+01 -0.27651320918E+02 -0.13003698009E+02  0.93894965183E+02  0.88593122170E+02 0.  0.
         13    1    3    3    0    0  0.18937407818E+02  0.23683289369E+02 -0.20222381418E+02  0.36448312505E+02  0.10566000000E+00 0.  1.
         22    1    1    0    0    0  0.58164835185E+01  0.27651320918E+02  0.13003698009E+02  0.31105034817E+02  0.00000000000E+00 0. -1.
</event>
<event>
 5    1  0.9034917E-005  0.9118800E+02  0.7818608E-02  0.1130116E+00
         25   -1    0    0    0    0  0.00000000000E+00  0.00000000000E+00  0.99999998245E-14  0.12500000000E+03  0.12500000000E+03 0.  0.
        -13    1    3    3    0    0  0.52436369951E+02  0.31931838680E+02 -0.43900792862E+01  0.61550785334E+02  0.10566000000E+00 0.  1.
         23    2    1    0    0    0  0.28136299981E+02  0.91346985966E+01  0.14675578946E+01  0.95381630341E+02  0.90666463399E+02 0.  0.
         13    1    3    3    0    0 -0.24300069969E+02 -0.22797140083E+02  0.58576371807E+01  0.33830845007E+02  0.10566000000E+00 0. -1.
         22    1    1    0    0    0 -0.28136299981E+02 -0.91346985966E+01 -0.14675578946E+01  0.29618369659E+02  0.00000000000E+00 0.  1.
</event>
<event>
 5    1  0.9034917E-005  0.9118800E+02  0.7818608E-02  0.1130116E+00
         25   -1    0    0    0    0  0.00000000000E+00  0.00000000000E+00  0.99999998245E-14  0.12500000000E+03  0.12500000000E+03 0.  0.
        -13    1    3    3    0    0  0.45189421873E+02  0.15944481182E+02  0.67323824292E+00  0.47924677810E+02  0.10566000000E+00 0. -1.
         23    2    1    0    0    0  0.11601931558E+02 -0.19550965600E+01 -0.27375554911E+02  0.95203217872E+02  0.90420155210E+02 0.  0.
         13    1    3    3    0    0 -0.33587490315E+02 -0.17899577742E+02 -0.28048793154E+02  0.47278540063E+02  0.10566000000E+00 0.  1.
         22    1    1    0    0    0 -0.11601931558E+02  0.19550965600E+01  0.27375554911E+02  0.29796782128E+02  0.00000000000E+00 0. -1.
</event>
<event>
 5    1  0.9034917E-005  0.9118800E+02  0.7818608E-02  0.1130116E+00
         25   -1    0    0    0    0  0.00000000000E+00  0.00000000000E+00  0.99999998245E-14  0.12500000000E+03  0.12500000000E+03 0.  0.
        -13    1    3    3    0    0 -0.15506957940E+02  0.45344875228E+02  0.35357536949E+02  0.59554932937E+02  0.10566000000E+00 0.  1.
         23    2    1    0    0    0  0.55748204124E+01  0.25373996793E+02  0.18132581958E+02  0.93318635378E+02  0.87776186089E+02 0.  0.
         13    1    3    3    0    0  0.21081778353E+02 -0.19970878435E+02 -0.17224954991E+02  0.33763702440E+02  0.10566000000E+00 0. -1.
         22    1    1    0    0    0 -0.55748204124E+01 -0.25373996793E+02 -0.18132581958E+02  0.31681364622E+02  0.00000000000E+00 0.  1.
</event>
<event>
 5    1  0.9034917E-005  0.9118800E+02  0.7818608E-02  0.1130116E+00
         25   -1    0    0    0    0  0.00000000000E+00  0.00000000000E+00  0.99999998245E-14  0.12500000000E+03  0.12500000000E+03 0.  0.
        -13    1    3    3    0    0  0.19517076918E+02 -0.13917753594E+02 -0.21808591357E+02  0.32407498786E+02  0.10566000000E+00 0. -1.
         23    2    1    0    0    0 -0.13872271152E+02  0.28005602999E+02  0.65873573365E+01  0.93060260131E+02  0.87407465543E+02 0.  0.
         13    1    3    3    0    0 -0.33389348070E+02  0.41923356592E+02  0.28395948694E+02  0.60652761345E+02  0.10566000000E+00 0.  1.
         22    1    1    0    0    0  0.13872271152E+02 -0.28005602999E+02 -0.65873573365E+01  0.31939739869E+02  0.00000000000E+00 0.  1.
</event>
<event>
 5    1  0.9034917E-005  0.9118800E+02  0.7818608E-02  0.1130116E+00
         25   -1    0    0    0    0  0.00000000000E+00  0.00000000000E+00  0.99999998245E-14  0.12500000000E+03  0.12500000000E+03 0.  0.
        -13    1    3    3    0    0  0.48036774986E+02  0.32364450042E+01  0.12931070397E+02  0.49852081932E+02  0.10566000000E+00 0. -1.
         23    2    1    0    0    0  0.13529187343E+02  0.15458499556E+02 -0.17930110169E+02  0.97732932512E+02  0.93852187657E+02 0.  0.
         13    1    3    3    0    0 -0.34507587642E+02  0.12222054552E+02 -0.30861180566E+02  0.47880850581E+02  0.10566000000E+00 0.  1.
         22    1    1    0    0    0 -0.13529187343E+02 -0.15458499556E+02  0.17930110169E+02  0.27267067488E+02  0.00000000000E+00 0. -1.
</event>
<event>
 5    1  0.9034917E-005  0.9118800E+02  0.7818608E-02  0.1130116E+00
         25   -1    0    0    0    0  0.00000000000E+00  0.00000000000E+00  0.99999998245E-14  0.12500000000E+03  0.12500000000E+03 0.  0.
        -13    1    3    3    0    0  0.44363348733E+02  0.24183729675E+02 -0.26897694449E+01  0.50598473450E+02  0.10566000000E+00 0.  1.
         23    2    1    0    0    0  0.39414698478E+00  0.28869479748E+02 -0.77510783650E+01  0.95105495010E+02  0.90284958617E+02 0.  0.
         13    1    3    3    0    0 -0.43969201748E+02  0.46857500732E+01 -0.50613089201E+01  0.44507021560E+02  0.10566000000E+00 0. -1.
         22    1    1    0    0    0 -0.39414698478E+00 -0.28869479748E+02  0.77510783650E+01  0.29894504990E+02  0.00000000000E+00 0.  1.
</event>
<event>
 5    1  0.9034917E-005  0.9118800E+02  0.7818608E-02  0.1130116E+00
         25   -1    0    0    0    0  0.00000000000E+00  0.00000000000E+00  0.99999998245E-14  0.12500000000E+03  0.12500000000E+03 0.  0.
        -13    1    3    3    0    0  0.20120393378E+02  0.46811652366E+02  0.17261241851E+02  0.53797050674E+02  0.10566000000E+00 0. -1.
         23    2    1    0    0    0  0.14948013504E+02  0.62764156582E+01  0.24819977921E+02  0.95354295332E+02  0.90628769345E+02 0.  0.
         13    1    3    3    0    0 -0.51723798740E+01 -0.40535236708E+02  0.75587360697E+01  0.41557244658E+02  0.10566000000E+00 0.  1.
         22    1    1    0    0    0 -0.14948013504E+02 -0.62764156582E+01 -0.24819977921E+02  0.29645704668E+02  0.00000000000E+00 0. -1.
</event>
<event>
 5    1  0.9034917E-005  0.9118800E+02  0.7818608E-02  0.1130116E+00
         25   -1    0    0    0    0  0.00000000000E+00  0.00000000000E+00  0.99999998245E-14  0.12500000000E+03  0.12500000000E+03 0.  0.
        -13    1    3    3    0    0 -0.32012729419E+02 -0.22445465196E+02  0.37833142407E+02  0.54405620860E+02  0.10566000000E+00 0.  1.
         23    2    1    0    0    0 -0.16367327708E+02 -0.25922803454E+02  0.12827334533E+01  0.94315695212E+02  0.89184773381E+02 0.  0.
         13    1    3    3    0    0  0.15645401711E+02 -0.34773382572E+01 -0.36550408954E+02  0.39910074352E+02  0.10566000000E+00 0. -1.
         22    1    1    0    0    0  0.16367327708E+02  0.25922803454E+02 -0.12827334533E+01  0.30684304788E+02  0.00000000000E+00 0.  1.
</event>
<event>
 5    1  0.9034917E-005  0.9118800E+02  0.7818608E-02  0.1130116E+00
         25   -1    0    0    0    0  0.00000000000E+00  0.00000000000E+00  0.99999998245E-14  0.12500000000E+03  0.12500000000E+03 0.  0.
        -13    1    3    3    0    0 -0.89475722191E+01  0.36388559407E+02  0.30322842332E+01  0.37595108937E+02  0.10566000000E+00 0.  1.
         23    2    1    0    0    0 -0.15187072726E+02 -0.17753664242E+02 -0.17473006536E+02  0.95825598045E+02  0.91276500324E+02 0.  0.
         13    1    3    3    0    0 -0.62395005074E+01 -0.54142223649E+02 -0.20505290769E+02  0.58230489108E+02  0.10566000000E+00 0. -1.
         22    1    1    0    0    0  0.15187072726E+02  0.17753664242E+02  0.17473006536E+02  0.29174401955E+02  0.00000000000E+00 0. -1.
</event>
<event>
 5    1  0.9034917E-005  0.9118800E+02  0.7818608E-02  0.1130116E+00
         25   -1    0    0    0    0  0.00000000000E+00  0.00000000000E+00  0.99999998245E-14  0.12500000000E+03  0.12500000000E+03 0.  0.
        -13    1    3    3    0    0 -0.17473315764E+02  0.20489134938E+02 -0.24062643896E+02  0.36112925797E+02  0.10566000000E+00 0. -1.
         23    2    1    0    0    0 -0.83890268603E+01 -0.21254247622E+02  0.17883501143E+02  0.95983824739E+02  0.91492929698E+02 0.  0.
         13    1    3    3    0    0  0.90842889038E+01 -0.41743382561E+02  0.41946145039E+02  0.59870898942E+02  0.10566000000E+00 0.  1.
         22    1    1    0    0    0  0.83890268603E+01  0.21254247622E+02 -0.17883501143E+02  0.29016175261E+02  0.00000000000E+00 0.  1.
</event>
<event>
 5    1  0.9034917E-005  0.9118800E+02  0.7818608E-02  0.1130116E+00
         25   -1    0    0    0    0  0.00000000000E+00  0.00000000000E+00  0.99999998245E-14  0.12500000000E+03  0.12500000000E+03 0.  0.
        -13    1    3    3    0    0 -0.14298478641E+02  0.16216910810E+02  0.29465107827E+02  0.36546387386E+02  0.10566000000E+00 0. -1.
         23    2    1    0    0    0  0.16362570533E+02 -0.22160740844E+02 -0.55871620230E+01  0.96892198082E+02  0.92725668078E+02 0.  0.
         13    1    3    3    0    0  0.30661049174E+02 -0.38377651654E+02 -0.35052269850E+02  0.60345810696E+02  0.10566000000E+00 0.  1.
         22    1    1    0    0    0 -0.16362570533E+02  0.22160740844E+02  0.55871620230E+01  0.28107801918E+02  0.00000000000E+00 0.  1.
</event>
<event>
 5    1  0.9034917E-005  0.9118800E+02  0.7818608E-02  0.1130116E+00
         25   -1    0    0    0    0  0.00000000000E+00  0.00000000000E+00  0.99999998245E-14  0.12500000000E+03  0.12500000000E+03 0.  0.
        -13    1    3    3    0    0  0.34019346639E+02 -0.16107710632E+01  0.11160138019E+02  0.35839508560E+02  0.10566000000E+00 0.  1.
         23    2    1    0    0    0 -0.23622603072E+02  0.72931097562E+00  0.19794670531E+02  0.94171632352E+02  0.88982628013E+02 0.  0.
         13    1    3    3    0    0 -0.57641949711E+02  0.23400820388E+01  0.86345325113E+01  0.58332123793E+02  0.10566000000E+00 0. -1.
         22    1    1    0    0    0  0.23622603072E+02 -0.72931097562E+00 -0.19794670531E+02  0.30828367648E+02  0.00000000000E+00 0. -1.
</event>
<event>
 5    1  0.9034917E-005  0.9118800E+02  0.7818608E-02  0.1130116E+00
         25   -1    0    0    0    0  0.00000000000E+00  0.00000000000E+00  0.99999998245E-14  0.12500000000E+03  0.12500000000E+03 0.  0.
        -13    1    3    3    0    0 -0.56695060607E+02 -0.17999401107E+02  0.17571392886E+02  0.62024780124E+02  0.10566000000E+00 0. -1.
         23    2    1    0    0    0 -0.37353042206E+02 -0.10353131611E+02  0.61480087012E+01  0.85754170830E+02  0.76246591449E+02 0.  0.
         13    1    3    3    0    0  0.19342018401E+02  0.76462694957E+01 -0.11423384185E+02  0.23729390706E+02  0.10566000000E+00 0.  1.
         22    1    1    0    0    0  0.37353042206E+02  0.10353131611E+02 -0.61480087012E+01  0.39245829170E+02  0.00000000000E+00 0. -1.
</event>
<event>
 5    1  0.9034917E-005  0.9118800E+02  0.7818608E-02  0.1130116E+00
         25   -1    0    0    0    0  0.00000000000E+00  0.00000000000E+00  0.99999998245E-14  0.12500000000E+03  0.12500000000E+03 0.  0.
        -13    1    3    3    0    0  0.33495172837E+02  0.31453306503E+02 -0.23632065788E+02  0.51669360270E+02  0.10566000000E+00 0. -1.
         23    2    1    0    0    0  0.10138609139E+02 -0.83195635568E+01 -0.23836343037E+02  0.97793791473E+02  0.93933209613E+02 0.  0.
         13    1    3    3    0    0 -0.23356563698E+02 -0.39772870059E+02 -0.20427724950E+00  0.46124431203E+02  0.10566000000E+00 0.  1.
         22    1    1    0    0    0 -0.10138609139E+02  0.83195635568E+01  0.23836343037E+02  0.27206208527E+02  0.00000000000E+00 0. -1.
</event>
<event>
 5    1  0.9034917E-005  0.9118800E+02  0.7818608E-02  0.1130116E+00
         25   -1    0    0    0    0  0.00000000000E+00  0.00000000000E+00  0.99999998245E-14  0.12500000000E+03  0.12500000000E+03 0.  0.
        -13    1    3    3    0    0 -0.36237756960E+02 -0.14562682704E+02 -0.11866720887E+00  0.39054730866E+02  0.10566000000E+00 0.  1.
         23    2    1    0    0    0  0.26706015601E+01  0.19622819604E+02  0.22023293763E+02  0.95382224424E+02  0.90667282445E+02 0.  0.
         13    1    3    3    0    0  0.38908358521E+02  0.34185502308E+02  0.22141960972E+02  0.56327493558E+02  0.10566000000E+00 0. -1.
         22    1    1    0    0    0 -0.26706015601E+01 -0.19622819604E+02 -0.22023293763E+02  0.29617775576E+02  0.00000000000E+00 0. -1.
</event>
<event>
 5    1  0.9034917E-005  0.9118800E+02  0.7818608E-02  0.1130116E+00
         25   -1    0    0    0    0  0.00000000000E+00  0.00000000000E+00  0.99999998245E-14  0.12500000000E+03  0.12500000000E+03 0.  0.
        -13    1    3    3    0    0 -0.30794833961E+02  0.26193430593E+02 -0.35774414035E+02  0.53983677797E+02  0.10566000000E+00 0.  1.
         23    2    1    0    0    0 -0.33692302155E+02  0.17909059714E+01 -0.31331192976E+02  0.78956300952E+02  0.64141057351E+02 0.  0.
         13    1    3    3    0    0 -0.28974681943E+01 -0.24402524621E+02  0.44432210598E+01  0.24972623155E+02  0.10566000000E+00 0. -1.
         22    1    1    0    0    0  0.33692302155E+02 -0.17909059714E+01  0.31331192976E+02  0.46043699048E+02  0.00000000000E+00 0.  1.
</event>
<event>
 5    1  0.9034917E-005  0.9118800E+02  0.7818608E-02  0.1130116E+00
         25   -1    0    0    0    0  0.00000000000E+00  0.00000000000E+00  0.99999998245E-14  0.12500000000E+03  0.12500000000E+03 0.  0.
        -13    1    3    3    0    0 -0.27921349230E+02  0.26717926090E+02  0.20463103144E+01  0.38699455646E+02  0.10566000000E+00 0.  1.
         23    2    1    0    0    0 -0.31552375986E+01 -0.10457012409E+02 -0.29604082762E+02  0.93445185011E+02  0.87956217817E+02 0.  0.
         13    1    3    3    0    0  0.24766111631E+02 -0.37174938499E+02 -0.31650393076E+02  0.54745729365E+02  0.10566000000E+00 0. -1.
         22    1    1    0    0    0  0.31552375986E+01  0.10457012409E+02  0.29604082762E+02  0.31554814989E+02  0.00000000000E+00 0. -1.
</event>
<event>
 5    1  0.9034917E-005  0.9118800E+02  0.7818608E-02  0.1130116E+00
         25   -1    0    0    0    0  0.00000000000E+00  0.00000000000E+00  0.99999998245E-14  0.12500000000E+03  0.12500000000E+03 0.  0.
        -13    1    3    3    0    0 -0.23709536738E+02 -0.18434183219E+02  0.63536195461E+01  0.30697571381E+02  0.10566000000E+00 0. -1.
         23    2    1    0    0    0  0.32500085738E+02  0.52831656052E+01  0.47945635980E+01  0.91726057464E+02  0.85478151396E+02 0.  0.
         13    1    3    3    0    0  0.56209622476E+02  0.23717348824E+02 -0.15590559481E+01  0.61028486084E+02  0.10566000000E+00 0.  1.
         22    1    1    0    0    0 -0.32500085738E+02 -0.52831656052E+01 -0.47945635980E+01  0.33273942536E+02  0.00000000000E+00 0.  1.
</event>
<event>
 5    1  0.9034917E-005  0.9118800E+02  0.7818608E-02  0.1130116E+00
         25   -1    0    0    0    0  0.00000000000E+00  0.00000000000E+00  0.99999998245E-14  0.12500000000E+03  0.12500000000E+03 0.  0.
        -13    1    3    3    0    0  0.40043634706E+02  0.24232292293E+02 -0.16772749321E+02  0.49719542979E+02  0.10566000000E+00 0.  1.
         23    2    1    0    0    0  0.21183128212E+02  0.29937376781E+01  0.19679385438E+02  0.95931708042E+02  0.91421698795E+02 0.  0.
         13    1    3    3    0    0 -0.18860506494E+02 -0.21238554615E+02  0.36452134759E+02  0.46212165063E+02  0.10566000000E+00 0. -1.
         22    1    1    0    0    0 -0.21183128212E+02 -0.29937376781E+01 -0.19679385438E+02  0.29068291958E+02  0.00000000000E+00 0. -1.
</event>
<event>
 5    1  0.9034917E-005  0.9118800E+02  0.7818608E-02  0.1130116E+00
         25   -1    0    0    0    0  0.00000000000E+00  0.00000000000E+00  0.99999998245E-14  0.12500000000E+03  0.12500000000E+03 0.  0.
        -13    1    3    3    0    0  0.10076595270E+02  0.57452033933E+02 -0.19625619328E+02  0.61542262497E+02  0.10566000000E+00 0. -1.
         23    2    1    0    0    0 -0.27890535128E+01  0.26418823253E+02 -0.11148571590E+02  0.96189868274E+02  0.91773999959E+02 0.  0.
         13    1    3    3    0    0 -0.12865648783E+02 -0.31033210680E+02  0.84770477377E+01  0.34647605777E+02  0.10566000000E+00 0.  1.
         22    1    1    0    0    0  0.27890535128E+01 -0.26418823253E+02  0.11148571590E+02  0.28810131726E+02  0.00000000000E+00 0. -1.
</event>
<event>
 5    1  0.9034917E-005  0.9118800E+02  0.7818608E-02  0.1130116E+00
         25   -1    0    0    0    0  0.00000000000E+00  0.00000000000E+00  0.99999998245E-14  0.12500000000E+03  0.12500000000E+03 0.  0.
        -13    1    3    3    0    0 -0.48730476111E+02 -0.21797390498E+02 -0.53603598033E+00  0.53386178297E+02  0.10566000000E+00 0.  1.
         23    2    1    0    0    0 -0.12404057419E+02 -0.21415066062E+02 -0.18679747668E+02  0.93993570540E+02  0.88732139809E+02 0.  0.
         13    1    3    3    0    0  0.36326418692E+02  0.38232443674E+00 -0.18143711688E+02  0.40607392243E+02  0.10566000000E+00 0. -1.
         22    1    1    0    0    0  0.12404057419E+02  0.21415066062E+02  0.18679747668E+02  0.31006429460E+02  0.00000000000E+00 0.  1.
</event>
<event>
 5    1  0.9034917E-005  0.9118800E+02  0.7818608E-02  0.1130116E+00
         25   -1    0    0    0    0  0.00000000000E+00  0.00000000000E+00  0.99999998245E-14  0.12500000000E+03  0.12500000000E+03 0.  0.
        -13    1    3    3    0    0  0.38014476821E+02 -0.14323607116E+02  0.41748795533E+02  0.58251517245E+02  0.10566000000E+00 0. -1.
         23    2    1    0    0    0  0.27635156304E+02 -0.26450369091E+01  0.69728724428E+01  0.96376250520E+02  0.92027510180E+02 0.  0.
         13    1    3    3    0    0 -0.10379320517E+02  0.11678570207E+02 -0.34775923090E+02  0.38124733275E+02  0.10566000000E+00 0.  1.
         22    1    1    0    0    0 -0.27635156304E+02  0.26450369091E+01 -0.69728724428E+01  0.28623749480E+02  0.00000000000E+00 0. -1.
</event>
<event>
 5    1  0.9034917E-005  0.9118800E+02  0.7818608E-02  0.1130116E+00
         25   -1    0    0    0    0  0.00000000000E+00  0.00000000000E+00  0.99999998245E-14  0.12500000000E+03  0.12500000000E+03 0.  0.
        -13    1    3    3    0    0 -0.17617933342E+02 -0.49976289292E+02  0.16397201158E+02  0.55469815544E+02  0.10566000000E+00 0. -1.
         23    2    1    0    0    0  0.12825631220E+02 -0.24455834185E+02  0.95453119642E+01  0.95781895640E+02  0.91216631762E+02 0.  0.
         13    1    3    3    0    0  0.30443564562E+02  0.25520455107E+02 -0.68518891937E+01  0.40312080096E+02  0.10566000000E+00 0.  1.
         22    1    1    0    0    0 -0.12825631220E+02  0.24455834185E+02 -0.95453119642E+01  0.29218104360E+02  0.00000000000E+00 0. -1.
</event>
<event>
 5    1  0.9034917E-005  0.9118800E+02  0.7818608E-02  0.1130116E+00
         25   -1    0    0    0    0  0.00000000000E+00  0.00000000000E+00  0.99999998245E-14  0.12500000000E+03  0.12500000000E+03 0.  0.
        -13    1    3    3    0    0 -0.31239412481E+02  0.14216104271E+02 -0.40831756131E+02  0.53340809758E+02  0.10566000000E+00 0.  1.
         23    2    1    0    0    0 -0.11284465528E+02 -0.17302567600E+02 -0.20806870443E+02  0.95680316076E+02  0.91077324395E+02 0.  0.
         13    1    3    3    0    0  0.19954946952E+02 -0.31518671871E+02  0.20024885688E+02  0.42339506318E+02  0.10566000000E+00 0. -1.
         22    1    1    0    0    0  0.11284465528E+02  0.17302567600E+02  0.20806870443E+02  0.29319683924E+02  0.00000000000E+00 0.  1.
</event>
<event>
 5    1  0.9034917E-005  0.9118800E+02  0.7818608E-02  0.1130116E+00
         25   -1    0    0    0    0  0.00000000000E+00  0.00000000000E+00  0.99999998245E-14  0.12500000000E+03  0.12500000000E+03 0.  0.
        -13    1    3    3    0    0 -0.30845207143E+02 -0.34275027158E+02  0.28970957367E+02  0.54456696789E+02  0.10566000000E+00 0. -1.
         23    2    1    0    0    0 -0.29278569858E+02 -0.73134907730E+01 -0.10057323770E+01  0.94805078277E+02  0.89868067573E+02 0.  0.
         13    1    3    3    0    0  0.15666372847E+01  0.26961536385E+02 -0.29976689744E+02  0.40348381488E+02  0.10566000000E+00 0.  1.
         22    1    1    0    0    0  0.29278569858E+02  0.73134907730E+01  0.10057323770E+01  0.30194921723E+02  0.00000000000E+00 0.  1.
</event>
<event>
 5    1  0.9034917E-005  0.9118800E+02  0.7818608E-02  0.1130116E+00
         25   -1    0    0    0    0  0.00000000000E+00  0.00000000000E+00  0.99999998245E-14  0.12500000000E+03  0.12500000000E+03 0.  0.
        -13    1    3    3    0    0  0.32909563174E+02  0.47368503571E+02 -0.66558504637E+01  0.58061398436E+02  0.10566000000E+00 0. -1.
         23    2    1    0    0    0  0.19629606191E+02  0.13771557025E+02 -0.16961141380E+02  0.95628967689E+02  0.91006823492E+02 0.  0.
         13    1    3    3    0    0 -0.13279956983E+02 -0.33596946546E+02 -0.10305290917E+02  0.37567569253E+02  0.10566000000E+00 0.  1.
         22    1    1    0    0    0 -0.19629606191E+02 -0.13771557025E+02  0.16961141380E+02  0.29371032311E+02  0.00000000000E+00 0. -1.
</event>
<event>
 5    1  0.9034917E-005  0.9118800E+02  0.7818608E-02  0.1130116E+00
         25   -1    0    0    0    0  0.00000000000E+00  0.00000000000E+00  0.99999998245E-14  0.12500000000E+03  0.12500000000E+03 0.  0.
        -13    1    3    3    0    0  0.16957860491E+02 -0.16325540383E+02  0.22585922912E+02  0.32622498050E+02  0.10566000000E+00 0. -1.
         23    2    1    0    0    0 -0.24517287573E+02  0.18331533304E+02  0.23059919427E+02  0.86673737631E+02  0.77739529248E+02 0.  0.
         13    1    3    3    0    0 -0.41475148064E+02  0.34657073687E+02  0.47399651511E+00  0.54051239580E+02  0.10566000000E+00 0.  1.
         22    1    1    0    0    0  0.24517287573E+02 -0.18331533304E+02 -0.23059919427E+02  0.38326262369E+02  0.00000000000E+00 0.  1.
</event>
<event>
 5    1  0.9034917E-005  0.9118800E+02  0.7818608E-02  0.1130116E+00
         25   -1    0    0    0    0  0.00000000000E+00  0.00000000000E+00  0.99999998245E-14  0.12500000000E+03  0.12500000000E+03 0.  0.
        -13    1    3    3    0    0  0.17845613961E+02  0.40962150019E+02 -0.20096618348E+02  0.48992335165E+02  0.10566000000E+00 0.  1.
         23    2    1    0    0    0 -0.20249591397E+02  0.19501680356E+02 -0.15338061808E+02  0.92974734529E+02  0.87285071073E+02 0.  0.
         13    1    3    3    0    0 -0.38095205358E+02 -0.21460469664E+02  0.47585565397E+01  0.43982399364E+02  0.10566000000E+00 0. -1.
         22    1    1    0    0    0  0.20249591397E+02 -0.19501680356E+02  0.15338061808E+02  0.32025265471E+02  0.00000000000E+00 0.  1.
</event>
<event>
 5    1  0.9034917E-005  0.9118800E+02  0.7818608E-02  0.1130116E+00
         25   -1    0    0    0    0  0.00000000000E+00  0.00000000000E+00  0.99999998245E-14  0.12500000000E+03  0.12500000000E+03 0.  0.
        -13    1    3    3    0    0  0.25245434950E+02 -0.19137768825E+02 -0.13166386137E+02  0.34306720470E+02  0.10566000000E+00 0.  1.
         23    2    1    0    0    0 -0.12148070359E+02  0.25313914382E+02  0.74593980686E+01  0.95948106871E+02  0.91444118006E+02 0.  0.
         13    1    3    3    0    0 -0.37393505310E+02  0.44451683208E+02  0.20625784206E+02  0.61641386401E+02  0.10566000000E+00 0. -1.
         22    1    1    0    0    0  0.12148070359E+02 -0.25313914382E+02 -0.74593980686E+01  0.29051893129E+02  0.00000000000E+00 0. -1.
</event>
<event>
 5    1  0.9034917E-005  0.9118800E+02  0.7818608E-02  0.1130116E+00
         25   -1    0    0    0    0  0.00000000000E+00  0.00000000000E+00  0.99999998245E-14  0.12500000000E+03  0.12500000000E+03 0.  0.
        -13    1    3    3    0    0 -0.15436926545E+02  0.14429781337E+02 -0.41828023196E+02  0.46862692828E+02  0.10566000000E+00 0.  1.
         23    2    1    0    0    0 -0.34692087736E+02  0.21134032057E+02 -0.12660113142E+02  0.82450420363E+02  0.70622978490E+02 0.  0.
         13    1    3    3    0    0 -0.19255161191E+02  0.67042507192E+01  0.29167910053E+02  0.35587727535E+02  0.10566000000E+00 0. -1.
         22    1    1    0    0    0  0.34692087736E+02 -0.21134032057E+02  0.12660113142E+02  0.42549579637E+02  0.00000000000E+00 0. -1.
</event>
<event>
 5    1  0.9034917E-005  0.9118800E+02  0.7818608E-02  0.1130116E+00
         25   -1    0    0    0    0  0.00000000000E+00  0.00000000000E+00  0.99999998245E-14  0.12500000000E+03  0.12500000000E+03 0.  0.
        -13    1    3    3    0    0 -0.28680024878E+02  0.23391831331E+02 -0.22693771367E+01  0.37079412571E+02  0.10566000000E+00 0.  1.
         23    2    1    0    0    0 -0.93049750084E+01 -0.17961866902E+02  0.26955866371E+02  0.91297923590E+02  0.84849754847E+02 0.  0.
         13    1    3    3    0    0  0.19375049869E+02 -0.41353698233E+02  0.29225243508E+02  0.54218511019E+02  0.10566000000E+00 0. -1.
         22    1    1    0    0    0  0.93049750084E+01  0.17961866902E+02 -0.26955866371E+02  0.33702076410E+02  0.00000000000E+00 0.  1.
</event>
<event>
 5    1  0.9034917E-005  0.9118800E+02  0.7818608E-02  0.1130116E+00
         25   -1    0    0    0    0  0.00000000000E+00  0.00000000000E+00  0.99999998245E-14  0.12500000000E+03  0.12500000000E+03 0.  0.
        -13    1    3    3    0    0 -0.14665199241E+02  0.27543429666E+02 -0.22009158758E+02  0.38185374423E+02  0.10566000000E+00 0. -1.
         23    2    1    0    0    0 -0.27756606789E+01  0.78330949961E+01  0.29365500800E+02  0.94481246640E+02  0.89416506642E+02 0.  0.
         13    1    3    3    0    0  0.11889538562E+02 -0.19710334670E+02  0.51374659558E+02  0.56295872217E+02  0.10566000000E+00 0.  1.
         22    1    1    0    0    0  0.27756606789E+01 -0.78330949961E+01 -0.29365500800E+02  0.30518753360E+02  0.00000000000E+00 0.  1.
</event>
<event>
 5    1  0.9034917E-005  0.9118800E+02  0.7818608E-02  0.1130116E+00
         25   -1    0    0    0    0  0.00000000000E+00  0.00000000000E+00  0.99999998245E-14  0.12500000000E+03  0.12500000000E+03 0.  0.
        -13    1    3    3    0    0  0.19093055590E+02 -0.27697846822E+02 -0.49785995664E+01  0.34007544869E+02  0.10566000000E+00 0. -1.
         23    2    1    0    0    0  0.36345819545E+02 -0.50542904442E+01  0.28923035307E+02  0.78276275602E+02  0.62801822429E+02 0.  0.
         13    1    3    3    0    0  0.17252763955E+02  0.22643556378E+02  0.33901634874E+02  0.44268730733E+02  0.10566000000E+00 0.  1.
         22    1    1    0    0    0 -0.36345819545E+02  0.50542904442E+01 -0.28923035307E+02  0.46723724398E+02  0.00000000000E+00 0.  1.
</event>
<event>
 5    1  0.9034917E-005  0.9118800E+02  0.7818608E-02  0.1130116E+00
         25   -1    0    0    0    0  0.00000000000E+00  0.00000000000E+00  0.99999998245E-14  0.12500000000E+03  0.12500000000E+03 0.  0.
        -13    1    3    3    0    0  0.41323703115E+02  0.22124425449E+02  0.15280690418E+02  0.49301615636E+02  0.10566000000E+00 0. -1.
         23    2    1    0    0    0 -0.68289830424E+01  0.20497160654E+02  0.16994160578E+02  0.97512364634E+02  0.93557956147E+02 0.  0.
         13    1    3    3    0    0 -0.48152686158E+02 -0.16272647949E+01  0.17134701605E+01  0.48210748998E+02  0.10566000000E+00 0.  1.
         22    1    1    0    0    0  0.68289830424E+01 -0.20497160654E+02 -0.16994160578E+02  0.27487635366E+02  0.00000000000E+00 0.  1.
</event>
<event>
 5    1  0.9034917E-005  0.9118800E+02  0.7818608E-02  0.1130116E+00
         25   -1    0    0    0    0  0.00000000000E+00  0.00000000000E+00  0.99999998245E-14  0.12500000000E+03  0.12500000000E+03 0.  0.
        -13    1    3    3    0    0  0.32686149472E+01  0.24133988977E+02 -0.28257799890E+02  0.37304794414E+02  0.10566000000E+00 0. -1.
         23    2    1    0    0    0 -0.47876694689E+01 -0.28605142571E+02 -0.47281736608E+01  0.95614092040E+02  0.90986389147E+02 0.  0.
         13    1    3    3    0    0 -0.80562844160E+01 -0.52739131548E+02  0.23529626230E+02  0.58309297626E+02  0.10566000000E+00 0.  1.
         22    1    1    0    0    0  0.47876694689E+01  0.28605142571E+02  0.47281736608E+01  0.29385907960E+02  0.00000000000E+00 0.  1.
</event>
<event>
 5    1  0.9034917E-005  0.9118800E+02  0.7818608E-02  0.1130116E+00
         25   -1    0    0    0    0  0.00000000000E+00  0.00000000000E+00  0.99999998245E-14  0.12500000000E+03  0.12500000000E+03 0.  0.
        -13    1    3    3    0    0  0.19334229765E+02 -0.72219699212E+01 -0.38449872654E+02  0.43639124204E+02  0.10566000000E+00 0.  1.
         23    2    1    0    0    0 -0.13658436939E+02 -0.17853127565E+02  0.75948701369E+01  0.10127302978E+03  0.98454341930E+02 0.  0.
         13    1    3    3    0    0 -0.32992666704E+02 -0.10631157643E+02  0.46044742791E+02  0.57633905575E+02  0.10566000000E+00 0. -1.
         22    1    1    0    0    0  0.13658436939E+02  0.17853127565E+02 -0.75948701369E+01  0.23726970220E+02  0.00000000000E+00 0. -1.
</event>
<event>
 5    1  0.9034917E-005  0.9118800E+02  0.7818608E-02  0.1130116E+00
         25   -1    0    0    0    0  0.00000000000E+00  0.00000000000E+00  0.99999998245E-14  0.12500000000E+03  0.12500000000E+03 0.  0.
        -13    1    3    3    0    0  0.17903898205E+02  0.24521458024E+02  0.10621812801E+02  0.32166528346E+02  0.10566000000E+00 0.  1.
         23    2    1    0    0    0 -0.21497276185E+02 -0.95584841852E+01 -0.21299767990E+02  0.93263938181E+02  0.87698258508E+02 0.  0.
         13    1    3    3    0    0 -0.39401174391E+02 -0.34079942210E+02 -0.31921580792E+02  0.61097409836E+02  0.10566000000E+00 0. -1.
         22    1    1    0    0    0  0.21497276185E+02  0.95584841852E+01  0.21299767990E+02  0.31736061819E+02  0.00000000000E+00 0. -1.
</event>
<event>
 5    1  0.9034917E-005  0.9118800E+02  0.7818608E-02  0.1130116E+00
         25   -1    0    0    0    0  0.00000000000E+00  0.00000000000E+00  0.99999998245E-14  0.12500000000E+03  0.12500000000E+03 0.  0.
        -13    1    3    3    0    0 -0.37511972763E+02 -0.27233067038E+02 -0.37449785655E+02  0.59592664402E+02  0.10566000000E+00 0. -1.
         23    2    1    0    0    0 -0.14428260827E+02 -0.29090774295E+00 -0.22885175541E+02  0.97944675250E+02  0.94133781462E+02 0.  0.
         13    1    3    3    0    0  0.23083711936E+02  0.26942159295E+02  0.14564610114E+02  0.38352010847E+02  0.10566000000E+00 0.  1.
         22    1    1    0    0    0  0.14428260827E+02  0.29090774295E+00  0.22885175541E+02  0.27055324750E+02  0.00000000000E+00 0. -1.
</event>
<event>
 5    1  0.9034917E-005  0.9118800E+02  0.7818608E-02  0.1130116E+00
         25   -1    0    0    0    0  0.00000000000E+00  0.00000000000E+00  0.99999998245E-14  0.12500000000E+03  0.12500000000E+03 0.  0.
        -13    1    3    3    0    0  0.35863679088E+01  0.22100535556E+02  0.22186853010E+02  0.31520839411E+02  0.10566000000E+00 0.  1.
         23    2    1    0    0    0 -0.33248474088E+02 -0.16530513927E+02  0.12845476186E+02  0.85709731761E+02  0.76173702419E+02 0.  0.
         13    1    3    3    0    0 -0.36834841997E+02 -0.38631049483E+02 -0.93413768241E+01  0.54188892350E+02  0.10566000000E+00 0. -1.
         22    1    1    0    0    0  0.33248474088E+02  0.16530513927E+02 -0.12845476186E+02  0.39290268239E+02  0.00000000000E+00 0. -1.
</event>
<event>
 5    1  0.9034917E-005  0.9118800E+02  0.7818608E-02  0.1130116E+00
         25   -1    0    0    0    0  0.00000000000E+00  0.00000000000E+00  0.99999998245E-14  0.12500000000E+03  0.12500000000E+03 0.  0.
        -13    1    3    3    0    0  0.70259027532E+01 -0.40638088822E+02 -0.20489049809E+02  0.46050297488E+02  0.10566000000E+00 0.  1.
         23    2    1    0    0    0 -0.14174240169E+02 -0.17830905432E+02  0.18292449836E+02  0.95785893923E+02  0.91222110701E+02 0.  0.
         13    1    3    3    0    0 -0.21200142922E+02  0.22807183390E+02  0.38781499644E+02  0.49735596435E+02  0.10566000000E+00 0. -1.
         22    1    1    0    0    0  0.14174240169E+02  0.17830905432E+02 -0.18292449836E+02  0.29214106077E+02  0.00000000000E+00 0. -1.
</event>
<event>
 5    1  0.9034917E-005  0.9118800E+02  0.7818608E-02  0.1130116E+00
         25   -1    0    0    0    0  0.00000000000E+00  0.00000000000E+00  0.99999998245E-14  0.12500000000E+03  0.12500000000E+03 0.  0.
        -13    1    3    3    0    0  0.20152268272E+02  0.42924929997E+02 -0.40109595504E+02  0.62108408024E+02  0.10566000000E+00 0.  1.
         23    2    1    0    0    0  0.13381256429E+02  0.17228791162E+02 -0.19551455506E+02  0.95705825137E+02  0.91112327838E+02 0.  0.
         13    1    3    3    0    0 -0.67710118432E+01 -0.25696138835E+02  0.20558139998E+02  0.33597417112E+02  0.10566000000E+00 0. -1.
         22    1    1    0    0    0 -0.13381256429E+02 -0.17228791162E+02  0.19551455506E+02  0.29294174863E+02  0.00000000000E+00 0.  1.
</event>
<event>
 5    1  0.9034917E-005  0.9118800E+02  0.7818608E-02  0.1130116E+00
         25   -1    0    0    0    0  0.00000000000E+00  0.00000000000E+00  0.99999998245E-14  0.12500000000E+03  0.12500000000E+03 0.  0.
        -13    1    3    3    0    0  0.52679797911E+01 -0.32360559074E+02  0.21084428233E+02  0.38981042477E+02  0.10566000000E+00 0. -1.
         23    2    1    0    0    0  0.12787026445E+02  0.23436627008E+02  0.10727761048E+02  0.96227297869E+02  0.91824966470E+02 0.  0.
         13    1    3    3    0    0  0.75190466536E+01  0.55797186082E+02 -0.10356667184E+02  0.57246255392E+02  0.10566000000E+00 0.  1.
         22    1    1    0    0    0 -0.12787026445E+02 -0.23436627008E+02 -0.10727761048E+02  0.28772702131E+02  0.00000000000E+00 0. -1.
</event>
<event>
 5    1  0.9034917E-005  0.9118800E+02  0.7818608E-02  0.1130116E+00
         25   -1    0    0    0    0  0.00000000000E+00  0.00000000000E+00  0.99999998245E-14  0.12500000000E+03  0.12500000000E+03 0.  0.
        -13    1    3    3    0    0 -0.30906886812E+02  0.21262539269E+02 -0.36314654683E+02  0.52212034411E+02  0.10566000000E+00 0.  1.
         23    2    1    0    0    0 -0.28840839176E+02 -0.65316941438E+01 -0.35670449650E+01  0.95214418882E+02  0.90435638553E+02 0.  0.
         13    1    3    3    0    0  0.20660476356E+01 -0.27794233413E+02  0.32747609718E+02  0.43002384471E+02  0.10566000000E+00 0. -1.
         22    1    1    0    0    0  0.28840839176E+02  0.65316941438E+01  0.35670449650E+01  0.29785581118E+02  0.00000000000E+00 0.  1.
</event>
<event>
 5    1  0.9034917E-005  0.9118800E+02  0.7818608E-02  0.1130116E+00
         25   -1    0    0    0    0  0.00000000000E+00  0.00000000000E+00  0.99999998245E-14  0.12500000000E+03  0.12500000000E+03 0.  0.
        -13    1    3    3    0    0  0.36832050555E+02 -0.29851392050E+02 -0.70448200188E+00  0.47415324679E+02  0.10566000000E+00 0.  1.
         23    2    1    0    0    0  0.16964775039E+02  0.76898165292E+01  0.22480653728E+02  0.95805537128E+02  0.91249023457E+02 0.  0.
         13    1    3    3    0    0 -0.19867275516E+02  0.37541208579E+02  0.23185135730E+02  0.48390212449E+02  0.10566000000E+00 0. -1.
         22    1    1    0    0    0 -0.16964775039E+02 -0.76898165292E+01 -0.22480653728E+02  0.29194462872E+02  0.00000000000E+00 0. -1.
</event>
<event>
 5    1  0.9034917E-005  0.9118800E+02  0.7818608E-02  0.1130116E+00
         25   -1    0    0    0    0  0.00000000000E+00  0.00000000000E+00  0.99999998245E-14  0.12500000000E+03  0.12500000000E+03 0.  0.
        -13    1    3    3    0    0  0.41656538023E+02  0.10936232350E+02  0.29098199877E+02  0.51976771140E+02  0.10566000000E+00 0.  1.
         23    2    1    0    0    0 -0.16251312964E+01  0.87831655167E+01  0.28304694889E+02  0.95319353090E+02  0.90580562333E+02 0.  0.
         13    1    3    3    0    0 -0.43281669320E+02 -0.21530668334E+01 -0.79350498750E+00  0.43342581950E+02  0.10566000000E+00 0. -1.
         22    1    1    0    0    0  0.16251312964E+01 -0.87831655167E+01 -0.28304694889E+02  0.29680646910E+02  0.00000000000E+00 0.  1.
</event>
<event>
 5    1  0.9034917E-005  0.9118800E+02  0.7818608E-02  0.1130116E+00
         25   -1    0    0    0    0  0.00000000000E+00  0.00000000000E+00  0.99999998245E-14  0.12500000000E+03  0.12500000000E+03 0.  0.
        -13    1    3    3    0    0  0.25107512435E+01 -0.35625768501E+02  0.10896232071E+01  0.35730906731E+02  0.10566000000E+00 0. -1.
         23    2    1    0    0    0 -0.22101496746E+02  0.18257549896E+02  0.76447864255E+01  0.95330873857E+02  0.90596459446E+02 0.  0.
         13    1    3    3    0    0 -0.24612247989E+02  0.53883318396E+02  0.65551632184E+01  0.59599967126E+02  0.10566000000E+00 0.  1.
         22    1    1    0    0    0  0.22101496746E+02 -0.18257549896E+02 -0.76447864255E+01  0.29669126143E+02  0.00000000000E+00 0.  1.
</event>
<event>
 5    1  0.9034917E-005  0.9118800E+02  0.7818608E-02  0.1130116E+00
         25   -1    0    0    0    0  0.00000000000E+00  0.00000000000E+00  0.99999998245E-14  0.12500000000E+03  0.12500000000E+03 0.  0.
        -13    1    3    3    0    0 -0.30609848097E+02  0.92409710090E+01  0.11595245722E+02  0.34012045412E+02  0.10566000000E+00 0.  1.
         23    2    1    0    0    0  0.27998430938E+02  0.43534107467E+01 -0.72190416102E+01  0.95759978080E+02  0.91186591777E+02 0.  0.
         13    1    3    3    0    0  0.58608279036E+02 -0.48875602623E+01 -0.18814287332E+02  0.61747932667E+02  0.10566000000E+00 0. -1.
         22    1    1    0    0    0 -0.27998430938E+02 -0.43534107467E+01  0.72190416102E+01  0.29240021920E+02  0.00000000000E+00 0. -1.
</event>
<event>
 5    1  0.9034917E-005  0.9118800E+02  0.7818608E-02  0.1130116E+00
         25   -1    0    0    0    0  0.00000000000E+00  0.00000000000E+00  0.99999998245E-14  0.12500000000E+03  0.12500000000E+03 0.  0.
        -13    1    3    3    0    0  0.43695532878E+02  0.32388586060E+02  0.29910467539E+02  0.62072275074E+02  0.10566000000E+00 0.  1.
         23    2    1    0    0    0  0.16755189867E+02  0.16875719980E+02  0.17166134857E+02  0.95670791040E+02  0.91064250724E+02 0.  0.
         13    1    3    3    0    0 -0.26940343011E+02 -0.15512866079E+02 -0.12744332682E+02  0.33598515966E+02  0.10566000000E+00 0. -1.
         22    1    1    0    0    0 -0.16755189867E+02 -0.16875719980E+02 -0.17166134857E+02  0.29329208960E+02  0.00000000000E+00 0.  1.
</event>
<event>
 5    1  0.9034917E-005  0.9118800E+02  0.7818608E-02  0.1130116E+00
         25   -1    0    0    0    0  0.00000000000E+00  0.00000000000E+00  0.99999998245E-14  0.12500000000E+03  0.12500000000E+03 0.  0.
        -13    1    3    3    0    0 -0.58628721332E+02  0.51092652389E+01 -0.96461167132E-01  0.58851100458E+02  0.10566000000E+00 0.  1.
         23    2    1    0    0    0 -0.27846447373E+02  0.22604829917E+00  0.14876064239E+02  0.93428287719E+02  0.87932200756E+02 0.  0.
         13    1    3    3    0    0  0.30782273960E+02 -0.48832169397E+01  0.14972525406E+02  0.34577187261E+02  0.10566000000E+00 0. -1.
         22    1    1    0    0    0  0.27846447373E+02 -0.22604829917E+00 -0.14876064239E+02  0.31571712281E+02  0.00000000000E+00 0.  1.
</event>
<event>
 5    1  0.9034917E-005  0.9118800E+02  0.7818608E-02  0.1130116E+00
         25   -1    0    0    0    0  0.00000000000E+00  0.00000000000E+00  0.99999998245E-14  0.12500000000E+03  0.12500000000E+03 0.  0.
        -13    1    3    3    0    0 -0.35410763758E+02  0.98479614607E+01 -0.29361143273E+02  0.47042453520E+02  0.10566000000E+00 0. -1.
         23    2    1    0    0    0  0.81160601527E+01  0.83436912378E+01 -0.32272449765E+02  0.90692586374E+02  0.83953240518E+02 0.  0.
         13    1    3    3    0    0  0.43526823911E+02 -0.15042702230E+01 -0.29113064917E+01  0.43650132854E+02  0.10566000000E+00 0.  1.
         22    1    1    0    0    0 -0.81160601527E+01 -0.83436912378E+01  0.32272449765E+02  0.34307413626E+02  0.00000000000E+00 0. -1.
</event>
<event>
 5    1  0.9034917E-005  0.9118800E+02  0.7818608E-02  0.1130116E+00
         25   -1    0    0    0    0  0.00000000000E+00  0.00000000000E+00  0.99999998245E-14  0.12500000000E+03  0.12500000000E+03 0.  0.
        -13    1    3    3    0    0  0.41959872236E+02  0.11737869524E+02  0.32972776515E+02  0.54640860299E+02  0.10566000000E+00 0.  1.
         23    2    1    0    0    0  0.19186453479E+01  0.20880239157E+02  0.13184880268E+02  0.10023093351E+03  0.97122259945E+02 0.  0.
         13    1    3    3    0    0 -0.40041226888E+02  0.91423696331E+01 -0.19787896247E+02  0.45590073209E+02  0.10566000000E+00 0. -1.
         22    1    1    0    0    0 -0.19186453479E+01 -0.20880239157E+02 -0.13184880268E+02  0.24769066493E+02  0.00000000000E+00 0.  1.
</event>
<event>
 5    1  0.9034917E-005  0.9118800E+02  0.7818608E-02  0.1130116E+00
         25   -1    0    0    0    0  0.00000000000E+00  0.00000000000E+00  0.99999998245E-14  0.12500000000E+03  0.12500000000E+03 0.  0.
        -13    1    3    3    0    0  0.45434802301E+02 -0.67114167020E+01 -0.51130876672E+01  0.46211678218E+02  0.10566000000E+00 0. -1.
         23    2    1    0    0    0  0.51741087053E+01 -0.28226418834E+02  0.10478661644E+02  0.94449967742E+02  0.89372769541E+02 0.  0.
         13    1    3    3    0    0 -0.40260693595E+02 -0.21515002132E+02  0.15591749311E+02  0.48238289524E+02  0.10566000000E+00 0.  1.
         22    1    1    0    0    0 -0.51741087053E+01  0.28226418834E+02 -0.10478661644E+02  0.30550032258E+02  0.00000000000E+00 0.  1.
</event>
<event>
 5    1  0.9034917E-005  0.9118800E+02  0.7818608E-02  0.1130116E+00
         25   -1    0    0    0    0  0.00000000000E+00  0.00000000000E+00  0.99999998245E-14  0.12500000000E+03  0.12500000000E+03 0.  0.
        -13    1    3    3    0    0 -0.28210191516E+02 -0.17921376830E+02  0.27524724048E+02  0.43296792615E+02  0.10566000000E+00 0.  1.
         23    2    1    0    0    0  0.14523577924E+02 -0.25956734800E+02 -0.89433187252E+00  0.95242879395E+02  0.90474968078E+02 0.  0.
         13    1    3    3    0    0  0.42733769440E+02 -0.80353579704E+01 -0.28419055920E+02  0.51946086780E+02  0.10566000000E+00 0. -1.
         22    1    1    0    0    0 -0.14523577924E+02  0.25956734800E+02  0.89433187252E+00  0.29757120605E+02  0.00000000000E+00 0.  1.
</event>
<event>
 5    1  0.9034917E-005  0.9118800E+02  0.7818608E-02  0.1130116E+00
         25   -1    0    0    0    0  0.00000000000E+00  0.00000000000E+00  0.99999998245E-14  0.12500000000E+03  0.12500000000E+03 0.  0.
        -13    1    3    3    0    0 -0.23853903960E+02 -0.27218969431E+02 -0.44871750908E+02  0.57648644604E+02  0.10566000000E+00 0.  1.
         23    2    1    0    0    0 -0.67285337401E+01  0.22020131771E+01 -0.28888824325E+02  0.95256325056E+02  0.90493542664E+02 0.  0.
         13    1    3    3    0    0  0.17125370220E+02  0.29420982608E+02  0.15982926583E+02  0.37607680452E+02  0.10566000000E+00 0. -1.
         22    1    1    0    0    0  0.67285337401E+01 -0.22020131771E+01  0.28888824325E+02  0.29743674944E+02  0.00000000000E+00 0.  1.
</event>
<event>
 5    1  0.9034917E-005  0.9118800E+02  0.7818608E-02  0.1130116E+00
         25   -1    0    0    0    0  0.00000000000E+00  0.00000000000E+00  0.99999998245E-14  0.12500000000E+03  0.12500000000E+03 0.  0.
        -13    1    3    3    0    0  0.53166994620E+01  0.33223579065E+02  0.34294426923E+02  0.48043650788E+02  0.10566000000E+00 0.  1.
         23    2    1    0    0    0 -0.25852878930E+02  0.44912287191E+01  0.98945933997E+01  0.96956365020E+02  0.92812128814E+02 0.  0.
         13    1    3    3    0    0 -0.31169578392E+02 -0.28732350346E+02 -0.24399833523E+02  0.48912714232E+02  0.10566000000E+00 0. -1.
         22    1    1    0    0    0  0.25852878930E+02 -0.44912287191E+01 -0.98945933997E+01  0.28043634980E+02  0.00000000000E+00 0.  1.
</event>
<event>
 5    1  0.9034917E-005  0.9118800E+02  0.7818608E-02  0.1130116E+00
         25   -1    0    0    0    0  0.00000000000E+00  0.00000000000E+00  0.99999998245E-14  0.12500000000E+03  0.12500000000E+03 0.  0.
        -13    1    3    3    0    0 -0.17070563108E+02 -0.57866650396E+01 -0.33907113610E+02  0.38400431436E+02  0.10566000000E+00 0.  1.
         23    2    1    0    0    0 -0.21193115507E+02  0.98448313870E+01  0.19727358168E+02  0.94418346837E+02  0.89328532447E+02 0.  0.
         13    1    3    3    0    0 -0.41225523991E+01  0.15631496427E+02  0.53634471778E+02  0.56017915400E+02  0.10566000000E+00 0. -1.
         22    1    1    0    0    0  0.21193115507E+02 -0.98448313870E+01 -0.19727358168E+02  0.30581653163E+02  0.00000000000E+00 0. -1.
</event>
<event>
 5    1  0.9034917E-005  0.9118800E+02  0.7818608E-02  0.1130116E+00
         25   -1    0    0    0    0  0.00000000000E+00  0.00000000000E+00  0.99999998245E-14  0.12500000000E+03  0.12500000000E+03 0.  0.
        -13    1    3    3    0    0  0.23209599580E+02 -0.28747342680E+02  0.19761419249E+01  0.37000155740E+02  0.10566000000E+00 0.  1.
         23    2    1    0    0    0  0.17453629620E+01  0.22314325681E+02 -0.18406545011E+02  0.96021105582E+02  0.91543849577E+02 0.  0.
         13    1    3    3    0    0 -0.21464236618E+02  0.51061668361E+02 -0.20382686936E+02  0.59020949842E+02  0.10566000000E+00 0. -1.
         22    1    1    0    0    0 -0.17453629620E+01 -0.22314325681E+02  0.18406545011E+02  0.28978894418E+02  0.00000000000E+00 0. -1.
</event>
<event>
 5    1  0.9034917E-005  0.9118800E+02  0.7818608E-02  0.1130116E+00
         25   -1    0    0    0    0  0.00000000000E+00  0.00000000000E+00  0.99999998245E-14  0.12500000000E+03  0.12500000000E+03 0.  0.
        -13    1    3    3    0    0 -0.94357372121E+01  0.13610422929E+02  0.55462928976E+02  0.57882850687E+02  0.10566000000E+00 0.  1.
         23    2    1    0    0    0 -0.19896368761E+02  0.11204896322E+02  0.21005744889E+02  0.93973293603E+02  0.88703570395E+02 0.  0.
         13    1    3    3    0    0 -0.10460631549E+02 -0.24055266070E+01 -0.34457184087E+02  0.36090442916E+02  0.10566000000E+00 0. -1.
         22    1    1    0    0    0  0.19896368761E+02 -0.11204896322E+02 -0.21005744889E+02  0.31026706397E+02  0.00000000000E+00 0.  1.
</event>
<event>
 5    1  0.9034917E-005  0.9118800E+02  0.7818608E-02  0.1130116E+00
         25   -1    0    0    0    0  0.00000000000E+00  0.00000000000E+00  0.99999998245E-14  0.12500000000E+03  0.12500000000E+03 0.  0.
        -13    1    3    3    0    0 -0.48860330442E+02  0.16614554727E+02 -0.25723827633E+02  0.57663695613E+02  0.10566000000E+00 0.  1.
         23    2    1    0    0    0 -0.12837803388E+02  0.20637084012E+02 -0.18082177570E+02  0.94707037483E+02  0.89731596279E+02 0.  0.
         13    1    3    3    0    0  0.36022527054E+02  0.40225292853E+01  0.76416500630E+01  0.37043341870E+02  0.10566000000E+00 0. -1.
         22    1    1    0    0    0  0.12837803388E+02 -0.20637084012E+02  0.18082177570E+02  0.30292962517E+02  0.00000000000E+00 0.  1.
</event>
<event>
 5    1  0.9034917E-005  0.9118800E+02  0.7818608E-02  0.1130116E+00
         25   -1    0    0    0    0  0.00000000000E+00  0.00000000000E+00  0.99999998245E-14  0.12500000000E+03  0.12500000000E+03 0.  0.
        -13    1    3    3    0    0  0.36698784006E+02  0.18656808260E+02 -0.29285360766E+02  0.50522477782E+02  0.10566000000E+00 0.  1.
         23    2    1    0    0    0 -0.18118219664E+01 -0.31398715708E+01 -0.30002250071E+02  0.94779535053E+02  0.89832531764E+02 0.  0.
         13    1    3    3    0    0 -0.38510605972E+02 -0.21796679830E+02 -0.71688930453E+00  0.44257057271E+02  0.10566000000E+00 0. -1.
         22    1    1    0    0    0  0.18118219664E+01  0.31398715708E+01  0.30002250071E+02  0.30220464947E+02  0.00000000000E+00 0.  1.
</event>
<event>
 5    1  0.9034917E-005  0.9118800E+02  0.7818608E-02  0.1130116E+00
         25   -1    0    0    0    0  0.00000000000E+00  0.00000000000E+00  0.99999998245E-14  0.12500000000E+03  0.12500000000E+03 0.  0.
        -13    1    3    3    0    0 -0.23000275090E+02  0.24550871011E+02 -0.21914568604E+02  0.40149936523E+02  0.10566000000E+00 0. -1.
         23    2    1    0    0    0  0.40580608398E+01 -0.24717363887E+02 -0.11993615089E+02  0.97228382507E+02  0.93177763585E+02 0.  0.
         13    1    3    3    0    0  0.27058335930E+02 -0.49268234898E+02  0.99209535152E+01  0.57078445984E+02  0.10566000000E+00 0.  1.
         22    1    1    0    0    0 -0.40580608398E+01  0.24717363887E+02  0.11993615089E+02  0.27771617493E+02  0.00000000000E+00 0.  1.
</event>
<event>
 5    1  0.9034917E-005  0.9118800E+02  0.7818608E-02  0.1130116E+00
         25   -1    0    0    0    0  0.00000000000E+00  0.00000000000E+00  0.99999998245E-14  0.12500000000E+03  0.12500000000E+03 0.  0.
        -13    1    3    3    0    0 -0.75042003396E+01  0.36207515711E+02  0.11572536419E+01  0.36995237757E+02  0.10566000000E+00 0. -1.
         23    2    1    0    0    0  0.13843144693E+02 -0.19835776520E+02  0.12095069771E+02  0.97955935995E+02  0.94148733389E+02 0.  0.
         13    1    3    3    0    0  0.21347345032E+02 -0.56043292231E+02  0.10937816129E+02  0.60960698238E+02  0.10566000000E+00 0.  1.
         22    1    1    0    0    0 -0.13843144693E+02  0.19835776520E+02 -0.12095069771E+02  0.27044064005E+02  0.00000000000E+00 0.  1.
</event>
<event>
 5    1  0.9034917E-005  0.9118800E+02  0.7818608E-02  0.1130116E+00
         25   -1    0    0    0    0  0.00000000000E+00  0.00000000000E+00  0.99999998245E-14  0.12500000000E+03  0.12500000000E+03 0.  0.
        -13    1    3    3    0    0  0.11050188896E+02 -0.11595893087E+02  0.58403863749E+02  0.60560662777E+02  0.10566000000E+00 0.  1.
         23    2    1    0    0    0 -0.18555085905E+01  0.31424606036E+01  0.28221858934E+02  0.96543167912E+02  0.92253953726E+02 0.  0.
         13    1    3    3    0    0 -0.12905697487E+02  0.14738353690E+02 -0.30182004815E+02  0.35982505135E+02  0.10566000000E+00 0. -1.
         22    1    1    0    0    0  0.18555085905E+01 -0.31424606036E+01 -0.28221858934E+02  0.28456832088E+02  0.00000000000E+00 0.  1.
</event>
<event>
 5    1  0.9034917E-005  0.9118800E+02  0.7818608E-02  0.1130116E+00
         25   -1    0    0    0    0  0.00000000000E+00  0.00000000000E+00  0.99999998245E-14  0.12500000000E+03  0.12500000000E+03 0.  0.
        -13    1    3    3    0    0 -0.14149143078E+02  0.30525427151E+02  0.28373652557E+02  0.44012217350E+02  0.10566000000E+00 0.  1.
         23    2    1    0    0    0 -0.18390644555E+02 -0.18822425962E+02  0.92341585785E+01  0.97111486040E+02  0.93020812241E+02 0.  0.
         13    1    3    3    0    0 -0.42415014769E+01 -0.49347853113E+02 -0.19139493979E+02  0.53099268690E+02  0.10566000000E+00 0. -1.
         22    1    1    0    0    0  0.18390644555E+02  0.18822425962E+02 -0.92341585785E+01  0.27888513960E+02  0.00000000000E+00 0. -1.
</event>
<event>
 5    1  0.9034917E-005  0.9118800E+02  0.7818608E-02  0.1130116E+00
         25   -1    0    0    0    0  0.00000000000E+00  0.00000000000E+00  0.99999998245E-14  0.12500000000E+03  0.12500000000E+03 0.  0.
        -13    1    3    3    0    0 -0.16942189825E+02  0.18664048864E+02 -0.40736770457E+02  0.47904907341E+02  0.10566000000E+00 0. -1.
         23    2    1    0    0    0  0.20620648334E+02 -0.33062488735E+01 -0.19901223109E+02  0.96152104053E+02  0.91722549099E+02 0.  0.
         13    1    3    3    0    0  0.37562838159E+02 -0.21970297737E+02  0.20835547348E+02  0.48247196712E+02  0.10566000000E+00 0.  1.
         22    1    1    0    0    0 -0.20620648334E+02  0.33062488735E+01  0.19901223109E+02  0.28847895947E+02  0.00000000000E+00 0. -1.
</event>
<event>
 5    1  0.9034917E-005  0.9118800E+02  0.7818608E-02  0.1130116E+00
         25   -1    0    0    0    0  0.00000000000E+00  0.00000000000E+00  0.99999998245E-14  0.12500000000E+03  0.12500000000E+03 0.  0.
        -13    1    3    3    0    0  0.10240580965E+02 -0.33298059602E+02  0.17554829992E+02  0.39010427988E+02  0.10566000000E+00 0.  1.
         23    2    1    0    0    0  0.18429091371E+02  0.21758218644E+02  0.62631042799E+01  0.95806199930E+02  0.91249931411E+02 0.  0.
         13    1    3    3    0    0  0.81885104064E+01  0.55056278245E+02 -0.11291725712E+02  0.56795771942E+02  0.10566000000E+00 0. -1.
         22    1    1    0    0    0 -0.18429091371E+02 -0.21758218644E+02 -0.62631042799E+01  0.29193800070E+02  0.00000000000E+00 0. -1.
</event>
<event>
 5    1  0.9034917E-005  0.9118800E+02  0.7818608E-02  0.1130116E+00
         25   -1    0    0    0    0  0.00000000000E+00  0.00000000000E+00  0.99999998245E-14  0.12500000000E+03  0.12500000000E+03 0.  0.
        -13    1    3    3    0    0  0.13941369243E+02 -0.49413761092E+02  0.23842985107E+02  0.56609015753E+02  0.10566000000E+00 0.  1.
         23    2    1    0    0    0 -0.11870739878E+02 -0.25867411615E+02  0.57143363788E+01  0.95970857932E+02  0.91475212397E+02 0.  0.
         13    1    3    3    0    0 -0.25812109121E+02  0.23546349477E+02 -0.18128648728E+02  0.39361842179E+02  0.10566000000E+00 0. -1.
         22    1    1    0    0    0  0.11870739878E+02  0.25867411615E+02 -0.57143363788E+01  0.29029142068E+02  0.00000000000E+00 0.  1.
</event>
<event>
 5    1  0.9034917E-005  0.9118800E+02  0.7818608E-02  0.1130116E+00
         25   -1    0    0    0    0  0.00000000000E+00  0.00000000000E+00  0.99999998245E-14  0.12500000000E+03  0.12500000000E+03 0.  0.
        -13    1    3    3    0    0  0.11475973364E+02  0.26421936473E+02  0.41048078579E+01  0.29097719897E+02  0.10566000000E+00 0.  1.
         23    2    1    0    0    0 -0.24312767345E+02 -0.10130169438E+02 -0.25614689492E+02  0.88259786248E+02  0.80249277641E+02 0.  0.
         13    1    3    3    0    0 -0.35788740709E+02 -0.36552105911E+02 -0.29719497350E+02  0.59162066350E+02  0.10566000000E+00 0. -1.
         22    1    1    0    0    0  0.24312767345E+02  0.10130169438E+02  0.25614689492E+02  0.36740213752E+02  0.00000000000E+00 0. -1.
</event>
<event>
 5    1  0.9034917E-005  0.9118800E+02  0.7818608E-02  0.1130116E+00
         25   -1    0    0    0    0  0.00000000000E+00  0.00000000000E+00  0.99999998245E-14  0.12500000000E+03  0.12500000000E+03 0.  0.
        -13    1    3    3    0    0 -0.47360424880E+02 -0.10952645141E+02  0.97554807353E+01  0.49579742323E+02  0.10566000000E+00 0. -1.
         23    2    1    0    0    0 -0.17135551858E+02  0.22697572937E+02 -0.25246376493E+01  0.96448629630E+02  0.92125769509E+02 0.  0.
         13    1    3    3    0    0  0.30224873022E+02  0.33650218078E+02 -0.12280118385E+02  0.46868887307E+02  0.10566000000E+00 0.  1.
         22    1    1    0    0    0  0.17135551858E+02 -0.22697572937E+02  0.25246376493E+01  0.28551370370E+02  0.00000000000E+00 0. -1.
</event>
<event>
 5    1  0.9034917E-005  0.9118800E+02  0.7818608E-02  0.1130116E+00
         25   -1    0    0    0    0  0.00000000000E+00  0.00000000000E+00  0.99999998245E-14  0.12500000000E+03  0.12500000000E+03 0.  0.
        -13    1    3    3    0    0  0.14223374205E+02 -0.25584264093E+02  0.24057003717E+02  0.37889438302E+02  0.10566000000E+00 0.  1.
         23    2    1    0    0    0 -0.12697253859E+02 -0.19023306736E+02 -0.23041627445E+02  0.92534278846E+02  0.86652003506E+02 0.  0.
         13    1    3    3    0    0 -0.26920628063E+02  0.65609573573E+01 -0.47098631162E+02  0.54644840545E+02  0.10566000000E+00 0. -1.
         22    1    1    0    0    0  0.12697253859E+02  0.19023306736E+02  0.23041627445E+02  0.32465721154E+02  0.00000000000E+00 0. -1.
</event>
<event>
 5    1  0.9034917E-005  0.9118800E+02  0.7818608E-02  0.1130116E+00
         25   -1    0    0    0    0  0.00000000000E+00  0.00000000000E+00  0.99999998245E-14  0.12500000000E+03  0.12500000000E+03 0.  0.
        -13    1    3    3    0    0  0.25669782736E+02 -0.16175040625E+02  0.19491234168E+02  0.36062294136E+02  0.10566000000E+00 0.  1.
         23    2    1    0    0    0 -0.25778152944E+01  0.24599087011E+02 -0.14625651556E+02  0.96265527725E+02  0.91876993482E+02 0.  0.
         13    1    3    3    0    0 -0.28247598031E+02  0.40774127637E+02 -0.34116885723E+02  0.60203233589E+02  0.10566000000E+00 0. -1.
         22    1    1    0    0    0  0.25778152944E+01 -0.24599087011E+02  0.14625651556E+02  0.28734472275E+02  0.00000000000E+00 0. -1.
</event>
<event>
 5    1  0.9034917E-005  0.9118800E+02  0.7818608E-02  0.1130116E+00
         25   -1    0    0    0    0  0.00000000000E+00  0.00000000000E+00  0.99999998245E-14  0.12500000000E+03  0.12500000000E+03 0.  0.
        -13    1    3    3    0    0 -0.11428366081E+02 -0.41076957538E+02  0.30631566633E+02  0.52499790764E+02  0.10566000000E+00 0.  1.
         23    2    1    0    0    0 -0.71902897961E+01  0.11701674998E+01  0.29116381753E+02  0.94986115785E+02  0.90119525887E+02 0.  0.
         13    1    3    3    0    0  0.42380762847E+01  0.42247125037E+02 -0.15151848800E+01  0.42486325021E+02  0.10566000000E+00 0. -1.
         22    1    1    0    0    0  0.71902897961E+01 -0.11701674998E+01 -0.29116381753E+02  0.30013884215E+02  0.00000000000E+00 0. -1.
</event>
<event>
 5    1  0.9034917E-005  0.9118800E+02  0.7818608E-02  0.1130116E+00
         25   -1    0    0    0    0  0.00000000000E+00  0.00000000000E+00  0.99999998245E-14  0.12500000000E+03  0.12500000000E+03 0.  0.
        -13    1    3    3    0    0 -0.97724883520E+01  0.23646764918E+02 -0.45955715031E+02  0.52598573438E+02  0.10566000000E+00 0.  1.
         23    2    1    0    0    0 -0.15935912674E+02 -0.99167246440E+01 -0.56743760833E+01  0.10539149969E+03  0.10355131541E+03 0.  0.
         13    1    3    3    0    0 -0.61634243223E+01 -0.33563489562E+02  0.40281338948E+02  0.52792926253E+02  0.10566000000E+00 0. -1.
         22    1    1    0    0    0  0.15935912674E+02  0.99167246440E+01  0.56743760833E+01  0.19608500309E+02  0.00000000000E+00 0.  1.
</event>
<event>
 5    1  0.9034917E-005  0.9118800E+02  0.7818608E-02  0.1130116E+00
         25   -1    0    0    0    0  0.00000000000E+00  0.00000000000E+00  0.99999998245E-14  0.12500000000E+03  0.12500000000E+03 0.  0.
        -13    1    3    3    0    0 -0.78172133910E+01 -0.57662258806E+02 -0.14310631541E+02  0.59923703615E+02  0.10566000000E+00 0.  1.
         23    2    1    0    0    0 -0.61299716770E+01 -0.35835522604E+02 -0.21249797778E+02  0.82889251507E+02  0.71395468181E+02 0.  0.
         13    1    3    3    0    0  0.16872417140E+01  0.21826736203E+02 -0.69391662368E+01  0.22965547892E+02  0.10566000000E+00 0. -1.
         22    1    1    0    0    0  0.61299716770E+01  0.35835522604E+02  0.21249797778E+02  0.42110748493E+02  0.00000000000E+00 0.  1.
</event>
<event>
 5    1  0.9034917E-005  0.9118800E+02  0.7818608E-02  0.1130116E+00
         25   -1    0    0    0    0  0.00000000000E+00  0.00000000000E+00  0.99999998245E-14  0.12500000000E+03  0.12500000000E+03 0.  0.
        -13    1    3    3    0    0  0.80055690320E+00 -0.14409108057E+02 -0.32087535764E+02  0.35183581423E+02  0.10566000000E+00 0.  1.
         23    2    1    0    0    0  0.84631802457E+01  0.20340299001E+02  0.17948992282E+02  0.96583112287E+02  0.92308060709E+02 0.  0.
         13    1    3    3    0    0  0.76626233425E+01  0.34749407058E+02  0.50036528046E+02  0.61399530864E+02  0.10566000000E+00 0. -1.
         22    1    1    0    0    0 -0.84631802457E+01 -0.20340299001E+02 -0.17948992282E+02  0.28416887713E+02  0.00000000000E+00 0. -1.
</event>
<event>
 5    1  0.9034917E-005  0.9118800E+02  0.7818608E-02  0.1130116E+00
         25   -1    0    0    0    0  0.00000000000E+00  0.00000000000E+00  0.99999998245E-14  0.12500000000E+03  0.12500000000E+03 0.  0.
        -13    1    3    3    0    0 -0.50599678312E+00  0.60967862688E+02  0.80738641132E+01  0.61502315073E+02  0.10566000000E+00 0.  1.
         23    2    1    0    0    0  0.65603181446E+01  0.28000622730E+02  0.77304178771E+01  0.95220275220E+02  0.90443732812E+02 0.  0.
         13    1    3    3    0    0  0.70663149277E+01 -0.32967239959E+02 -0.34344623603E+00  0.33717960147E+02  0.10566000000E+00 0. -1.
         22    1    1    0    0    0 -0.65603181446E+01 -0.28000622730E+02 -0.77304178771E+01  0.29779724780E+02  0.00000000000E+00 0.  1.
</event>
<event>
 5    1  0.9034917E-005  0.9118800E+02  0.7818608E-02  0.1130116E+00
         25   -1    0    0    0    0  0.00000000000E+00  0.00000000000E+00  0.99999998245E-14  0.12500000000E+03  0.12500000000E+03 0.  0.
        -13    1    3    3    0    0  0.15151290423E+02  0.28365661043E+02 -0.91844215154E+01  0.33444537529E+02  0.10566000000E+00 0. -1.
         23    2    1    0    0    0 -0.32677850252E+02  0.21333235852E+02 -0.17030904402E+02  0.82420655786E+02  0.70570276650E+02 0.  0.
         13    1    3    3    0    0 -0.47829140675E+02 -0.70324251919E+01 -0.78464828864E+01  0.48976118257E+02  0.10566000000E+00 0.  1.
         22    1    1    0    0    0  0.32677850252E+02 -0.21333235852E+02  0.17030904402E+02  0.42579344214E+02  0.00000000000E+00 0. -1.
</event>
<event>
 5    1  0.9034917E-005  0.9118800E+02  0.7818608E-02  0.1130116E+00
         25   -1    0    0    0    0  0.00000000000E+00  0.00000000000E+00  0.99999998245E-14  0.12500000000E+03  0.12500000000E+03 0.  0.
        -13    1    3    3    0    0 -0.96447952918E+01 -0.57297962686E+02 -0.98297542130E+01  0.58929736434E+02  0.10566000000E+00 0. -1.
         23    2    1    0    0    0  0.90375765917E+01 -0.25282599069E+02 -0.10923239575E+02  0.96013714120E+02  0.91533756232E+02 0.  0.
         13    1    3    3    0    0  0.18682371883E+02  0.32015363618E+02 -0.10934853618E+01  0.37083977686E+02  0.10566000000E+00 0.  1.
         22    1    1    0    0    0 -0.90375765917E+01  0.25282599069E+02  0.10923239575E+02  0.28986285880E+02  0.00000000000E+00 0. -1.
</event>
<event>
 5    1  0.9034917E-005  0.9118800E+02  0.7818608E-02  0.1130116E+00
         25   -1    0    0    0    0  0.00000000000E+00  0.00000000000E+00  0.99999998245E-14  0.12500000000E+03  0.12500000000E+03 0.  0.
        -13    1    3    3    0    0  0.12065291479E+02 -0.33514070192E+02 -0.49286957335E+01  0.35959245890E+02  0.10566000000E+00 0.  1.
         23    2    1    0    0    0 -0.27174407529E+02  0.10690174233E+02  0.31996064877E+01  0.95623721622E+02  0.90999617612E+02 0.  0.
         13    1    3    3    0    0 -0.39239699008E+02  0.44204244424E+02  0.81283022212E+01  0.59664475732E+02  0.10566000000E+00 0. -1.
         22    1    1    0    0    0  0.27174407529E+02 -0.10690174233E+02 -0.31996064877E+01  0.29376278378E+02  0.00000000000E+00 0. -1.
</event>
<event>
 5    1  0.9034917E-005  0.9118800E+02  0.7818608E-02  0.1130116E+00
         25   -1    0    0    0    0  0.00000000000E+00  0.00000000000E+00  0.99999998245E-14  0.12500000000E+03  0.12500000000E+03 0.  0.
        -13    1    3    3    0    0 -0.15104694029E+02  0.45546026052E+02  0.39352362426E+02  0.62058132935E+02  0.10566000000E+00 0.  1.
         23    2    1    0    0    0 -0.10705066371E+02  0.22934075492E+02  0.15001981077E+02  0.95578414371E+02  0.90937360820E+02 0.  0.
         13    1    3    3    0    0  0.43996276576E+01 -0.22611950560E+02 -0.24350381349E+02  0.33520281436E+02  0.10566000000E+00 0. -1.
         22    1    1    0    0    0  0.10705066371E+02 -0.22934075492E+02 -0.15001981077E+02  0.29421585629E+02  0.00000000000E+00 0.  1.
</event>
<event>
 5    1  0.9034917E-005  0.9118800E+02  0.7818608E-02  0.1130116E+00
         25   -1    0    0    0    0  0.00000000000E+00  0.00000000000E+00  0.99999998245E-14  0.12500000000E+03  0.12500000000E+03 0.  0.
        -13    1    3    3    0    0  0.56160176718E+01 -0.54052173936E+02  0.21140920933E+02  0.58310606785E+02  0.10566000000E+00 0.  1.
         23    2    1    0    0    0 -0.71113005819E+01 -0.40351935973E+02  0.24427454314E+02  0.77297276210E+02  0.60822027691E+02 0.  0.
         13    1    3    3    0    0 -0.12727318254E+02  0.13700237962E+02  0.32865333810E+01  0.18986669425E+02  0.10566000000E+00 0. -1.
         22    1    1    0    0    0  0.71113005819E+01  0.40351935973E+02 -0.24427454314E+02  0.47702723790E+02  0.00000000000E+00 0.  1.
</event>
<event>
 5    1  0.9034917E-005  0.9118800E+02  0.7818608E-02  0.1130116E+00
         25   -1    0    0    0    0  0.00000000000E+00  0.00000000000E+00  0.99999998245E-14  0.12500000000E+03  0.12500000000E+03 0.  0.
        -13    1    3    3    0    0  0.21451161254E+02  0.12175026106E+02  0.24001012153E+02  0.34415742448E+02  0.10566000000E+00 0. -1.
         23    2    1    0    0    0 -0.11409848639E+02 -0.19673740441E+02 -0.17585444380E+02  0.96251285890E+02  0.91857615212E+02 0.  0.
         13    1    3    3    0    0 -0.32861009893E+02 -0.31848766547E+02 -0.41586456534E+02  0.61835543442E+02  0.10566000000E+00 0.  1.
         22    1    1    0    0    0  0.11409848639E+02  0.19673740441E+02  0.17585444380E+02  0.28748714110E+02  0.00000000000E+00 0.  1.
</event>
<event>
 5    1  0.9034917E-005  0.9118800E+02  0.7818608E-02  0.1130116E+00
         25   -1    0    0    0    0  0.00000000000E+00  0.00000000000E+00  0.99999998245E-14  0.12500000000E+03  0.12500000000E+03 0.  0.
        -13    1    3    3    0    0  0.19866843759E+02  0.97976982134E+01  0.41882069279E+02  0.47379375918E+02  0.10566000000E+00 0. -1.
         23    2    1    0    0    0 -0.11850625588E+02 -0.18779999733E+02  0.18750356661E+02  0.95936249524E+02  0.91427908108E+02 0.  0.
         13    1    3    3    0    0 -0.31717469347E+02 -0.28577697947E+02 -0.23131712618E+02  0.48556873606E+02  0.10566000000E+00 0.  1.
         22    1    1    0    0    0  0.11850625588E+02  0.18779999733E+02 -0.18750356661E+02  0.29063750476E+02  0.00000000000E+00 0.  1.
</event>
<event>
 5    1  0.9034917E-005  0.9118800E+02  0.7818608E-02  0.1130116E+00
         25   -1    0    0    0    0  0.00000000000E+00  0.00000000000E+00  0.99999998245E-14  0.12500000000E+03  0.12500000000E+03 0.  0.
        -13    1    3    3    0    0  0.23666561143E+02 -0.71599885608E+01 -0.23441048524E+02  0.34071475936E+02  0.10566000000E+00 0.  1.
         23    2    1    0    0    0 -0.11642302833E+02  0.25406729829E+02  0.12816705695E+02  0.94254055865E+02  0.89098338740E+02 0.  0.
         13    1    3    3    0    0 -0.35308863975E+02  0.32566718390E+02  0.36257754219E+02  0.60182579929E+02  0.10566000000E+00 0. -1.
         22    1    1    0    0    0  0.11642302833E+02 -0.25406729829E+02 -0.12816705695E+02  0.30745944135E+02  0.00000000000E+00 0. -1.
</event>
<event>
 5    1  0.9034917E-005  0.9118800E+02  0.7818608E-02  0.1130116E+00
         25   -1    0    0    0    0  0.00000000000E+00  0.00000000000E+00  0.99999998245E-14  0.12500000000E+03  0.12500000000E+03 0.  0.
        -13    1    3    3    0    0  0.22829876242E+02 -0.42444256992E+02  0.27666646620E+02  0.55571329839E+02  0.10566000000E+00 0.  1.
         23    2    1    0    0    0  0.15478390343E+02 -0.70533249580E+01  0.28593332699E+02  0.91729763521E+02  0.85483570820E+02 0.  0.
         13    1    3    3    0    0 -0.73514858997E+01  0.35390932034E+02  0.92668607884E+00  0.36158433681E+02  0.10566000000E+00 0. -1.
         22    1    1    0    0    0 -0.15478390343E+02  0.70533249580E+01 -0.28593332699E+02  0.33270236479E+02  0.00000000000E+00 0.  1.
</event>
<event>
 5    1  0.9034917E-005  0.9118800E+02  0.7818608E-02  0.1130116E+00
         25   -1    0    0    0    0  0.00000000000E+00  0.00000000000E+00  0.99999998245E-14  0.12500000000E+03  0.12500000000E+03 0.  0.
        -13    1    3    3    0    0  0.48664570389E+01 -0.43787260956E+02 -0.31091477748E+02  0.53923072787E+02  0.10566000000E+00 0.  1.
         23    2    1    0    0    0  0.24115206609E+02 -0.15875139422E+02 -0.76859287004E+01  0.95122973015E+02  0.90309153765E+02 0.  0.
         13    1    3    3    0    0  0.19248749570E+02  0.27912121534E+02  0.23405549048E+02  0.41199900228E+02  0.10566000000E+00 0. -1.
         22    1    1    0    0    0 -0.24115206609E+02  0.15875139422E+02  0.76859287004E+01  0.29877026985E+02  0.00000000000E+00 0.  1.
</event>
<event>
 5    1  0.9034917E-005  0.9118800E+02  0.7818608E-02  0.1130116E+00
         25   -1    0    0    0    0  0.00000000000E+00  0.00000000000E+00  0.99999998245E-14  0.12500000000E+03  0.12500000000E+03 0.  0.
        -13    1    3    3    0    0 -0.55800289336E+01  0.96624888532E+01 -0.52386830340E+02  0.53562034790E+02  0.10566000000E+00 0.  1.
         23    2    1    0    0    0  0.12022960117E+02  0.21897335230E+02 -0.17535264733E+02  0.94479017555E+02  0.89413390433E+02 0.  0.
         13    1    3    3    0    0  0.17602989051E+02  0.12234846377E+02  0.34851565607E+02  0.40916982766E+02  0.10566000000E+00 0. -1.
         22    1    1    0    0    0 -0.12022960117E+02 -0.21897335230E+02  0.17535264733E+02  0.30520982445E+02  0.00000000000E+00 0.  1.
</event>
<event>
 5    1  0.9034917E-005  0.9118800E+02  0.7818608E-02  0.1130116E+00
         25   -1    0    0    0    0  0.00000000000E+00  0.00000000000E+00  0.99999998245E-14  0.12500000000E+03  0.12500000000E+03 0.  0.
        -13    1    3    3    0    0 -0.54539040284E+02  0.18564172735E+02 -0.18596663612E+02  0.60539098821E+02  0.10566000000E+00 0. -1.
         23    2    1    0    0    0 -0.26503458573E+02 -0.20282994499E+01 -0.11482426883E+02  0.96044975529E+02  0.91576437375E+02 0.  0.
         13    1    3    3    0    0  0.28035581712E+02 -0.20592472185E+02  0.71142367286E+01  0.35505876709E+02  0.10566000000E+00 0.  1.
         22    1    1    0    0    0  0.26503458573E+02  0.20282994499E+01  0.11482426883E+02  0.28955024471E+02  0.00000000000E+00 0. -1.
</event>
<event>
 5    1  0.9034917E-005  0.9118800E+02  0.7818608E-02  0.1130116E+00
         25   -1    0    0    0    0  0.00000000000E+00  0.00000000000E+00  0.99999998245E-14  0.12500000000E+03  0.12500000000E+03 0.  0.
        -13    1    3    3    0    0  0.48431490942E+01  0.86602564580E+01 -0.38242653747E+02  0.39509085851E+02  0.10566000000E+00 0. -1.
         23    2    1    0    0    0 -0.71193798109E+01 -0.32363209011E+02 -0.11476822598E+02  0.89931776160E+02  0.82812704581E+02 0.  0.
         13    1    3    3    0    0 -0.11962528905E+02 -0.41023465469E+02  0.26765831150E+02  0.50422690309E+02  0.10566000000E+00 0.  1.
         22    1    1    0    0    0  0.71193798109E+01  0.32363209011E+02  0.11476822598E+02  0.35068223840E+02  0.00000000000E+00 0. -1.
</event>
<event>
 5    1  0.9034917E-005  0.9118800E+02  0.7818608E-02  0.1130116E+00
         25   -1    0    0    0    0  0.00000000000E+00  0.00000000000E+00  0.99999998245E-14  0.12500000000E+03  0.12500000000E+03 0.  0.
        -13    1    3    3    0    0 -0.15452427736E+02  0.22407204838E+02  0.47057787716E+02  0.54362734482E+02  0.10566000000E+00 0. -1.
         23    2    1    0    0    0  0.98112911264E+01 -0.44411860575E+01  0.26090405045E+02  0.96774217414E+02  0.92566486125E+02 0.  0.
         13    1    3    3    0    0  0.25263718863E+02 -0.26848390895E+02 -0.20967382671E+02  0.42411482933E+02  0.10566000000E+00 0.  1.
         22    1    1    0    0    0 -0.98112911264E+01  0.44411860575E+01 -0.26090405045E+02  0.28225782586E+02  0.00000000000E+00 0. -1.
</event>
<event>
 5    1  0.9034917E-005  0.9118800E+02  0.7818608E-02  0.1130116E+00
         25   -1    0    0    0    0  0.00000000000E+00  0.00000000000E+00  0.99999998245E-14  0.12500000000E+03  0.12500000000E+03 0.  0.
        -13    1    3    3    0    0  0.34813476307E+02 -0.66935936902E+01  0.42829224900E+02  0.55597985563E+02  0.10566000000E+00 0.  1.
         23    2    1    0    0    0 -0.24292544494E+01  0.14074667404E+01  0.28570940157E+02  0.96291449683E+02  0.91912253921E+02 0.  0.
         13    1    3    3    0    0 -0.37242730757E+02  0.81010604306E+01 -0.14258284742E+02  0.40693464121E+02  0.10566000000E+00 0. -1.
         22    1    1    0    0    0  0.24292544494E+01 -0.14074667404E+01 -0.28570940157E+02  0.28708550317E+02  0.00000000000E+00 0.  1.
</event>
<event>
 5    1  0.9034917E-005  0.9118800E+02  0.7818608E-02  0.1130116E+00
         25   -1    0    0    0    0  0.00000000000E+00  0.00000000000E+00  0.99999998245E-14  0.12500000000E+03  0.12500000000E+03 0.  0.
        -13    1    3    3    0    0 -0.28585697300E+02  0.52040494811E+02 -0.16275471360E+02  0.61565065763E+02  0.10566000000E+00 0.  1.
         23    2    1    0    0    0 -0.15690302624E+02  0.21705076570E+02 -0.14425778152E+02  0.94579628197E+02  0.89553933745E+02 0.  0.
         13    1    3    3    0    0  0.12895394676E+02 -0.30335418241E+02  0.18496932080E+01  0.33014562434E+02  0.10566000000E+00 0. -1.
         22    1    1    0    0    0  0.15690302624E+02 -0.21705076570E+02  0.14425778152E+02  0.30420371803E+02  0.00000000000E+00 0.  1.
</event>
<event>
 5    1  0.9034917E-005  0.9118800E+02  0.7818608E-02  0.1130116E+00
         25   -1    0    0    0    0  0.00000000000E+00  0.00000000000E+00  0.99999998245E-14  0.12500000000E+03  0.12500000000E+03 0.  0.
        -13    1    3    3    0    0 -0.21585786294E+02 -0.38714771960E+00  0.24574035854E+02  0.32710708575E+02  0.10566000000E+00 0.  1.
         23    2    1    0    0    0  0.19274680697E+02 -0.29835704290E+01 -0.22582135621E+02  0.95160967548E+02  0.90361728000E+02 0.  0.
         13    1    3    3    0    0  0.40860466991E+02 -0.25964227094E+01 -0.47156171475E+02  0.62450258973E+02  0.10566000000E+00 0. -1.
         22    1    1    0    0    0 -0.19274680697E+02  0.29835704290E+01  0.22582135621E+02  0.29839032452E+02  0.00000000000E+00 0. -1.
</event>
<event>
 5    1  0.9034917E-005  0.9118800E+02  0.7818608E-02  0.1130116E+00
         25   -1    0    0    0    0  0.00000000000E+00  0.00000000000E+00  0.99999998245E-14  0.12500000000E+03  0.12500000000E+03 0.  0.
        -13    1    3    3    0    0  0.10429502747E+02 -0.27878570191E+02 -0.33789678284E+02  0.45030464421E+02  0.10566000000E+00 0.  1.
         23    2    1    0    0    0 -0.27737155564E+02 -0.86729310532E+01 -0.83261306539E+01  0.94769320492E+02  0.89818317302E+02 0.  0.
         13    1    3    3    0    0 -0.38166658311E+02  0.19205639137E+02  0.25463547630E+02  0.49738856071E+02  0.10566000000E+00 0. -1.
         22    1    1    0    0    0  0.27737155564E+02  0.86729310532E+01  0.83261306539E+01  0.30230679508E+02  0.00000000000E+00 0. -1.
</event>
<event>
 5    1  0.9034917E-005  0.9118800E+02  0.7818608E-02  0.1130116E+00
         25   -1    0    0    0    0  0.00000000000E+00  0.00000000000E+00  0.99999998245E-14  0.12500000000E+03  0.12500000000E+03 0.  0.
        -13    1    3    3    0    0 -0.15384971367E+01  0.83704932118E+01 -0.33637811804E+02  0.34697920356E+02  0.10566000000E+00 0.  1.
         23    2    1    0    0    0 -0.14332640825E+02  0.11537577759E+01  0.25550227241E+02  0.95681578110E+02  0.91079056471E+02 0.  0.
         13    1    3    3    0    0 -0.12794143689E+02 -0.72167354359E+01  0.59188039045E+02  0.60983657754E+02  0.10566000000E+00 0. -1.
         22    1    1    0    0    0  0.14332640825E+02 -0.11537577759E+01 -0.25550227241E+02  0.29318421890E+02  0.00000000000E+00 0. -1.
</event>
<event>
 5    1  0.9034917E-005  0.9118800E+02  0.7818608E-02  0.1130116E+00
         25   -1    0    0    0    0  0.00000000000E+00  0.00000000000E+00  0.99999998245E-14  0.12500000000E+03  0.12500000000E+03 0.  0.
        -13    1    3    3    0    0  0.38866253846E+02 -0.11517488472E+02 -0.37439715437E+02  0.55181352691E+02  0.10566000000E+00 0. -1.
         23    2    1    0    0    0  0.39815714299E+00 -0.11312005162E+02 -0.28010556383E+02  0.94788888488E+02  0.89845545921E+02 0.  0.
         13    1    3    3    0    0 -0.38468096703E+02  0.20548330949E+00  0.94291590539E+01  0.39607535797E+02  0.10566000000E+00 0.  1.
         22    1    1    0    0    0 -0.39815714299E+00  0.11312005162E+02  0.28010556383E+02  0.30211111512E+02  0.00000000000E+00 0.  1.
</event>
<event>
 5    1  0.9034917E-005  0.9118800E+02  0.7818608E-02  0.1130116E+00
         25   -1    0    0    0    0  0.00000000000E+00  0.00000000000E+00  0.99999998245E-14  0.12500000000E+03  0.12500000000E+03 0.  0.
        -13    1    3    3    0    0  0.34775774425E+02  0.28505348615E+01 -0.43269498925E+02  0.55585436376E+02  0.10566000000E+00 0.  1.
         23    2    1    0    0    0  0.10642179960E+01  0.15193069200E+02 -0.24643886689E+02  0.96029617489E+02  0.91555471559E+02 0.  0.
         13    1    3    3    0    0 -0.33711556429E+02  0.12342534338E+02  0.18625612235E+02  0.40444181114E+02  0.10566000000E+00 0. -1.
         22    1    1    0    0    0 -0.10642179960E+01 -0.15193069200E+02  0.24643886689E+02  0.28970382511E+02  0.00000000000E+00 0. -1.
</event>
<event>
 5    1  0.9034917E-005  0.9118800E+02  0.7818608E-02  0.1130116E+00
         25   -1    0    0    0    0  0.00000000000E+00  0.00000000000E+00  0.99999998245E-14  0.12500000000E+03  0.12500000000E+03 0.  0.
        -13    1    3    3    0    0 -0.26837997584E+02 -0.41867210145E+01 -0.19789809420E+02  0.33607357351E+02  0.10566000000E+00 0. -1.
         23    2    1    0    0    0  0.25771417071E+02 -0.12539572149E+02  0.10006691652E+02  0.94643111402E+02  0.89642500247E+02 0.  0.
         13    1    3    3    0    0  0.52609414655E+02 -0.83528511348E+01  0.29796501072E+02  0.61035754051E+02  0.10566000000E+00 0.  1.
         22    1    1    0    0    0 -0.25771417071E+02  0.12539572149E+02 -0.10006691652E+02  0.30356888598E+02  0.00000000000E+00 0.  1.
</event>
<event>
 5    1  0.9034917E-005  0.9118800E+02  0.7818608E-02  0.1130116E+00
         25   -1    0    0    0    0  0.00000000000E+00  0.00000000000E+00  0.99999998245E-14  0.12500000000E+03  0.12500000000E+03 0.  0.
        -13    1    3    3    0    0  0.11044166197E+02 -0.31189009226E+02  0.51960969367E+02  0.61600985423E+02  0.10566000000E+00 0.  1.
         23    2    1    0    0    0 -0.10034445555E+01 -0.11699105930E+02  0.27397496817E+02  0.95192302800E+02  0.90405064570E+02 0.  0.
         13    1    3    3    0    0 -0.12047610752E+02  0.19489903296E+02 -0.24563472550E+02  0.33591317376E+02  0.10566000000E+00 0. -1.
         22    1    1    0    0    0  0.10034445555E+01  0.11699105930E+02 -0.27397496817E+02  0.29807697200E+02  0.00000000000E+00 0.  1.
</event>
<event>
 5    1  0.9034917E-005  0.9118800E+02  0.7818608E-02  0.1130116E+00
         25   -1    0    0    0    0  0.00000000000E+00  0.00000000000E+00  0.99999998245E-14  0.12500000000E+03  0.12500000000E+03 0.  0.
        -13    1    3    3    0    0  0.36469677017E+02  0.28291703269E+02 -0.27274117885E+02  0.53612932079E+02  0.10566000000E+00 0. -1.
         23    2    1    0    0    0  0.24720520279E+02  0.11878875271E+02  0.98406851234E+01  0.95861522273E+02  0.91325684055E+02 0.  0.
         13    1    3    3    0    0 -0.11749156738E+02 -0.16412827999E+02  0.37114803009E+02  0.42248590194E+02  0.10566000000E+00 0.  1.
         22    1    1    0    0    0 -0.24720520279E+02 -0.11878875271E+02 -0.98406851234E+01  0.29138477727E+02  0.00000000000E+00 0. -1.
</event>
<event>
 5    1  0.9034917E-005  0.9118800E+02  0.7818608E-02  0.1130116E+00
         25   -1    0    0    0    0  0.00000000000E+00  0.00000000000E+00  0.99999998245E-14  0.12500000000E+03  0.12500000000E+03 0.  0.
        -13    1    3    3    0    0 -0.16003889821E+01  0.15652906115E+02 -0.15461890005E+02  0.22060279266E+02  0.10566000000E+00 0. -1.
         23    2    1    0    0    0  0.79424097352E+01 -0.34306386203E+02  0.20408871154E+02  0.84299483683E+02  0.73823241060E+02 0.  0.
         13    1    3    3    0    0  0.95427987173E+01 -0.49959292318E+02  0.35870761158E+02  0.62239204417E+02  0.10566000000E+00 0.  1.
         22    1    1    0    0    0 -0.79424097352E+01  0.34306386203E+02 -0.20408871154E+02  0.40700516317E+02  0.00000000000E+00 0.  1.
</event>
<event>
 5    1  0.9034917E-005  0.9118800E+02  0.7818608E-02  0.1130116E+00
         25   -1    0    0    0    0  0.00000000000E+00  0.00000000000E+00  0.99999998245E-14  0.12500000000E+03  0.12500000000E+03 0.  0.
        -13    1    3    3    0    0  0.86556514284E+01  0.34733134178E+02 -0.23462973835E+02  0.42799920755E+02  0.10566000000E+00 0. -1.
         23    2    1    0    0    0  0.87388683858E+01  0.14839182327E+02  0.24688092312E+02  0.94898985818E+02  0.89998591402E+02 0.  0.
         13    1    3    3    0    0  0.83216957398E-01 -0.19893951851E+02  0.48151066146E+02  0.52099065062E+02  0.10566000000E+00 0.  1.
         22    1    1    0    0    0 -0.87388683858E+01 -0.14839182327E+02 -0.24688092312E+02  0.30101014182E+02  0.00000000000E+00 0.  1.
</event>
<event>
 5    1  0.9034917E-005  0.9118800E+02  0.7818608E-02  0.1130116E+00
         25   -1    0    0    0    0  0.00000000000E+00  0.00000000000E+00  0.99999998245E-14  0.12500000000E+03  0.12500000000E+03 0.  0.
        -13    1    3    3    0    0  0.57080013115E+02 -0.87239759656E+01  0.23497410598E+02  0.62340798220E+02  0.10566000000E+00 0. -1.
         23    2    1    0    0    0  0.25458921535E+02 -0.19911755334E+01  0.13083981425E+02  0.96306585500E+02  0.91932836218E+02 0.  0.
         13    1    3    3    0    0 -0.31621091580E+02  0.67328004323E+01 -0.10413429173E+02  0.33965787280E+02  0.10566000000E+00 0.  1.
         22    1    1    0    0    0 -0.25458921535E+02  0.19911755334E+01 -0.13083981425E+02  0.28693414500E+02  0.00000000000E+00 0. -1.
</event>
<event>
 5    1  0.9034917E-005  0.9118800E+02  0.7818608E-02  0.1130116E+00
         25   -1    0    0    0    0  0.00000000000E+00  0.00000000000E+00  0.99999998245E-14  0.12500000000E+03  0.12500000000E+03 0.  0.
        -13    1    3    3    0    0  0.83418738307E+01 -0.72773827948E+01 -0.39692890808E+02  0.41207813629E+02  0.10566000000E+00 0. -1.
         23    2    1    0    0    0 -0.17385763955E+02 -0.25193459475E+02  0.30747449785E+01  0.94235909808E+02  0.89072877197E+02 0.  0.
         13    1    3    3    0    0 -0.25727637786E+02 -0.17916076681E+02  0.42767635786E+02  0.53028096180E+02  0.10566000000E+00 0.  1.
         22    1    1    0    0    0  0.17385763955E+02  0.25193459475E+02 -0.30747449785E+01  0.30764090192E+02  0.00000000000E+00 0.  1.
</event>
<event>
 5    1  0.9034917E-005  0.9118800E+02  0.7818608E-02  0.1130116E+00
         25   -1    0    0    0    0  0.00000000000E+00  0.00000000000E+00  0.99999998245E-14  0.12500000000E+03  0.12500000000E+03 0.  0.
        -13    1    3    3    0    0  0.13188001232E+02  0.30555944059E+02 -0.25833862605E+02  0.42130614937E+02  0.10566000000E+00 0. -1.
         23    2    1    0    0    0 -0.13127572922E+02 -0.17284886796E+02 -0.16974803311E+02  0.97445609609E+02  0.93468724193E+02 0.  0.
         13    1    3    3    0    0 -0.26315574154E+02 -0.47840830855E+02  0.88590592940E+01  0.55314994672E+02  0.10566000000E+00 0.  1.
         22    1    1    0    0    0  0.13127572922E+02  0.17284886796E+02  0.16974803311E+02  0.27554390391E+02  0.00000000000E+00 0.  1.
</event>
<event>
 5    1  0.9034917E-005  0.9118800E+02  0.7818608E-02  0.1130116E+00
         25   -1    0    0    0    0  0.00000000000E+00  0.00000000000E+00  0.99999998245E-14  0.12500000000E+03  0.12500000000E+03 0.  0.
        -13    1    3    3    0    0  0.32572715341E+02 -0.64233499047E+01 -0.32513954782E+02  0.46469448332E+02  0.10566000000E+00 0. -1.
         23    2    1    0    0    0  0.31740480014E+01  0.26875302708E+02 -0.12031983814E+02  0.95383701939E+02  0.90669319424E+02 0.  0.
         13    1    3    3    0    0 -0.29398667340E+02  0.33298652613E+02  0.20481970968E+02  0.48914253607E+02  0.10566000000E+00 0.  1.
         22    1    1    0    0    0 -0.31740480014E+01 -0.26875302708E+02  0.12031983814E+02  0.29616298061E+02  0.00000000000E+00 0.  1.
</event>
<event>
 5    1  0.9034917E-005  0.9118800E+02  0.7818608E-02  0.1130116E+00
         25   -1    0    0    0    0  0.00000000000E+00  0.00000000000E+00  0.99999998245E-14  0.12500000000E+03  0.12500000000E+03 0.  0.
        -13    1    3    3    0    0 -0.16486129889E+02  0.89677205182E+01 -0.39172107228E+02  0.43435902646E+02  0.10566000000E+00 0.  1.
         23    2    1    0    0    0 -0.11483726751E+02 -0.27004209867E+02 -0.17207699836E+01  0.95605027981E+02  0.90973935802E+02 0.  0.
         13    1    3    3    0    0  0.50024031379E+01 -0.35971930385E+02  0.37451337244E+02  0.52169125335E+02  0.10566000000E+00 0. -1.
         22    1    1    0    0    0  0.11483726751E+02  0.27004209867E+02  0.17207699836E+01  0.29394972019E+02  0.00000000000E+00 0. -1.
</event>
<event>
 5    1  0.9034917E-005  0.9118800E+02  0.7818608E-02  0.1130116E+00
         25   -1    0    0    0    0  0.00000000000E+00  0.00000000000E+00  0.99999998245E-14  0.12500000000E+03  0.12500000000E+03 0.  0.
        -13    1    3    3    0    0 -0.72544424604E+01  0.56978716151E+02 -0.11057995156E+02  0.58493516312E+02  0.10566000000E+00 0. -1.
         23    2    1    0    0    0  0.41585090771E+01  0.26152550863E+02  0.90356528705E+01  0.97019790259E+02  0.92897511079E+02 0.  0.
         13    1    3    3    0    0  0.11412951538E+02 -0.30826165288E+02  0.20093648027E+02  0.38526273947E+02  0.10566000000E+00 0.  1.
         22    1    1    0    0    0 -0.41585090771E+01 -0.26152550863E+02 -0.90356528705E+01  0.27980209741E+02  0.00000000000E+00 0. -1.
</event>
<event>
 5    1  0.9034917E-005  0.9118800E+02  0.7818608E-02  0.1130116E+00
         25   -1    0    0    0    0  0.00000000000E+00  0.00000000000E+00  0.99999998245E-14  0.12500000000E+03  0.12500000000E+03 0.  0.
        -13    1    3    3    0    0  0.88500627013E+01  0.27707611730E+02  0.15480715707E+02  0.32949948110E+02  0.10566000000E+00 0.  1.
         23    2    1    0    0    0 -0.10627812222E+02 -0.27752731511E+02 -0.43046050984E+01  0.94971777875E+02  0.90099636341E+02 0.  0.
         13    1    3    3    0    0 -0.19477874923E+02 -0.55460343241E+02 -0.19785320806E+02  0.62021829765E+02  0.10566000000E+00 0. -1.
         22    1    1    0    0    0  0.10627812222E+02  0.27752731511E+02  0.43046050984E+01  0.30028222125E+02  0.00000000000E+00 0. -1.
</event>
<event>
 5    1  0.9034917E-005  0.9118800E+02  0.7818608E-02  0.1130116E+00
         25   -1    0    0    0    0  0.00000000000E+00  0.00000000000E+00  0.99999998245E-14  0.12500000000E+03  0.12500000000E+03 0.  0.
        -13    1    3    3    0    0 -0.30346093937E+02  0.21623170671E+02  0.42002747649E+00  0.37264386674E+02  0.10566000000E+00 0.  1.
         23    2    1    0    0    0 -0.12783596081E+02 -0.30289434428E+02 -0.13461822475E+01  0.92095860847E+02  0.86017237876E+02 0.  0.
         13    1    3    3    0    0  0.17562497856E+02 -0.51912605099E+02 -0.17662097240E+01  0.54831474173E+02  0.10566000000E+00 0. -1.
         22    1    1    0    0    0  0.12783596081E+02  0.30289434428E+02  0.13461822475E+01  0.32904139153E+02  0.00000000000E+00 0. -1.
</event>
<event>
 5    1  0.9034917E-005  0.9118800E+02  0.7818608E-02  0.1130116E+00
         25   -1    0    0    0    0  0.00000000000E+00  0.00000000000E+00  0.99999998245E-14  0.12500000000E+03  0.12500000000E+03 0.  0.
        -13    1    3    3    0    0 -0.31363562653E+02  0.11934872904E+02  0.99591140594E+01  0.35004419298E+02  0.10566000000E+00 0. -1.
         23    2    1    0    0    0  0.15147596527E+02 -0.25544870405E+02  0.39880451033E+01  0.95035110741E+02  0.90187458581E+02 0.  0.
         13    1    3    3    0    0  0.46511159179E+02 -0.37479743309E+02 -0.59710689561E+01  0.60030691444E+02  0.10566000000E+00 0.  1.
         22    1    1    0    0    0 -0.15147596527E+02  0.25544870405E+02 -0.39880451033E+01  0.29964889259E+02  0.00000000000E+00 0.  1.
</event>
<event>
 5    1  0.9034917E-005  0.9118800E+02  0.7818608E-02  0.1130116E+00
         25   -1    0    0    0    0  0.00000000000E+00  0.00000000000E+00  0.99999998245E-14  0.12500000000E+03  0.12500000000E+03 0.  0.
        -13    1    3    3    0    0 -0.41345469948E+02 -0.66126560202E+01  0.48876012817E+00  0.41873919752E+02  0.10566000000E+00 0.  1.
         23    2    1    0    0    0  0.55984605442E+01 -0.27684458898E+02 -0.11156442647E+02  0.94631624386E+02  0.89626481000E+02 0.  0.
         13    1    3    3    0    0  0.46943930492E+02 -0.21071802877E+02 -0.11645202775E+02  0.52757704634E+02  0.10566000000E+00 0. -1.
         22    1    1    0    0    0 -0.55984605442E+01  0.27684458898E+02  0.11156442647E+02  0.30368375614E+02  0.00000000000E+00 0. -1.
</event>
<event>
 5    1  0.9034917E-005  0.9118800E+02  0.7818608E-02  0.1130116E+00
         25   -1    0    0    0    0  0.00000000000E+00  0.00000000000E+00  0.99999998245E-14  0.12500000000E+03  0.12500000000E+03 0.  0.
        -13    1    3    3    0    0 -0.36268289987E+02  0.38245425881E+02 -0.13397978623E+02  0.54383990793E+02  0.10566000000E+00 0. -1.
         23    2    1    0    0    0  0.24610225364E+01  0.28288235878E+02 -0.11334939973E+02  0.94426125774E+02  0.89339417076E+02 0.  0.
         13    1    3    3    0    0  0.38729312523E+02 -0.99571900028E+01  0.20630386502E+01  0.40042134980E+02  0.10566000000E+00 0.  1.
         22    1    1    0    0    0 -0.24610225364E+01 -0.28288235878E+02  0.11334939973E+02  0.30573874226E+02  0.00000000000E+00 0. -1.
</event>
<event>
 5    1  0.9034917E-005  0.9118800E+02  0.7818608E-02  0.1130116E+00
         25   -1    0    0    0    0  0.00000000000E+00  0.00000000000E+00  0.99999998245E-14  0.12500000000E+03  0.12500000000E+03 0.  0.
        -13    1    3    3    0    0 -0.23638700672E+02 -0.35486284669E+02 -0.29794236885E+02  0.52017038407E+02  0.10566000000E+00 0. -1.
         23    2    1    0    0    0 -0.29042809686E+01  0.58603710195E+01 -0.25732289397E+02  0.98449491266E+02  0.94801755345E+02 0.  0.
         13    1    3    3    0    0  0.20734419703E+02  0.41346655688E+02  0.40619474890E+01  0.46432452859E+02  0.10566000000E+00 0.  1.
         22    1    1    0    0    0  0.29042809686E+01 -0.58603710195E+01  0.25732289397E+02  0.26550508734E+02  0.00000000000E+00 0.  1.
</event>
<event>
 5    1  0.9034917E-005  0.9118800E+02  0.7818608E-02  0.1130116E+00
         25   -1    0    0    0    0  0.00000000000E+00  0.00000000000E+00  0.99999998245E-14  0.12500000000E+03  0.12500000000E+03 0.  0.
        -13    1    3    3    0    0 -0.26718755347E+02 -0.18606527716E+02  0.15792414676E+02  0.36187101104E+02  0.10566000000E+00 0.  1.
         23    2    1    0    0    0  0.12780535871E+02  0.25215977781E+02  0.28500037311E+01  0.96586796135E+02  0.92313049098E+02 0.  0.
         13    1    3    3    0    0  0.39499291219E+02  0.43822505497E+02 -0.12942410945E+02  0.60399695031E+02  0.10566000000E+00 0. -1.
         22    1    1    0    0    0 -0.12780535871E+02 -0.25215977781E+02 -0.28500037311E+01  0.28413203865E+02  0.00000000000E+00 0. -1.
</event>
<event>
 5    1  0.9034917E-005  0.9118800E+02  0.7818608E-02  0.1130116E+00
         25   -1    0    0    0    0  0.00000000000E+00  0.00000000000E+00  0.99999998245E-14  0.12500000000E+03  0.12500000000E+03 0.  0.
        -13    1    3    3    0    0  0.16706250166E+02 -0.47639093090E+02 -0.18105222438E+02  0.53632007501E+02  0.10566000000E+00 0.  1.
         23    2    1    0    0    0 -0.14573850103E+02 -0.28682156247E+02 -0.52470568612E+01  0.92402533849E+02  0.86461745658E+02 0.  0.
         13    1    3    3    0    0 -0.31280100268E+02  0.18956936843E+02  0.12858165576E+02  0.38770526348E+02  0.10566000000E+00 0. -1.
         22    1    1    0    0    0  0.14573850103E+02  0.28682156247E+02  0.52470568612E+01  0.32597466151E+02  0.00000000000E+00 0.  1.
</event>
<event>
 5    1  0.9034917E-005  0.9118800E+02  0.7818608E-02  0.1130116E+00
         25   -1    0    0    0    0  0.00000000000E+00  0.00000000000E+00  0.99999998245E-14  0.12500000000E+03  0.12500000000E+03 0.  0.
        -13    1    3    3    0    0 -0.12402448804E+02  0.27995477496E+02 -0.37804372183E+02  0.48649246826E+02  0.10566000000E+00 0. -1.
         23    2    1    0    0    0  0.20654186397E+02 -0.61777489082E+00 -0.39084001863E+01  0.10397019606E+03  0.10182116193E+03 0.  0.
         13    1    3    3    0    0  0.33056635201E+02 -0.28613252387E+02  0.33895971997E+02  0.55320949238E+02  0.10566000000E+00 0.  1.
         22    1    1    0    0    0 -0.20654186397E+02  0.61777489082E+00  0.39084001863E+01  0.21029803936E+02  0.00000000000E+00 0.  1.
</event>
<event>
 5    1  0.9034917E-005  0.9118800E+02  0.7818608E-02  0.1130116E+00
         25   -1    0    0    0    0  0.00000000000E+00  0.00000000000E+00  0.99999998245E-14  0.12500000000E+03  0.12500000000E+03 0.  0.
        -13    1    3    3    0    0  0.12324475133E+02  0.30906899061E+02  0.36890552112E+02  0.49679503782E+02  0.10566000000E+00 0.  1.
         23    2    1    0    0    0  0.27551562767E+02  0.16942353425E+01  0.25304888784E+01  0.97280649029E+02  0.93247853901E+02 0.  0.
         13    1    3    3    0    0  0.15227087634E+02 -0.29212663718E+02 -0.34360063234E+02  0.47601145247E+02  0.10566000000E+00 0. -1.
         22    1    1    0    0    0 -0.27551562767E+02 -0.16942353425E+01 -0.25304888784E+01  0.27719350971E+02  0.00000000000E+00 0. -1.
</event>
<event>
 5    1  0.9034917E-005  0.9118800E+02  0.7818608E-02  0.1130116E+00
         25   -1    0    0    0    0  0.00000000000E+00  0.00000000000E+00  0.99999998245E-14  0.12500000000E+03  0.12500000000E+03 0.  0.
        -13    1    3    3    0    0 -0.16724491486E+02  0.35513183633E+02  0.11395243096E+02  0.40874901303E+02  0.10566000000E+00 0.  1.
         23    2    1    0    0    0 -0.42788229885E+01  0.29662615185E+00 -0.28879553890E+02  0.95803682661E+02  0.91246483030E+02 0.  0.
         13    1    3    3    0    0  0.12445668498E+02 -0.35216557481E+02 -0.40274796987E+02  0.54928781359E+02  0.10566000000E+00 0. -1.
         22    1    1    0    0    0  0.42788229885E+01 -0.29662615185E+00  0.28879553890E+02  0.29196317339E+02  0.00000000000E+00 0. -1.
</event>
<event>
 5    1  0.9034917E-005  0.9118800E+02  0.7818608E-02  0.1130116E+00
         25   -1    0    0    0    0  0.00000000000E+00  0.00000000000E+00  0.99999998245E-14  0.12500000000E+03  0.12500000000E+03 0.  0.
        -13    1    3    3    0    0 -0.55632478933E+01 -0.46929348491E+02  0.83039813604E+01  0.47982087777E+02  0.10566000000E+00 0. -1.
         23    2    1    0    0    0  0.25204042991E+02 -0.12695622474E+02 -0.59338050842E+01  0.96161958182E+02  0.91735977378E+02 0.  0.
         13    1    3    3    0    0  0.30767290885E+02  0.34233726018E+02 -0.14237786445E+02  0.48179870406E+02  0.10566000000E+00 0.  1.
         22    1    1    0    0    0 -0.25204042991E+02  0.12695622474E+02  0.59338050842E+01  0.28838041818E+02  0.00000000000E+00 0.  1.
</event>
<event>
 5    1  0.9034917E-005  0.9118800E+02  0.7818608E-02  0.1130116E+00
         25   -1    0    0    0    0  0.00000000000E+00  0.00000000000E+00  0.99999998245E-14  0.12500000000E+03  0.12500000000E+03 0.  0.
        -13    1    3    3    0    0 -0.27031372023E+02 -0.13113330232E+02 -0.24639323846E+02  0.38855655275E+02  0.10566000000E+00 0. -1.
         23    2    1    0    0    0 -0.12164272563E+02  0.14770453655E+02  0.22410325509E+02  0.95532076463E+02  0.90873643680E+02 0.  0.
         13    1    3    3    0    0  0.14867099459E+02  0.27883783887E+02  0.47049649355E+02  0.56676421188E+02  0.10566000000E+00 0.  1.
         22    1    1    0    0    0  0.12164272563E+02 -0.14770453655E+02 -0.22410325509E+02  0.29467923537E+02  0.00000000000E+00 0.  1.
</event>
<event>
 5    1  0.9034917E-005  0.9118800E+02  0.7818608E-02  0.1130116E+00
         25   -1    0    0    0    0  0.00000000000E+00  0.00000000000E+00  0.99999998245E-14  0.12500000000E+03  0.12500000000E+03 0.  0.
        -13    1    3    3    0    0  0.37337657053E+02 -0.27138143560E+02  0.12520868827E+01  0.46175300277E+02  0.10566000000E+00 0.  1.
         23    2    1    0    0    0 -0.97195159277E+01 -0.28205673911E+02  0.89121409749E+01  0.93863923057E+02  0.88549312613E+02 0.  0.
         13    1    3    3    0    0 -0.47057172980E+02 -0.10675303508E+01  0.76600540921E+01  0.47688622780E+02  0.10566000000E+00 0. -1.
         22    1    1    0    0    0  0.97195159277E+01  0.28205673911E+02 -0.89121409749E+01  0.31136076943E+02  0.00000000000E+00 0.  1.
</event>
<event>
 5    1  0.9034917E-005  0.9118800E+02  0.7818608E-02  0.1130116E+00
         25   -1    0    0    0    0  0.00000000000E+00  0.00000000000E+00  0.99999998245E-14  0.12500000000E+03  0.12500000000E+03 0.  0.
        -13    1    3    3    0    0 -0.51883827773E+02 -0.96477236107E+01 -0.11558483896E+02  0.54024252603E+02  0.10566000000E+00 0. -1.
         23    2    1    0    0    0 -0.26920754647E+02  0.16524473236E+02  0.35339001742E+01  0.93215197076E+02  0.87628758230E+02 0.  0.
         13    1    3    3    0    0  0.24963073127E+02  0.26172196847E+02  0.15092384070E+02  0.39190944473E+02  0.10566000000E+00 0.  1.
         22    1    1    0    0    0  0.26920754647E+02 -0.16524473236E+02 -0.35339001742E+01  0.31784802924E+02  0.00000000000E+00 0. -1.
</event>
<event>
 5    1  0.9034917E-005  0.9118800E+02  0.7818608E-02  0.1130116E+00
         25   -1    0    0    0    0  0.00000000000E+00  0.00000000000E+00  0.99999998245E-14  0.12500000000E+03  0.12500000000E+03 0.  0.
        -13    1    3    3    0    0  0.31284130418E+01 -0.20814940488E+02 -0.31745015855E+02  0.38089446193E+02  0.10566000000E+00 0. -1.
         23    2    1    0    0    0 -0.27243601418E+02  0.13181628321E+02  0.17886094790E+01  0.94682212032E+02  0.89697006683E+02 0.  0.
         13    1    3    3    0    0 -0.30372014460E+02  0.33996568809E+02  0.33533625334E+02  0.56592765838E+02  0.10566000000E+00 0.  1.
         22    1    1    0    0    0  0.27243601418E+02 -0.13181628321E+02 -0.17886094790E+01  0.30317787968E+02  0.00000000000E+00 0.  1.
</event>
<event>
 5    1  0.9034917E-005  0.9118800E+02  0.7818608E-02  0.1130116E+00
         25   -1    0    0    0    0  0.00000000000E+00  0.00000000000E+00  0.99999998245E-14  0.12500000000E+03  0.12500000000E+03 0.  0.
        -13    1    3    3    0    0 -0.42399250659E+02  0.85039562457E+01 -0.12832624046E+02  0.45107661569E+02  0.10566000000E+00 0.  1.
         23    2    1    0    0    0  0.70409186034E+01  0.15372048492E+02 -0.23401660936E+02  0.96129389612E+02  0.91691588508E+02 0.  0.
         13    1    3    3    0    0  0.49440169262E+02  0.68680922460E+01 -0.10569036889E+02  0.51021728044E+02  0.10566000000E+00 0. -1.
         22    1    1    0    0    0 -0.70409186034E+01 -0.15372048492E+02  0.23401660936E+02  0.28870610388E+02  0.00000000000E+00 0. -1.
</event>
<event>
 5    1  0.9034917E-005  0.9118800E+02  0.7818608E-02  0.1130116E+00
         25   -1    0    0    0    0  0.00000000000E+00  0.00000000000E+00  0.99999998245E-14  0.12500000000E+03  0.12500000000E+03 0.  0.
        -13    1    3    3    0    0 -0.53590272459E+01 -0.45233709401E+02 -0.13225718303E+02  0.47431407609E+02  0.10566000000E+00 0. -1.
         23    2    1    0    0    0 -0.45918373225E+01 -0.29868738017E+02  0.23153695057E+02  0.86930063364E+02  0.78150597189E+02 0.  0.
         13    1    3    3    0    0  0.76718992342E+00  0.15364971384E+02  0.36379413359E+02  0.39498655754E+02  0.10566000000E+00 0.  1.
         22    1    1    0    0    0  0.45918373225E+01  0.29868738017E+02 -0.23153695057E+02  0.38069936636E+02  0.00000000000E+00 0.  1.
</event>
<event>
 5    1  0.9034917E-005  0.9118800E+02  0.7818608E-02  0.1130116E+00
         25   -1    0    0    0    0  0.00000000000E+00  0.00000000000E+00  0.99999998245E-14  0.12500000000E+03  0.12500000000E+03 0.  0.
        -13    1    3    3    0    0  0.11647803011E+01 -0.59082083310E+02 -0.93673259756E+00  0.59101082168E+02  0.10566000000E+00 0.  1.
         23    2    1    0    0    0 -0.58368076214E+01 -0.21966176173E+02  0.12340584862E+02  0.99137454619E+02  0.95704564440E+02 0.  0.
         13    1    3    3    0    0 -0.70015879225E+01  0.37115907137E+02  0.13277317460E+02  0.40036372451E+02  0.10566000000E+00 0. -1.
         22    1    1    0    0    0  0.58368076214E+01  0.21966176173E+02 -0.12340584862E+02  0.25862545381E+02  0.00000000000E+00 0.  1.
</event>
<event>
 5    1  0.9034917E-005  0.9118800E+02  0.7818608E-02  0.1130116E+00
         25   -1    0    0    0    0  0.00000000000E+00  0.00000000000E+00  0.99999998245E-14  0.12500000000E+03  0.12500000000E+03 0.  0.
        -13    1    3    3    0    0  0.14657655013E+02  0.56087112478E+02 -0.16481890583E+02  0.60268357517E+02  0.10566000000E+00 0.  1.
         23    2    1    0    0    0  0.17619625501E+02  0.21117428330E+02 -0.71191931197E+01  0.96590848433E+02  0.92318536104E+02 0.  0.
         13    1    3    3    0    0  0.29619704882E+01 -0.34969684148E+02  0.93626974630E+01  0.36322490916E+02  0.10566000000E+00 0. -1.
         22    1    1    0    0    0 -0.17619625501E+02 -0.21117428330E+02  0.71191931197E+01  0.28409151567E+02  0.00000000000E+00 0.  1.
</event>
<event>
 5    1  0.9034917E-005  0.9118800E+02  0.7818608E-02  0.1130116E+00
         25   -1    0    0    0    0  0.00000000000E+00  0.00000000000E+00  0.99999998245E-14  0.12500000000E+03  0.12500000000E+03 0.  0.
        -13    1    3    3    0    0 -0.40667996088E+02 -0.21175066319E+01 -0.19384432523E+02  0.45101409384E+02  0.10566000000E+00 0. -1.
         23    2    1    0    0    0  0.63897845494E+00 -0.28489482598E+02 -0.66067100103E+01  0.95747520971E+02  0.91169513780E+02 0.  0.
         13    1    3    3    0    0  0.41306974543E+02 -0.26371975966E+02  0.12777722513E+02  0.50646111587E+02  0.10566000000E+00 0.  1.
         22    1    1    0    0    0 -0.63897845494E+00  0.28489482598E+02  0.66067100103E+01  0.29252479029E+02  0.00000000000E+00 0. -1.
</event>
<event>
 5    1  0.9034917E-005  0.9118800E+02  0.7818608E-02  0.1130116E+00
         25   -1    0    0    0    0  0.00000000000E+00  0.00000000000E+00  0.99999998245E-14  0.12500000000E+03  0.12500000000E+03 0.  0.
        -13    1    3    3    0    0 -0.84426800674E+01 -0.27248354136E+02  0.16786687379E+02  0.33099179552E+02  0.10566000000E+00 0. -1.
         23    2    1    0    0    0  0.16518611052E+02  0.23084503086E+02 -0.94181591780E+01  0.95092467234E+02  0.90266919791E+02 0.  0.
         13    1    3    3    0    0  0.24961291120E+02  0.50332857222E+02 -0.26204846557E+02  0.61993287682E+02  0.10566000000E+00 0.  1.
         22    1    1    0    0    0 -0.16518611052E+02 -0.23084503086E+02  0.94181591780E+01  0.29907532766E+02  0.00000000000E+00 0.  1.
</event>
<event>
 5    1  0.9034917E-005  0.9118800E+02  0.7818608E-02  0.1130116E+00
         25   -1    0    0    0    0  0.00000000000E+00  0.00000000000E+00  0.99999998245E-14  0.12500000000E+03  0.12500000000E+03 0.  0.
        -13    1    3    3    0    0  0.33445714253E+02  0.17552668064E+01 -0.23896870105E+01  0.33577053646E+02  0.10566000000E+00 0.  1.
         23    2    1    0    0    0 -0.45456843409E+01  0.37614722080E+02 -0.84831920419E+01  0.86173525649E+02  0.76931017232E+02 0.  0.
         13    1    3    3    0    0 -0.37991398594E+02  0.35859455274E+02 -0.60935050313E+01  0.52596472004E+02  0.10566000000E+00 0. -1.
         22    1    1    0    0    0  0.45456843409E+01 -0.37614722080E+02  0.84831920419E+01  0.38826474351E+02  0.00000000000E+00 0. -1.
</event>
<event>
 5    1  0.9034917E-005  0.9118800E+02  0.7818608E-02  0.1130116E+00
         25   -1    0    0    0    0  0.00000000000E+00  0.00000000000E+00  0.99999998245E-14  0.12500000000E+03  0.12500000000E+03 0.  0.
        -13    1    3    3    0    0  0.48047486159E+02 -0.34138438901E+02  0.19425635109E+02  0.62059329679E+02  0.10566000000E+00 0.  1.
         23    2    1    0    0    0  0.18957505697E+02 -0.18690759755E+02  0.11866930443E+02  0.95852863595E+02  0.91313831914E+02 0.  0.
         13    1    3    3    0    0 -0.29089980462E+02  0.15447679146E+02 -0.75587046663E+01  0.33793533916E+02  0.10566000000E+00 0. -1.
         22    1    1    0    0    0 -0.18957505697E+02  0.18690759755E+02 -0.11866930443E+02  0.29147136405E+02  0.00000000000E+00 0.  1.
</event>
<event>
 5    1  0.9034917E-005  0.9118800E+02  0.7818608E-02  0.1130116E+00
         25   -1    0    0    0    0  0.00000000000E+00  0.00000000000E+00  0.99999998245E-14  0.12500000000E+03  0.12500000000E+03 0.  0.
        -13    1    3    3    0    0 -0.20256843585E+02 -0.42493607799E+02 -0.40917015745E+02  0.62371946878E+02  0.10566000000E+00 0.  1.
         23    2    1    0    0    0 -0.83148590060E+01 -0.23234455336E+02 -0.23086214040E+02  0.91207248207E+02  0.84716067259E+02 0.  0.
         13    1    3    3    0    0  0.11941984579E+02  0.19259152463E+02  0.17830801705E+02  0.28835301329E+02  0.10566000000E+00 0. -1.
         22    1    1    0    0    0  0.83148590060E+01  0.23234455336E+02  0.23086214040E+02  0.33792751793E+02  0.00000000000E+00 0.  1.
</event>
<event>
 5    1  0.9034917E-005  0.9118800E+02  0.7818608E-02  0.1130116E+00
         25   -1    0    0    0    0  0.00000000000E+00  0.00000000000E+00  0.99999998245E-14  0.12500000000E+03  0.12500000000E+03 0.  0.
        -13    1    3    3    0    0  0.66262441981E+01  0.23294486454E+02  0.22361740304E+02  0.32963598177E+02  0.10566000000E+00 0.  1.
         23    2    1    0    0    0 -0.35672002922E+01 -0.25662539056E+02 -0.14703439892E+02  0.95209364334E+02  0.90428651895E+02 0.  0.
         13    1    3    3    0    0 -0.10193444490E+02 -0.48957025511E+02 -0.37065180195E+02  0.62245766156E+02  0.10566000000E+00 0. -1.
         22    1    1    0    0    0  0.35672002922E+01  0.25662539056E+02  0.14703439892E+02  0.29790635666E+02  0.00000000000E+00 0. -1.
</event>
<event>
 5    1  0.9034917E-005  0.9118800E+02  0.7818608E-02  0.1130116E+00
         25   -1    0    0    0    0  0.00000000000E+00  0.00000000000E+00  0.99999998245E-14  0.12500000000E+03  0.12500000000E+03 0.  0.
        -13    1    3    3    0    0  0.17312483094E+02  0.24970328825E+02 -0.36615322301E+02  0.47580798478E+02  0.10566000000E+00 0. -1.
         23    2    1    0    0    0  0.28515011738E+02 -0.79136416021E+01 -0.41714247409E+01  0.95114679152E+02  0.90297673215E+02 0.  0.
         13    1    3    3    0    0  0.11202528644E+02 -0.32883970427E+02  0.32443897560E+02  0.47533880675E+02  0.10566000000E+00 0.  1.
         22    1    1    0    0    0 -0.28515011738E+02  0.79136416021E+01  0.41714247409E+01  0.29885320848E+02  0.00000000000E+00 0.  1.
</event>
<event>
 5    1  0.9034917E-005  0.9118800E+02  0.7818608E-02  0.1130116E+00
         25   -1    0    0    0    0  0.00000000000E+00  0.00000000000E+00  0.99999998245E-14  0.12500000000E+03  0.12500000000E+03 0.  0.
        -13    1    3    3    0    0 -0.30717924905E+01  0.17330528073E+02  0.15812492110E+02  0.23660709692E+02  0.10566000000E+00 0.  1.
         23    2    1    0    0    0 -0.13327411390E+02 -0.24319951018E+02 -0.28430594716E+02  0.85283773747E+02  0.75471474324E+02 0.  0.
         13    1    3    3    0    0 -0.10255618900E+02 -0.41650479091E+02 -0.44243086826E+02  0.61623064054E+02  0.10566000000E+00 0. -1.
         22    1    1    0    0    0  0.13327411390E+02  0.24319951018E+02  0.28430594716E+02  0.39716226253E+02  0.00000000000E+00 0. -1.
</event>
<event>
 5    1  0.9034917E-005  0.9118800E+02  0.7818608E-02  0.1130116E+00
         25   -1    0    0    0    0  0.00000000000E+00  0.00000000000E+00  0.99999998245E-14  0.12500000000E+03  0.12500000000E+03 0.  0.
        -13    1    3    3    0    0  0.43350824537E+02  0.25796856823E+02  0.20064594534E+02  0.54289694490E+02  0.10566000000E+00 0. -1.
         23    2    1    0    0    0  0.23961920604E+02 -0.10368981016E+02  0.12642621763E+02  0.95990944666E+02  0.91502656609E+02 0.  0.
         13    1    3    3    0    0 -0.19388903933E+02 -0.36165837839E+02 -0.74219727717E+01  0.41701250175E+02  0.10566000000E+00 0.  1.
         22    1    1    0    0    0 -0.23961920604E+02  0.10368981016E+02 -0.12642621763E+02  0.29009055334E+02  0.00000000000E+00 0. -1.
</event>
<event>
 5    1  0.9034917E-005  0.9118800E+02  0.7818608E-02  0.1130116E+00
         25   -1    0    0    0    0  0.00000000000E+00  0.00000000000E+00  0.99999998245E-14  0.12500000000E+03  0.12500000000E+03 0.  0.
        -13    1    3    3    0    0 -0.10116586002E+02  0.51780370267E+02 -0.14811141392E+02  0.54799024906E+02  0.10566000000E+00 0.  1.
         23    2    1    0    0    0 -0.23343072548E+02  0.11633979395E+02 -0.86883044491E+01  0.97509362562E+02  0.93553945082E+02 0.  0.
         13    1    3    3    0    0 -0.13226486546E+02 -0.40146390872E+02  0.61228369429E+01  0.42710337656E+02  0.10566000000E+00 0. -1.
         22    1    1    0    0    0  0.23343072548E+02 -0.11633979395E+02  0.86883044491E+01  0.27490637438E+02  0.00000000000E+00 0.  1.
</event>
<event>
 5    1  0.9034917E-005  0.9118800E+02  0.7818608E-02  0.1130116E+00
         25   -1    0    0    0    0  0.00000000000E+00  0.00000000000E+00  0.99999998245E-14  0.12500000000E+03  0.12500000000E+03 0.  0.
        -13    1    3    3    0    0 -0.23502406900E+02 -0.18659889782E+02  0.40587915440E+02  0.50477169697E+02  0.10566000000E+00 0.  1.
         23    2    1    0    0    0 -0.27514281603E+02 -0.95672920030E+01 -0.34897720803E+01  0.95661505193E+02  0.91051503547E+02 0.  0.
         13    1    3    3    0    0 -0.40118747030E+01  0.90925977789E+01 -0.44077687521E+02  0.45184335496E+02  0.10566000000E+00 0. -1.
         22    1    1    0    0    0  0.27514281603E+02  0.95672920030E+01  0.34897720803E+01  0.29338494807E+02  0.00000000000E+00 0.  1.
</event>
<event>
 5    1  0.9034917E-005  0.9118800E+02  0.7818608E-02  0.1130116E+00
         25   -1    0    0    0    0  0.00000000000E+00  0.00000000000E+00  0.99999998245E-14  0.12500000000E+03  0.12500000000E+03 0.  0.
        -13    1    3    3    0    0  0.78032569411E+01  0.55735573891E+02  0.72075638727E+01  0.56738921005E+02  0.10566000000E+00 0. -1.
         23    2    1    0    0    0 -0.11654922819E+02  0.30954827368E+02 -0.68200871096E+01  0.91227938300E+02  0.84746590345E+02 0.  0.
         13    1    3    3    0    0 -0.19458179760E+02 -0.24780746523E+02 -0.14027650982E+02  0.34489017295E+02  0.10566000000E+00 0.  1.
         22    1    1    0    0    0  0.11654922819E+02 -0.30954827368E+02  0.68200871096E+01  0.33772061700E+02  0.00000000000E+00 0. -1.
</event>
<event>
 5    1  0.9034917E-005  0.9118800E+02  0.7818608E-02  0.1130116E+00
         25   -1    0    0    0    0  0.00000000000E+00  0.00000000000E+00  0.99999998245E-14  0.12500000000E+03  0.12500000000E+03 0.  0.
        -13    1    3    3    0    0 -0.28555152822E+02 -0.34521994168E+02  0.41480643615E+01  0.44993137654E+02  0.10566000000E+00 0. -1.
         23    2    1    0    0    0 -0.24362604684E+02  0.16033282475E+02  0.10734616791E+01  0.95815158491E+02  0.91262202596E+02 0.  0.
         13    1    3    3    0    0  0.41925481372E+01  0.50555276642E+02 -0.30746026823E+01  0.50822020837E+02  0.10566000000E+00 0.  1.
         22    1    1    0    0    0  0.24362604684E+02 -0.16033282475E+02 -0.10734616791E+01  0.29184841509E+02  0.00000000000E+00 0.  1.
</event>
<event>
 5    1  0.9034917E-005  0.9118800E+02  0.7818608E-02  0.1130116E+00
         25   -1    0    0    0    0  0.00000000000E+00  0.00000000000E+00  0.99999998245E-14  0.12500000000E+03  0.12500000000E+03 0.  0.
        -13    1    3    3    0    0 -0.37300609630E+02  0.43797861319E+02 -0.49202070962E+01  0.57739135227E+02  0.10566000000E+00 0. -1.
         23    2    1    0    0    0 -0.28292281705E+02  0.69567464656E+01 -0.29315979018E+01  0.95717858826E+02  0.91128835757E+02 0.  0.
         13    1    3    3    0    0  0.90083279251E+01 -0.36841114853E+02  0.19886091944E+01  0.37978723599E+02  0.10566000000E+00 0.  1.
         22    1    1    0    0    0  0.28292281705E+02 -0.69567464656E+01  0.29315979018E+01  0.29282141174E+02  0.00000000000E+00 0. -1.
</event>
<event>
 5    1  0.9034917E-005  0.9118800E+02  0.7818608E-02  0.1130116E+00
         25   -1    0    0    0    0  0.00000000000E+00  0.00000000000E+00  0.99999998245E-14  0.12500000000E+03  0.12500000000E+03 0.  0.
        -13    1    3    3    0    0 -0.35554675934E+02  0.19086065012E+02  0.25666338410E+02  0.47824522474E+02  0.10566000000E+00 0. -1.
         23    2    1    0    0    0 -0.23698252480E+02  0.77748555128E+01 -0.17853641934E+02  0.94327405079E+02  0.89201184240E+02 0.  0.
         13    1    3    3    0    0  0.11856423454E+02 -0.11311209499E+02 -0.43519980344E+02  0.46502882606E+02  0.10566000000E+00 0.  1.
         22    1    1    0    0    0  0.23698252480E+02 -0.77748555128E+01  0.17853641934E+02  0.30672594921E+02  0.00000000000E+00 0. -1.
</event>
<event>
 5    1  0.9034917E-005  0.9118800E+02  0.7818608E-02  0.1130116E+00
         25   -1    0    0    0    0  0.00000000000E+00  0.00000000000E+00  0.99999998245E-14  0.12500000000E+03  0.12500000000E+03 0.  0.
        -13    1    3    3    0    0 -0.52542370846E+02 -0.25696611929E+02 -0.11870404614E+02  0.59681942567E+02  0.10566000000E+00 0.  1.
         23    2    1    0    0    0 -0.29249827548E+02 -0.32659861133E+01  0.32687950652E+01  0.95387433443E+02  0.90674463664E+02 0.  0.
         13    1    3    3    0    0  0.23292543298E+02  0.22430625816E+02  0.15139199679E+02  0.35705490876E+02  0.10566000000E+00 0. -1.
         22    1    1    0    0    0  0.29249827548E+02  0.32659861133E+01 -0.32687950652E+01  0.29612566557E+02  0.00000000000E+00 0.  1.
</event>
<event>
 5    1  0.9034917E-005  0.9118800E+02  0.7818608E-02  0.1130116E+00
         25   -1    0    0    0    0  0.00000000000E+00  0.00000000000E+00  0.99999998245E-14  0.12500000000E+03  0.12500000000E+03 0.  0.
        -13    1    3    3    0    0  0.15989998846E+02  0.47104108750E+02  0.34480233176E+02  0.60525819021E+02  0.10566000000E+00 0. -1.
         23    2    1    0    0    0  0.17373848812E+02  0.16903739106E+02  0.14822398873E+02  0.96587141527E+02  0.92313516787E+02 0.  0.
         13    1    3    3    0    0  0.13838499654E+01 -0.30200369644E+02 -0.19657834303E+02  0.36061322506E+02  0.10566000000E+00 0.  1.
         22    1    1    0    0    0 -0.17373848812E+02 -0.16903739106E+02 -0.14822398873E+02  0.28412858473E+02  0.00000000000E+00 0. -1.
</event>
<event>
 5    1  0.9034917E-005  0.9118800E+02  0.7818608E-02  0.1130116E+00
         25   -1    0    0    0    0  0.00000000000E+00  0.00000000000E+00  0.99999998245E-14  0.12500000000E+03  0.12500000000E+03 0.  0.
        -13    1    3    3    0    0 -0.26961590172E+02  0.16950114226E+02 -0.21017743212E+02  0.38157442402E+02  0.10566000000E+00 0. -1.
         23    2    1    0    0    0  0.24635342061E+02 -0.80916823337E+01 -0.12755311305E+02  0.96102363973E+02  0.91654737975E+02 0.  0.
         13    1    3    3    0    0  0.51596932233E+02 -0.25041796560E+02  0.82624319072E+01  0.57944921571E+02  0.10566000000E+00 0.  1.
         22    1    1    0    0    0 -0.24635342061E+02  0.80916823337E+01  0.12755311305E+02  0.28897636027E+02  0.00000000000E+00 0.  1.
</event>
<event>
 5    1  0.9034917E-005  0.9118800E+02  0.7818608E-02  0.1130116E+00
         25   -1    0    0    0    0  0.00000000000E+00  0.00000000000E+00  0.99999998245E-14  0.12500000000E+03  0.12500000000E+03 0.  0.
        -13    1    3    3    0    0  0.49041333872E+02  0.30898884803E+02 -0.76427218686E+00  0.57968860486E+02  0.10566000000E+00 0.  1.
         23    2    1    0    0    0  0.12053221333E+02  0.22395106481E+02 -0.11018729876E+02  0.97282977309E+02  0.93250974939E+02 0.  0.
         13    1    3    3    0    0 -0.36988112540E+02 -0.85037783219E+01 -0.10254457689E+02  0.39314116823E+02  0.10566000000E+00 0. -1.
         22    1    1    0    0    0 -0.12053221333E+02 -0.22395106481E+02  0.11018729876E+02  0.27717022691E+02  0.00000000000E+00 0.  1.
</event>
<event>
 5    1  0.9034917E-005  0.9118800E+02  0.7818608E-02  0.1130116E+00
         25   -1    0    0    0    0  0.00000000000E+00  0.00000000000E+00  0.99999998245E-14  0.12500000000E+03  0.12500000000E+03 0.  0.
        -13    1    3    3    0    0  0.12903101396E+02 -0.20382886229E+02 -0.47781907203E+02  0.53526385051E+02  0.10566000000E+00 0.  1.
         23    2    1    0    0    0  0.32038219508E+01  0.13963669975E+02 -0.25932232876E+02  0.95373504153E+02  0.90655259297E+02 0.  0.
         13    1    3    3    0    0 -0.96992794454E+01  0.34346556204E+02  0.21849674327E+02  0.41847119102E+02  0.10566000000E+00 0. -1.
         22    1    1    0    0    0 -0.32038219508E+01 -0.13963669975E+02  0.25932232876E+02  0.29626495847E+02  0.00000000000E+00 0.  1.
</event>
<event>
 5    1  0.9034917E-005  0.9118800E+02  0.7818608E-02  0.1130116E+00
         25   -1    0    0    0    0  0.00000000000E+00  0.00000000000E+00  0.99999998245E-14  0.12500000000E+03  0.12500000000E+03 0.  0.
        -13    1    3    3    0    0 -0.95061891917E+01  0.12898447012E+02 -0.50968716572E+02  0.53428071286E+02  0.10566000000E+00 0. -1.
         23    2    1    0    0    0 -0.44963085472E+00 -0.17830346133E+02 -0.22521718698E+02  0.96271073389E+02  0.91884538129E+02 0.  0.
         13    1    3    3    0    0  0.90565583370E+01 -0.30728793146E+02  0.28446997874E+02  0.42843002103E+02  0.10566000000E+00 0.  1.
         22    1    1    0    0    0  0.44963085472E+00  0.17830346133E+02  0.22521718698E+02  0.28728926611E+02  0.00000000000E+00 0. -1.
</event>
<event>
 5    1  0.9034917E-005  0.9118800E+02  0.7818608E-02  0.1130116E+00
         25   -1    0    0    0    0  0.00000000000E+00  0.00000000000E+00  0.99999998245E-14  0.12500000000E+03  0.12500000000E+03 0.  0.
        -13    1    3    3    0    0  0.21870376767E+02  0.83542680440E+01  0.19092915527E+02  0.30210226114E+02  0.10566000000E+00 0. -1.
         23    2    1    0    0    0  0.53919005263E+01 -0.16898794120E+01 -0.35986441610E+02  0.88572644023E+02  0.80735128697E+02 0.  0.
         13    1    3    3    0    0 -0.16478476241E+02 -0.10044147456E+02 -0.55079357138E+02  0.58362417908E+02  0.10566000000E+00 0.  1.
         22    1    1    0    0    0 -0.53919005263E+01  0.16898794120E+01  0.35986441610E+02  0.36427355977E+02  0.00000000000E+00 0.  1.
</event>
<event>
 5    1  0.9034917E-005  0.9118800E+02  0.7818608E-02  0.1130116E+00
         25   -1    0    0    0    0  0.00000000000E+00  0.00000000000E+00  0.99999998245E-14  0.12500000000E+03  0.12500000000E+03 0.  0.
        -13    1    3    3    0    0 -0.12360089431E+02 -0.22327212591E+01 -0.51875024919E+02  0.53374022046E+02  0.10566000000E+00 0. -1.
         23    2    1    0    0    0  0.96605480481E+01 -0.19259818510E+02 -0.22078576288E+02  0.94149873120E+02  0.88952056075E+02 0.  0.
         13    1    3    3    0    0  0.22020637479E+02 -0.17027097251E+02  0.29796448631E+02  0.40775851074E+02  0.10566000000E+00 0.  1.
         22    1    1    0    0    0 -0.96605480481E+01  0.19259818510E+02  0.22078576288E+02  0.30850126880E+02  0.00000000000E+00 0. -1.
</event>
<event>
 5    1  0.9034917E-005  0.9118800E+02  0.7818608E-02  0.1130116E+00
         25   -1    0    0    0    0  0.00000000000E+00  0.00000000000E+00  0.99999998245E-14  0.12500000000E+03  0.12500000000E+03 0.  0.
        -13    1    3    3    0    0  0.59368481829E+01  0.12605979705E+02 -0.25064275517E+02  0.28677272567E+02  0.10566000000E+00 0.  1.
         23    2    1    0    0    0 -0.14453744542E+02 -0.12796223656E+02  0.28028966292E+02  0.90966530848E+02  0.84360136984E+02 0.  0.
         13    1    3    3    0    0 -0.20390592725E+02 -0.25402203361E+02  0.53093241809E+02  0.62289258280E+02  0.10566000000E+00 0. -1.
         22    1    1    0    0    0  0.14453744542E+02  0.12796223656E+02 -0.28028966292E+02  0.34033469152E+02  0.00000000000E+00 0. -1.
</event>
<event>
 5    1  0.9034917E-005  0.9118800E+02  0.7818608E-02  0.1130116E+00
         25   -1    0    0    0    0  0.00000000000E+00  0.00000000000E+00  0.99999998245E-14  0.12500000000E+03  0.12500000000E+03 0.  0.
        -13    1    3    3    0    0  0.30005534952E+01  0.89235476521E+01 -0.41715867425E+02  0.42765146826E+02  0.10566000000E+00 0. -1.
         23    2    1    0    0    0 -0.20338850243E+02  0.20383085702E+02  0.45609453200E+01  0.95846248370E+02  0.91304775847E+02 0.  0.
         13    1    3    3    0    0 -0.23339403738E+02  0.11459538050E+02  0.46276812745E+02  0.53081101543E+02  0.10566000000E+00 0.  1.
         22    1    1    0    0    0  0.20338850243E+02 -0.20383085702E+02 -0.45609453200E+01  0.29153751630E+02  0.00000000000E+00 0. -1.
</event>
<event>
 5    1  0.9034917E-005  0.9118800E+02  0.7818608E-02  0.1130116E+00
         25   -1    0    0    0    0  0.00000000000E+00  0.00000000000E+00  0.99999998245E-14  0.12500000000E+03  0.12500000000E+03 0.  0.
        -13    1    3    3    0    0  0.38764574415E+02 -0.23688459946E+02 -0.21127416492E+01  0.45478678581E+02  0.10566000000E+00 0.  1.
         23    2    1    0    0    0  0.78307610020E+01 -0.43804159568E+01  0.29764253276E+02  0.93912709432E+02  0.88618154788E+02 0.  0.
         13    1    3    3    0    0 -0.30933813413E+02  0.19308043989E+02  0.31876994925E+02  0.48434030850E+02  0.10566000000E+00 0. -1.
         22    1    1    0    0    0 -0.78307610020E+01  0.43804159568E+01 -0.29764253276E+02  0.31087290568E+02  0.00000000000E+00 0. -1.
</event>
<event>
 5    1  0.9034917E-005  0.9118800E+02  0.7818608E-02  0.1130116E+00
         25   -1    0    0    0    0  0.00000000000E+00  0.00000000000E+00  0.99999998245E-14  0.12500000000E+03  0.12500000000E+03 0.  0.
        -13    1    3    3    0    0 -0.30213440084E+02 -0.33790722996E+02 -0.24736707273E+01  0.45395981466E+02  0.10566000000E+00 0.  1.
         23    2    1    0    0    0 -0.68984316067E+01  0.59000202616E+01 -0.26263454297E+02  0.97212095629E+02  0.93155911821E+02 0.  0.
         13    1    3    3    0    0  0.23315008477E+02  0.39690743258E+02 -0.23789783570E+02  0.51816114163E+02  0.10566000000E+00 0. -1.
         22    1    1    0    0    0  0.68984316067E+01 -0.59000202616E+01  0.26263454297E+02  0.27787904371E+02  0.00000000000E+00 0. -1.
</event>
<event>
 5    1  0.9034917E-005  0.9118800E+02  0.7818608E-02  0.1130116E+00
         25   -1    0    0    0    0  0.00000000000E+00  0.00000000000E+00  0.99999998245E-14  0.12500000000E+03  0.12500000000E+03 0.  0.
        -13    1    3    3    0    0 -0.12196935393E+02  0.32730553843E+02  0.55908082894E+01  0.35374039764E+02  0.10566000000E+00 0.  1.
         23    2    1    0    0    0  0.45321913969E+01 -0.26452112706E+02  0.82195948684E+01  0.96931926228E+02  0.92779208646E+02 0.  0.
         13    1    3    3    0    0  0.16729126789E+02 -0.59182666549E+02  0.26287865790E+01  0.61557886464E+02  0.10566000000E+00 0. -1.
         22    1    1    0    0    0 -0.45321913969E+01  0.26452112706E+02 -0.82195948684E+01  0.28068073772E+02  0.00000000000E+00 0. -1.
</event>
<event>
 5    1  0.9034917E-005  0.9118800E+02  0.7818608E-02  0.1130116E+00
         25   -1    0    0    0    0  0.00000000000E+00  0.00000000000E+00  0.99999998245E-14  0.12500000000E+03  0.12500000000E+03 0.  0.
        -13    1    3    3    0    0  0.69338149302E+01  0.41015801160E+02  0.45837724071E+02  0.61898964824E+02  0.10566000000E+00 0.  1.
         23    2    1    0    0    0  0.66079385640E+01  0.22609706915E+02  0.17650609695E+02  0.95565195406E+02  0.90919188577E+02 0.  0.
         13    1    3    3    0    0 -0.32587636618E+00 -0.18406094244E+02 -0.28187114376E+02  0.33666230582E+02  0.10566000000E+00 0. -1.
         22    1    1    0    0    0 -0.66079385640E+01 -0.22609706915E+02 -0.17650609695E+02  0.29434804594E+02  0.00000000000E+00 0.  1.
</event>
<event>
 5    1  0.9034917E-005  0.9118800E+02  0.7818608E-02  0.1130116E+00
         25   -1    0    0    0    0  0.00000000000E+00  0.00000000000E+00  0.99999998245E-14  0.12500000000E+03  0.12500000000E+03 0.  0.
        -13    1    3    3    0    0 -0.27215067299E+02  0.55766834115E+02 -0.55614771894E+01  0.62302013353E+02  0.10566000000E+00 0.  1.
         23    2    1    0    0    0 -0.15633269117E+02  0.25258060393E+02 -0.76918342542E+00  0.95285351066E+02  0.90533627822E+02 0.  0.
         13    1    3    3    0    0  0.11581798182E+02 -0.30508773722E+02  0.47922937640E+01  0.32983337713E+02  0.10566000000E+00 0. -1.
         22    1    1    0    0    0  0.15633269117E+02 -0.25258060393E+02  0.76918342542E+00  0.29714648934E+02  0.00000000000E+00 0.  1.
</event>
<event>
 5    1  0.9034917E-005  0.9118800E+02  0.7818608E-02  0.1130116E+00
         25   -1    0    0    0    0  0.00000000000E+00  0.00000000000E+00  0.99999998245E-14  0.12500000000E+03  0.12500000000E+03 0.  0.
        -13    1    3    3    0    0  0.88684980888E+01  0.20656217483E+02 -0.48279805039E+02  0.53256739646E+02  0.10566000000E+00 0.  1.
         23    2    1    0    0    0 -0.81714387589E+00  0.28694366554E+02 -0.83785591657E+01  0.95096243551E+02  0.90272149015E+02 0.  0.
         13    1    3    3    0    0 -0.96856419647E+01  0.80381490711E+01  0.39901245873E+02  0.41839503905E+02  0.10566000000E+00 0. -1.
         22    1    1    0    0    0  0.81714387589E+00 -0.28694366554E+02  0.83785591657E+01  0.29903756449E+02  0.00000000000E+00 0.  1.
</event>
<event>
 5    1  0.9034917E-005  0.9118800E+02  0.7818608E-02  0.1130116E+00
         25   -1    0    0    0    0  0.00000000000E+00  0.00000000000E+00  0.99999998245E-14  0.12500000000E+03  0.12500000000E+03 0.  0.
        -13    1    3    3    0    0  0.19900119219E+02 -0.36418056013E+02 -0.16306410184E+02  0.44589233295E+02  0.10566000000E+00 0. -1.
         23    2    1    0    0    0 -0.12901194138E+02 -0.18970243811E+02  0.18522257675E+02  0.95514664834E+02  0.90849690196E+02 0.  0.
         13    1    3    3    0    0 -0.32801313357E+02  0.17447812202E+02  0.34828667859E+02  0.50925431540E+02  0.10566000000E+00 0.  1.
         22    1    1    0    0    0  0.12901194138E+02  0.18970243811E+02 -0.18522257675E+02  0.29485335166E+02  0.00000000000E+00 0.  1.
</event>
<event>
 5    1  0.9034917E-005  0.9118800E+02  0.7818608E-02  0.1130116E+00
         25   -1    0    0    0    0  0.00000000000E+00  0.00000000000E+00  0.99999998245E-14  0.12500000000E+03  0.12500000000E+03 0.  0.
        -13    1    3    3    0    0  0.23275518726E+02 -0.46232381454E+02 -0.34142089755E+02  0.62007066724E+02  0.10566000000E+00 0.  1.
         23    2    1    0    0    0  0.73507736504E+01 -0.20199672523E+02 -0.19988952393E+02  0.95646655028E+02  0.91031114225E+02 0.  0.
         13    1    3    3    0    0 -0.15924745076E+02  0.26032708932E+02  0.14153137362E+02  0.33639588304E+02  0.10566000000E+00 0. -1.
         22    1    1    0    0    0 -0.73507736504E+01  0.20199672523E+02  0.19988952393E+02  0.29353344972E+02  0.00000000000E+00 0.  1.
</event>
<event>
 5    1  0.9034917E-005  0.9118800E+02  0.7818608E-02  0.1130116E+00
         25   -1    0    0    0    0  0.00000000000E+00  0.00000000000E+00  0.99999998245E-14  0.12500000000E+03  0.12500000000E+03 0.  0.
        -13    1    3    3    0    0  0.37179133664E+02 -0.14695952742E+02 -0.18126536247E+02  0.43895802617E+02  0.10566000000E+00 0.  1.
         23    2    1    0    0    0  0.10727591268E+02 -0.20909751728E+02  0.22298273350E+02  0.92603828526E+02  0.86752274504E+02 0.  0.
         13    1    3    3    0    0 -0.26451542396E+02 -0.62137989859E+01  0.40424809597E+02  0.48708025909E+02  0.10566000000E+00 0. -1.
         22    1    1    0    0    0 -0.10727591268E+02  0.20909751728E+02 -0.22298273350E+02  0.32396171474E+02  0.00000000000E+00 0. -1.
</event>
<event>
 5    1  0.9034917E-005  0.9118800E+02  0.7818608E-02  0.1130116E+00
         25   -1    0    0    0    0  0.00000000000E+00  0.00000000000E+00  0.99999998245E-14  0.12500000000E+03  0.12500000000E+03 0.  0.
        -13    1    3    3    0    0  0.37863422206E+02  0.29009219250E+02 -0.29237934870E+02  0.55946774189E+02  0.10566000000E+00 0. -1.
         23    2    1    0    0    0  0.68734882189E+01  0.34655838339E+01 -0.27822567608E+02  0.96132191287E+02  0.91695407855E+02 0.  0.
         13    1    3    3    0    0 -0.30989933987E+02 -0.25543635416E+02  0.14153672616E+01  0.40185417098E+02  0.10566000000E+00 0.  1.
         22    1    1    0    0    0 -0.68734882189E+01 -0.34655838339E+01  0.27822567608E+02  0.28867808713E+02  0.00000000000E+00 0.  1.
</event>
<event>
 5    1  0.9034917E-005  0.9118800E+02  0.7818608E-02  0.1130116E+00
         25   -1    0    0    0    0  0.00000000000E+00  0.00000000000E+00  0.99999998245E-14  0.12500000000E+03  0.12500000000E+03 0.  0.
        -13    1    3    3    0    0  0.50551405508E+02 -0.26977181692E+02 -0.40043299451E+00  0.57300824091E+02  0.10566000000E+00 0.  1.
         23    2    1    0    0    0  0.28820784280E+02  0.47782998941E+01 -0.56708265549E+00  0.95780291939E+02  0.91214434082E+02 0.  0.
         13    1    3    3    0    0 -0.21730621228E+02  0.31755481586E+02 -0.16664966098E+00  0.38479467848E+02  0.10566000000E+00 0. -1.
         22    1    1    0    0    0 -0.28820784280E+02 -0.47782998941E+01  0.56708265549E+00  0.29219708061E+02  0.00000000000E+00 0.  1.
</event>
<event>
 5    1  0.9034917E-005  0.9118800E+02  0.7818608E-02  0.1130116E+00
         25   -1    0    0    0    0  0.00000000000E+00  0.00000000000E+00  0.99999998245E-14  0.12500000000E+03  0.12500000000E+03 0.  0.
        -13    1    3    3    0    0  0.22795121219E+01 -0.13610302451E+02  0.52728961914E+02  0.54504963965E+02  0.10566000000E+00 0. -1.
         23    2    1    0    0    0 -0.19826116089E+02 -0.10776277139E+02  0.36550696213E+02  0.82044716019E+02  0.69901208894E+02 0.  0.
         13    1    3    3    0    0 -0.22105628211E+02  0.28340253114E+01 -0.16178265701E+02  0.27539752054E+02  0.10566000000E+00 0.  1.
         22    1    1    0    0    0  0.19826116089E+02  0.10776277139E+02 -0.36550696213E+02  0.42955283981E+02  0.00000000000E+00 0. -1.
</event>
<event>
 5    1  0.9034917E-005  0.9118800E+02  0.7818608E-02  0.1130116E+00
         25   -1    0    0    0    0  0.00000000000E+00  0.00000000000E+00  0.99999998245E-14  0.12500000000E+03  0.12500000000E+03 0.  0.
        -13    1    3    3    0    0  0.36211819913E+02 -0.41276805610E+02  0.33007991035E+01  0.55008881296E+02  0.10566000000E+00 0.  1.
         23    2    1    0    0    0 -0.20880373248E+01 -0.29855255368E+02  0.62119673755E+00  0.95065370249E+02  0.90229388573E+02 0.  0.
         13    1    3    3    0    0 -0.38299857237E+02  0.11421550242E+02 -0.26796023659E+01  0.40056488953E+02  0.10566000000E+00 0. -1.
         22    1    1    0    0    0  0.20880373248E+01  0.29855255368E+02 -0.62119673755E+00  0.29934629751E+02  0.00000000000E+00 0.  1.
</event>
<event>
 5    1  0.9034917E-005  0.9118800E+02  0.7818608E-02  0.1130116E+00
         25   -1    0    0    0    0  0.00000000000E+00  0.00000000000E+00  0.99999998245E-14  0.12500000000E+03  0.12500000000E+03 0.  0.
        -13    1    3    3    0    0 -0.12064954131E+02  0.24461233056E+02 -0.47742109255E+02  0.54983954031E+02  0.10566000000E+00 0.  1.
         23    2    1    0    0    0  0.66600715231E+00  0.27553384508E+02 -0.88048397614E+01  0.96066321240E+02  0.91605569208E+02 0.  0.
         13    1    3    3    0    0  0.12730961283E+02  0.30921514525E+01  0.38937269494E+02  0.41082367208E+02  0.10566000000E+00 0. -1.
         22    1    1    0    0    0 -0.66600715231E+00 -0.27553384508E+02  0.88048397614E+01  0.28933678760E+02  0.00000000000E+00 0.  1.
</event>
<event>
 5    1  0.9034917E-005  0.9118800E+02  0.7818608E-02  0.1130116E+00
         25   -1    0    0    0    0  0.00000000000E+00  0.00000000000E+00  0.99999998245E-14  0.12500000000E+03  0.12500000000E+03 0.  0.
        -13    1    3    3    0    0 -0.26764076897E+02 -0.25652184181E+02  0.24931662425E+02  0.44676048625E+02  0.10566000000E+00 0.  1.
         23    2    1    0    0    0 -0.23836548342E+02 -0.23868881922E+01 -0.18966813723E+02  0.94444831944E+02  0.89365586139E+02 0.  0.
         13    1    3    3    0    0  0.29275285554E+01  0.23265295989E+02 -0.43898476148E+02  0.49768783319E+02  0.10566000000E+00 0. -1.
         22    1    1    0    0    0  0.23836548342E+02  0.23868881922E+01  0.18966813723E+02  0.30555168056E+02  0.00000000000E+00 0. -1.
</event>
<event>
 5    1  0.9034917E-005  0.9118800E+02  0.7818608E-02  0.1130116E+00
         25   -1    0    0    0    0  0.00000000000E+00  0.00000000000E+00  0.99999998245E-14  0.12500000000E+03  0.12500000000E+03 0.  0.
        -13    1    3    3    0    0  0.15403035249E+02 -0.48218830579E+02 -0.88784332280E+01  0.51392089449E+02  0.10566000000E+00 0. -1.
         23    2    1    0    0    0 -0.19067813915E+02 -0.24604606172E+02 -0.13964408865E+01  0.93840439356E+02  0.88516155809E+02 0.  0.
         13    1    3    3    0    0 -0.34470849164E+02  0.23614224407E+02  0.74819923414E+01  0.42448349908E+02  0.10566000000E+00 0.  1.
         22    1    1    0    0    0  0.19067813915E+02  0.24604606172E+02  0.13964408865E+01  0.31159560644E+02  0.00000000000E+00 0. -1.
</event>
<event>
 5    1  0.9034917E-005  0.9118800E+02  0.7818608E-02  0.1130116E+00
         25   -1    0    0    0    0  0.00000000000E+00  0.00000000000E+00  0.99999998245E-14  0.12500000000E+03  0.12500000000E+03 0.  0.
        -13    1    3    3    0    0 -0.36089834247E+02  0.17261740824E+02 -0.80873233755E+01  0.40814945739E+02  0.10566000000E+00 0.  1.
         23    2    1    0    0    0  0.70092748720E+01  0.11092627403E+02 -0.31947484197E+02  0.90462801743E+02  0.83610408657E+02 0.  0.
         13    1    3    3    0    0  0.43099109119E+02 -0.61691134208E+01 -0.23860160821E+02  0.49647856004E+02  0.10566000000E+00 0. -1.
         22    1    1    0    0    0 -0.70092748720E+01 -0.11092627403E+02  0.31947484197E+02  0.34537198257E+02  0.00000000000E+00 0. -1.
</event>
<event>
 5    1  0.9034917E-005  0.9118800E+02  0.7818608E-02  0.1130116E+00
         25   -1    0    0    0    0  0.00000000000E+00  0.00000000000E+00  0.99999998245E-14  0.12500000000E+03  0.12500000000E+03 0.  0.
        -13    1    3    3    0    0  0.42946192519E+02 -0.11499149049E+02 -0.30349486023E+02  0.53830366399E+02  0.10566000000E+00 0.  1.
         23    2    1    0    0    0  0.32718396052E+01 -0.15409437104E+02 -0.26875262218E+02  0.93848187764E+02  0.88527097214E+02 0.  0.
         13    1    3    3    0    0 -0.39674352913E+02 -0.39102880552E+01  0.34742238055E+01  0.40017821366E+02  0.10566000000E+00 0. -1.
         22    1    1    0    0    0 -0.32718396052E+01  0.15409437104E+02  0.26875262218E+02  0.31151812236E+02  0.00000000000E+00 0.  1.
</event>
<event>
 5    1  0.9034917E-005  0.9118800E+02  0.7818608E-02  0.1130116E+00
         25   -1    0    0    0    0  0.00000000000E+00  0.00000000000E+00  0.99999998245E-14  0.12500000000E+03  0.12500000000E+03 0.  0.
        -13    1    3    3    0    0 -0.15466858994E+02 -0.39524473234E+02  0.14070324410E+02  0.44714571502E+02  0.10566000000E+00 0. -1.
         23    2    1    0    0    0 -0.28665366272E+02  0.70195828101E+01 -0.12485058410E+01  0.95461270624E+02  0.90776195426E+02 0.  0.
         13    1    3    3    0    0 -0.13198507277E+02  0.46544056044E+02 -0.15318830251E+02  0.50746699121E+02  0.10566000000E+00 0.  1.
         22    1    1    0    0    0  0.28665366272E+02 -0.70195828101E+01  0.12485058410E+01  0.29538729376E+02  0.00000000000E+00 0.  1.
</event>
<event>
 5    1  0.9034917E-005  0.9118800E+02  0.7818608E-02  0.1130116E+00
         25   -1    0    0    0    0  0.00000000000E+00  0.00000000000E+00  0.99999998245E-14  0.12500000000E+03  0.12500000000E+03 0.  0.
        -13    1    3    3    0    0  0.40922518954E+02 -0.18906732529E+02 -0.20102438834E+01  0.45123933084E+02  0.10566000000E+00 0.  1.
         23    2    1    0    0    0 -0.90239275995E+01 -0.26273048564E+02  0.68645281940E+01  0.96384862442E+02  0.92039206920E+02 0.  0.
         13    1    3    3    0    0 -0.49946446553E+02 -0.73663160350E+01  0.88747720774E+01  0.51260929358E+02  0.10566000000E+00 0. -1.
         22    1    1    0    0    0  0.90239275995E+01  0.26273048564E+02 -0.68645281940E+01  0.28615137558E+02  0.00000000000E+00 0.  1.
</event>
<event>
 5    1  0.9034917E-005  0.9118800E+02  0.7818608E-02  0.1130116E+00
         25   -1    0    0    0    0  0.00000000000E+00  0.00000000000E+00  0.99999998245E-14  0.12500000000E+03  0.12500000000E+03 0.  0.
        -13    1    3    3    0    0 -0.17333505147E+02 -0.35114730667E+02  0.13593864346E+02  0.41452370528E+02  0.10566000000E+00 0. -1.
         23    2    1    0    0    0 -0.30091714536E+02  0.12809687967E+02  0.30599524777E+01  0.92152432378E+02  0.86099408212E+02 0.  0.
         13    1    3    3    0    0 -0.12758209389E+02  0.47924418634E+02 -0.10533911868E+02  0.50700061849E+02  0.10566000000E+00 0.  1.
         22    1    1    0    0    0  0.30091714536E+02 -0.12809687967E+02 -0.30599524777E+01  0.32847567622E+02  0.00000000000E+00 0.  1.
</event>
<event>
 5    1  0.9034917E-005  0.9118800E+02  0.7818608E-02  0.1130116E+00
         25   -1    0    0    0    0  0.00000000000E+00  0.00000000000E+00  0.99999998245E-14  0.12500000000E+03  0.12500000000E+03 0.  0.
        -13    1    3    3    0    0 -0.40641618956E+02  0.56173999306E+01 -0.28205653955E+01  0.41124969623E+02  0.10566000000E+00 0. -1.
         23    2    1    0    0    0  0.90603736900E+01  0.41363344143E+01  0.24990270615E+02  0.98098080752E+02  0.94337268288E+02 0.  0.
         13    1    3    3    0    0  0.49701992646E+02 -0.14810655163E+01  0.27810836011E+02  0.56973111129E+02  0.10566000000E+00 0.  1.
         22    1    1    0    0    0 -0.90603736900E+01 -0.41363344143E+01 -0.24990270615E+02  0.26901919248E+02  0.00000000000E+00 0.  1.
</event>
<event>
 5    1  0.9034917E-005  0.9118800E+02  0.7818608E-02  0.1130116E+00
         25   -1    0    0    0    0  0.00000000000E+00  0.00000000000E+00  0.99999998245E-14  0.12500000000E+03  0.12500000000E+03 0.  0.
        -13    1    3    3    0    0  0.16443803300E+02  0.29538127371E+02 -0.58997503094E+01  0.34317894068E+02  0.10566000000E+00 0. -1.
         23    2    1    0    0    0  0.45256889158E+01 -0.29706884124E+02 -0.13787664008E+01  0.94918746348E+02  0.90026032829E+02 0.  0.
         13    1    3    3    0    0 -0.11918114384E+02 -0.59245011494E+02  0.45209839086E+01  0.60600852279E+02  0.10566000000E+00 0.  1.
         22    1    1    0    0    0 -0.45256889158E+01  0.29706884124E+02  0.13787664008E+01  0.30081253652E+02  0.00000000000E+00 0.  1.
</event>
<event>
 5    1  0.9034917E-005  0.9118800E+02  0.7818608E-02  0.1130116E+00
         25   -1    0    0    0    0  0.00000000000E+00  0.00000000000E+00  0.99999998245E-14  0.12500000000E+03  0.12500000000E+03 0.  0.
        -13    1    3    3    0    0  0.46388617858E+02  0.10330791624E+01 -0.32576495628E+02  0.56694006304E+02  0.10566000000E+00 0. -1.
         23    2    1    0    0    0  0.28660630936E+02 -0.66004878820E+01  0.11647993304E+01  0.95566091605E+02  0.90920420705E+02 0.  0.
         13    1    3    3    0    0 -0.17727986922E+02 -0.76335670444E+01  0.33741294959E+02  0.38872085301E+02  0.10566000000E+00 0.  1.
         22    1    1    0    0    0 -0.28660630936E+02  0.66004878820E+01 -0.11647993304E+01  0.29433908395E+02  0.00000000000E+00 0. -1.
</event>
<event>
 5    1  0.9034917E-005  0.9118800E+02  0.7818608E-02  0.1130116E+00
         25   -1    0    0    0    0  0.00000000000E+00  0.00000000000E+00  0.99999998245E-14  0.12500000000E+03  0.12500000000E+03 0.  0.
        -13    1    3    3    0    0  0.31839450304E+02 -0.38167894162E+02 -0.20517047243E+02  0.53772661567E+02  0.10566000000E+00 0.  1.
         23    2    1    0    0    0  0.30359032440E+02 -0.47835807558E+01  0.22117425785E+01  0.94186929709E+02  0.89004114665E+02 0.  0.
         13    1    3    3    0    0 -0.14804178639E+01  0.33384313406E+02  0.22728789821E+02  0.40414268142E+02  0.10566000000E+00 0. -1.
         22    1    1    0    0    0 -0.30359032440E+02  0.47835807558E+01 -0.22117425785E+01  0.30813070291E+02  0.00000000000E+00 0.  1.
</event>
<event>
 5    1  0.9034917E-005  0.9118800E+02  0.7818608E-02  0.1130116E+00
         25   -1    0    0    0    0  0.00000000000E+00  0.00000000000E+00  0.99999998245E-14  0.12500000000E+03  0.12500000000E+03 0.  0.
        -13    1    3    3    0    0  0.32932894903E+02  0.24634209986E+02 -0.19513495255E+02  0.45521506230E+02  0.10566000000E+00 0. -1.
         23    2    1    0    0    0  0.16550441809E+02 -0.22045406739E+02 -0.64282065569E+01  0.96693835974E+02  0.92457876860E+02 0.  0.
         13    1    3    3    0    0 -0.16382453095E+02 -0.46679616725E+02  0.13085288698E+02  0.51172329743E+02  0.10566000000E+00 0.  1.
         22    1    1    0    0    0 -0.16550441809E+02  0.22045406739E+02  0.64282065569E+01  0.28306164026E+02  0.00000000000E+00 0.  1.
</event>
<event>
 5    1  0.9034917E-005  0.9118800E+02  0.7818608E-02  0.1130116E+00
         25   -1    0    0    0    0  0.00000000000E+00  0.00000000000E+00  0.99999998245E-14  0.12500000000E+03  0.12500000000E+03 0.  0.
        -13    1    3    3    0    0  0.67372199268E+01  0.16097644533E+02  0.45502385394E+02  0.48733997706E+02  0.10566000000E+00 0. -1.
         23    2    1    0    0    0 -0.87231857094E+01  0.27568394074E+02  0.23461592664E+01  0.95989402212E+02  0.91500549468E+02 0.  0.
         13    1    3    3    0    0 -0.15460405636E+02  0.11470749540E+02 -0.43156226127E+02  0.47255404506E+02  0.10566000000E+00 0.  1.
         22    1    1    0    0    0  0.87231857094E+01 -0.27568394074E+02 -0.23461592664E+01  0.29010597788E+02  0.00000000000E+00 0. -1.
</event>
<event>
 5    1  0.9034917E-005  0.9118800E+02  0.7818608E-02  0.1130116E+00
         25   -1    0    0    0    0  0.00000000000E+00  0.00000000000E+00  0.99999998245E-14  0.12500000000E+03  0.12500000000E+03 0.  0.
        -13    1    3    3    0    0 -0.30474665057E+02 -0.39395855368E+02  0.27670912285E+02  0.56977444496E+02  0.10566000000E+00 0.  1.
         23    2    1    0    0    0 -0.27495955251E+02 -0.11598312355E+02  0.17424628713E+01  0.95107114868E+02  0.90287201292E+02 0.  0.
         13    1    3    3    0    0  0.29787098058E+01  0.27797543014E+02 -0.25928449414E+02  0.38129670373E+02  0.10566000000E+00 0. -1.
         22    1    1    0    0    0  0.27495955251E+02  0.11598312355E+02 -0.17424628713E+01  0.29892885132E+02  0.00000000000E+00 0.  1.
</event>
<event>
 5    1  0.9034917E-005  0.9118800E+02  0.7818608E-02  0.1130116E+00
         25   -1    0    0    0    0  0.00000000000E+00  0.00000000000E+00  0.99999998245E-14  0.12500000000E+03  0.12500000000E+03 0.  0.
        -13    1    3    3    0    0  0.23196379417E+02  0.29148029418E+02 -0.10769589247E+01  0.37267286479E+02  0.10566000000E+00 0.  1.
         23    2    1    0    0    0  0.22966209705E+01 -0.25514933600E+02  0.11162379513E+02  0.97055679989E+02  0.92945790637E+02 0.  0.
         13    1    3    3    0    0 -0.20899758446E+02 -0.54662963018E+02  0.12239338438E+02  0.59788393509E+02  0.10566000000E+00 0. -1.
         22    1    1    0    0    0 -0.22966209705E+01  0.25514933600E+02 -0.11162379513E+02  0.27944320011E+02  0.00000000000E+00 0. -1.
</event>
<event>
 5    1  0.9034917E-005  0.9118800E+02  0.7818608E-02  0.1130116E+00
         25   -1    0    0    0    0  0.00000000000E+00  0.00000000000E+00  0.99999998245E-14  0.12500000000E+03  0.12500000000E+03 0.  0.
        -13    1    3    3    0    0  0.50979275125E+02  0.82355394425E+01 -0.10366433374E+02  0.52670529778E+02  0.10566000000E+00 0. -1.
         23    2    1    0    0    0  0.36822947598E+02 -0.16680025082E+02  0.33425206376E+01  0.84437392210E+02  0.74056384279E+02 0.  0.
         13    1    3    3    0    0 -0.14156327528E+02 -0.24915564524E+02  0.13708954011E+02  0.31766862432E+02  0.10566000000E+00 0.  1.
         22    1    1    0    0    0 -0.36822947598E+02  0.16680025082E+02 -0.33425206376E+01  0.40562607790E+02  0.00000000000E+00 0.  1.
</event>
<event>
 5    1  0.9034917E-005  0.9118800E+02  0.7818608E-02  0.1130116E+00
         25   -1    0    0    0    0  0.00000000000E+00  0.00000000000E+00  0.99999998245E-14  0.12500000000E+03  0.12500000000E+03 0.  0.
        -13    1    3    3    0    0 -0.35726959721E+02  0.81971709815E+01  0.34365125479E+02  0.50245221427E+02  0.10566000000E+00 0. -1.
         23    2    1    0    0    0 -0.12238490518E+02 -0.23277655211E+02  0.19593913245E+02  0.92204400927E+02  0.86174823654E+02 0.  0.
         13    1    3    3    0    0  0.23488469203E+02 -0.31474826193E+02 -0.14771212234E+02  0.41959179500E+02  0.10566000000E+00 0.  1.
         22    1    1    0    0    0  0.12238490518E+02  0.23277655211E+02 -0.19593913245E+02  0.32795599073E+02  0.00000000000E+00 0. -1.
</event>
<event>
 5    1  0.9034917E-005  0.9118800E+02  0.7818608E-02  0.1130116E+00
         25   -1    0    0    0    0  0.00000000000E+00  0.00000000000E+00  0.99999998245E-14  0.12500000000E+03  0.12500000000E+03 0.  0.
        -13    1    3    3    0    0  0.44784213241E+02 -0.42929469729E+02  0.58055237060E+01  0.62307948100E+02  0.10566000000E+00 0.  1.
         23    2    1    0    0    0  0.21871927347E+02 -0.17736922591E+02  0.51820677275E+01  0.96367266027E+02  0.92015305828E+02 0.  0.
         13    1    3    3    0    0 -0.22912285894E+02  0.25192547139E+02 -0.62345597850E+00  0.34059317927E+02  0.10566000000E+00 0. -1.
         22    1    1    0    0    0 -0.21871927347E+02  0.17736922591E+02 -0.51820677275E+01  0.28632733973E+02  0.00000000000E+00 0.  1.
</event>
<event>
 5    1  0.9034917E-005  0.9118800E+02  0.7818608E-02  0.1130116E+00
         25   -1    0    0    0    0  0.00000000000E+00  0.00000000000E+00  0.99999998245E-14  0.12500000000E+03  0.12500000000E+03 0.  0.
        -13    1    3    3    0    0  0.21606942088E+02 -0.15799032545E+02  0.21668197244E+02  0.34438224571E+02  0.10566000000E+00 0.  1.
         23    2    1    0    0    0 -0.56170366952E+01  0.10551521301E+02 -0.26621846792E+02  0.95817669223E+02  0.91265641430E+02 0.  0.
         13    1    3    3    0    0 -0.27223978783E+02  0.26350553845E+02 -0.48290044036E+02  0.61379444652E+02  0.10566000000E+00 0. -1.
         22    1    1    0    0    0  0.56170366952E+01 -0.10551521301E+02  0.26621846792E+02  0.29182330777E+02  0.00000000000E+00 0. -1.
</event>
<event>
 5    1  0.9034917E-005  0.9118800E+02  0.7818608E-02  0.1130116E+00
         25   -1    0    0    0    0  0.00000000000E+00  0.00000000000E+00  0.99999998245E-14  0.12500000000E+03  0.12500000000E+03 0.  0.
        -13    1    3    3    0    0 -0.16228300340E+02 -0.17089619909E+02  0.37248496332E+02  0.44078049907E+02  0.10566000000E+00 0.  1.
         23    2    1    0    0    0 -0.55361074087E+01  0.26397063253E+02  0.12093231869E+02  0.95441588496E+02  0.90749088833E+02 0.  0.
         13    1    3    3    0    0  0.10692192932E+02  0.43486683162E+02 -0.25155264464E+02  0.51363538589E+02  0.10566000000E+00 0. -1.
         22    1    1    0    0    0  0.55361074087E+01 -0.26397063253E+02 -0.12093231869E+02  0.29558411504E+02  0.00000000000E+00 0. -1.
</event>
<event>
 5    1  0.9034917E-005  0.9118800E+02  0.7818608E-02  0.1130116E+00
         25   -1    0    0    0    0  0.00000000000E+00  0.00000000000E+00  0.99999998245E-14  0.12500000000E+03  0.12500000000E+03 0.  0.
        -13    1    3    3    0    0 -0.60462222516E+01 -0.32571980766E+02 -0.42035301182E+01  0.33394184584E+02  0.10566000000E+00 0.  1.
         23    2    1    0    0    0 -0.25803961435E+02  0.20849838622E+02  0.60777914141E+01  0.91273159876E+02  0.84813265289E+02 0.  0.
         13    1    3    3    0    0 -0.19757739183E+02  0.53421819388E+02  0.10281321532E+02  0.57878975292E+02  0.10566000000E+00 0. -1.
         22    1    1    0    0    0  0.25803961435E+02 -0.20849838622E+02 -0.60777914141E+01  0.33726840124E+02  0.00000000000E+00 0. -1.
</event>
<event>
 5    1  0.9034917E-005  0.9118800E+02  0.7818608E-02  0.1130116E+00
         25   -1    0    0    0    0  0.00000000000E+00  0.00000000000E+00  0.99999998245E-14  0.12500000000E+03  0.12500000000E+03 0.  0.
        -13    1    3    3    0    0  0.46334726298E+01 -0.66650366052E+01  0.54359438224E+02  0.54962273148E+02  0.10566000000E+00 0. -1.
         23    2    1    0    0    0  0.13012650971E+02 -0.19765353172E+02  0.15783076764E+02  0.96555250336E+02  0.92270323420E+02 0.  0.
         13    1    3    3    0    0  0.83791783410E+01 -0.13100316566E+02 -0.38576361460E+02  0.41592977188E+02  0.10566000000E+00 0.  1.
         22    1    1    0    0    0 -0.13012650971E+02  0.19765353172E+02 -0.15783076764E+02  0.28444749664E+02  0.00000000000E+00 0. -1.
</event>
<event>
 5    1  0.9034917E-005  0.9118800E+02  0.7818608E-02  0.1130116E+00
         25   -1    0    0    0    0  0.00000000000E+00  0.00000000000E+00  0.99999998245E-14  0.12500000000E+03  0.12500000000E+03 0.  0.
        -13    1    3    3    0    0 -0.22267337818E+02  0.22557708337E+02 -0.25694197158E+02  0.40803032615E+02  0.10566000000E+00 0. -1.
         23    2    1    0    0    0  0.22087389898E+02  0.18551162167E+02  0.60932022542E+01  0.95519065077E+02  0.90855744282E+02 0.  0.
         13    1    3    3    0    0  0.44354727716E+02 -0.40065461694E+01  0.31787399412E+02  0.54716032462E+02  0.10566000000E+00 0.  1.
         22    1    1    0    0    0 -0.22087389898E+02 -0.18551162167E+02 -0.60932022542E+01  0.29480934923E+02  0.00000000000E+00 0.  1.
</event>
<event>
 5    1  0.9034917E-005  0.9118800E+02  0.7818608E-02  0.1130116E+00
         25   -1    0    0    0    0  0.00000000000E+00  0.00000000000E+00  0.99999998245E-14  0.12500000000E+03  0.12500000000E+03 0.  0.
        -13    1    3    3    0    0 -0.39197686122E+02 -0.22236947111E+02 -0.35733746872E+02  0.57513930866E+02  0.10566000000E+00 0.  1.
         23    2    1    0    0    0 -0.45661142986E+01 -0.21821610783E+02 -0.17520254072E+02  0.96645257898E+02  0.92392177561E+02 0.  0.
         13    1    3    3    0    0  0.34631571824E+02  0.41533632806E+00  0.18213492800E+02  0.39131327032E+02  0.10566000000E+00 0. -1.
         22    1    1    0    0    0  0.45661142986E+01  0.21821610783E+02  0.17520254072E+02  0.28354742102E+02  0.00000000000E+00 0.  1.
</event>
<event>
 5    1  0.9034917E-005  0.9118800E+02  0.7818608E-02  0.1130116E+00
         25   -1    0    0    0    0  0.00000000000E+00  0.00000000000E+00  0.99999998245E-14  0.12500000000E+03  0.12500000000E+03 0.  0.
        -13    1    3    3    0    0  0.26961646847E+02  0.25091518540E+02  0.36426441901E+02  0.51801655735E+02  0.10566000000E+00 0. -1.
         23    2    1    0    0    0  0.23271138030E+02  0.15638041070E+02 -0.67555545069E+01  0.96160240806E+02  0.91733637241E+02 0.  0.
         13    1    3    3    0    0 -0.36905088174E+01 -0.94534774698E+01 -0.43181996408E+02  0.44358585070E+02  0.10566000000E+00 0.  1.
         22    1    1    0    0    0 -0.23271138030E+02 -0.15638041070E+02  0.67555545069E+01  0.28839759194E+02  0.00000000000E+00 0. -1.
</event>
<event>
 5    1  0.9034917E-005  0.9118800E+02  0.7818608E-02  0.1130116E+00
         25   -1    0    0    0    0  0.00000000000E+00  0.00000000000E+00  0.99999998245E-14  0.12500000000E+03  0.12500000000E+03 0.  0.
        -13    1    3    3    0    0 -0.13338292582E+02  0.31962851404E+02 -0.42396483772E+02  0.54744925967E+02  0.10566000000E+00 0. -1.
         23    2    1    0    0    0 -0.20811550825E+02 -0.19479016301E+01 -0.20032458318E+02  0.96048068203E+02  0.91580658716E+02 0.  0.
         13    1    3    3    0    0 -0.74732582433E+01 -0.33910753034E+02  0.22364025454E+02  0.41303142237E+02  0.10566000000E+00 0.  1.
         22    1    1    0    0    0  0.20811550825E+02  0.19479016301E+01  0.20032458318E+02  0.28951931797E+02  0.00000000000E+00 0. -1.
</event>
<event>
 5    1  0.9034917E-005  0.9118800E+02  0.7818608E-02  0.1130116E+00
         25   -1    0    0    0    0  0.00000000000E+00  0.00000000000E+00  0.99999998245E-14  0.12500000000E+03  0.12500000000E+03 0.  0.
        -13    1    3    3    0    0 -0.10221706481E+02  0.38213269999E+02 -0.28163512833E+02  0.48558541025E+02  0.10566000000E+00 0.  1.
         23    2    1    0    0    0 -0.63632023734E+01 -0.97835192421E+01 -0.25701047256E+02  0.96773214436E+02  0.92565131713E+02 0.  0.
         13    1    3    3    0    0  0.38585041072E+01 -0.47996789241E+02  0.24624655771E+01  0.48214673411E+02  0.10566000000E+00 0. -1.
         22    1    1    0    0    0  0.63632023734E+01  0.97835192421E+01  0.25701047256E+02  0.28226785564E+02  0.00000000000E+00 0.  1.
</event>
<event>
 5    1  0.9034917E-005  0.9118800E+02  0.7818608E-02  0.1130116E+00
         25   -1    0    0    0    0  0.00000000000E+00  0.00000000000E+00  0.99999998245E-14  0.12500000000E+03  0.12500000000E+03 0.  0.
        -13    1    3    3    0    0  0.45658564724E+01 -0.39507488935E+02  0.17583339589E+02  0.43484177840E+02  0.10566000000E+00 0.  1.
         23    2    1    0    0    0 -0.54551727528E+01  0.14411226659E+02  0.21592950826E+02  0.98472695408E+02  0.94832346022E+02 0.  0.
         13    1    3    3    0    0 -0.10021029225E+02  0.53918715594E+02  0.40096112371E+01  0.54988517568E+02  0.10566000000E+00 0. -1.
         22    1    1    0    0    0  0.54551727528E+01 -0.14411226659E+02 -0.21592950826E+02  0.26527304592E+02  0.00000000000E+00 0. -1.
</event>
<event>
 5    1  0.9034917E-005  0.9118800E+02  0.7818608E-02  0.1130116E+00
         25   -1    0    0    0    0  0.00000000000E+00  0.00000000000E+00  0.99999998245E-14  0.12500000000E+03  0.12500000000E+03 0.  0.
        -13    1    3    3    0    0  0.20835070738E+02 -0.41825553360E+02 -0.16044707557E+02  0.49405676709E+02  0.10566000000E+00 0.  1.
         23    2    1    0    0    0 -0.88670129555E+01 -0.27229228147E+02  0.13104601655E+02  0.93507375963E+02  0.88044556848E+02 0.  0.
         13    1    3    3    0    0 -0.29702083693E+02  0.14596325213E+02  0.29149309212E+02  0.44101699253E+02  0.10566000000E+00 0. -1.
         22    1    1    0    0    0  0.88670129555E+01  0.27229228147E+02 -0.13104601655E+02  0.31492624037E+02  0.00000000000E+00 0.  1.
</event>
<event>
 5    1  0.9034917E-005  0.9118800E+02  0.7818608E-02  0.1130116E+00
         25   -1    0    0    0    0  0.00000000000E+00  0.00000000000E+00  0.99999998245E-14  0.12500000000E+03  0.12500000000E+03 0.  0.
        -13    1    3    3    0    0  0.72823229158E+01  0.19881316095E+00  0.42629958943E+02  0.43248078769E+02  0.10566000000E+00 0.  1.
         23    2    1    0    0    0 -0.18130935166E+02 -0.16186731764E+02 -0.54924028742E+01  0.10008198273E+03  0.96930365124E+02 0.  0.
         13    1    3    3    0    0 -0.25413258082E+02 -0.16385544925E+02 -0.48122361817E+02  0.56833903963E+02  0.10566000000E+00 0. -1.
         22    1    1    0    0    0  0.18130935166E+02  0.16186731764E+02  0.54924028742E+01  0.24918017267E+02  0.00000000000E+00 0. -1.
</event>
<event>
 5    1  0.9034917E-005  0.9118800E+02  0.7818608E-02  0.1130116E+00
         25   -1    0    0    0    0  0.00000000000E+00  0.00000000000E+00  0.99999998245E-14  0.12500000000E+03  0.12500000000E+03 0.  0.
        -13    1    3    3    0    0 -0.40423267273E+02  0.95480724771E+01  0.49803638448E+01  0.41833257261E+02  0.10566000000E+00 0.  1.
         23    2    1    0    0    0  0.17289983739E+01 -0.56261130891E+01 -0.27313308667E+02  0.97059716998E+02  0.92951219732E+02 0.  0.
         13    1    3    3    0    0  0.42152265647E+02 -0.15174185566E+02 -0.32293672512E+02  0.55226459737E+02  0.10566000000E+00 0. -1.
         22    1    1    0    0    0 -0.17289983739E+01  0.56261130891E+01  0.27313308667E+02  0.27940283002E+02  0.00000000000E+00 0.  1.
</event>
<event>
 5    1  0.9034917E-005  0.9118800E+02  0.7818608E-02  0.1130116E+00
         25   -1    0    0    0    0  0.00000000000E+00  0.00000000000E+00  0.99999998245E-14  0.12500000000E+03  0.12500000000E+03 0.  0.
        -13    1    3    3    0    0 -0.20982068112E+02 -0.80850665571E+01 -0.28858490667E+02  0.36584684379E+02  0.10566000000E+00 0.  1.
         23    2    1    0    0    0  0.19368709814E+02  0.21127147653E+02  0.37062456204E+01  0.96099488855E+02  0.91650816766E+02 0.  0.
         13    1    3    3    0    0  0.40350777926E+02  0.29212214211E+02  0.32564736288E+02  0.59514804476E+02  0.10566000000E+00 0. -1.
         22    1    1    0    0    0 -0.19368709814E+02 -0.21127147653E+02 -0.37062456204E+01  0.28900511145E+02  0.00000000000E+00 0. -1.
</event>
<event>
 5    1  0.9034917E-005  0.9118800E+02  0.7818608E-02  0.1130116E+00
         25   -1    0    0    0    0  0.00000000000E+00  0.00000000000E+00  0.99999998245E-14  0.12500000000E+03  0.12500000000E+03 0.  0.
        -13    1    3    3    0    0 -0.46321548888E+02  0.31723357574E+02 -0.15443897768E+02  0.58228708121E+02  0.10566000000E+00 0.  1.
         23    2    1    0    0    0 -0.29976515838E+02  0.31561887432E+01  0.61759543591E+00  0.94851460180E+02  0.89932558314E+02 0.  0.
         13    1    3    3    0    0  0.16345033050E+02 -0.28567168830E+02  0.16061493204E+02  0.36622752059E+02  0.10566000000E+00 0. -1.
         22    1    1    0    0    0  0.29976515838E+02 -0.31561887432E+01 -0.61759543591E+00  0.30148539820E+02  0.00000000000E+00 0.  1.
</event>
<event>
 5    1  0.9034917E-005  0.9118800E+02  0.7818608E-02  0.1130116E+00
         25   -1    0    0    0    0  0.00000000000E+00  0.00000000000E+00  0.99999998245E-14  0.12500000000E+03  0.12500000000E+03 0.  0.
        -13    1    3    3    0    0 -0.26693728926E+01  0.36170942369E+02 -0.43875879427E+02  0.56925974590E+02  0.10566000000E+00 0. -1.
         23    2    1    0    0    0 -0.19857679523E+02  0.21413039204E+02 -0.27566406075E+02  0.84840911018E+02  0.74734381341E+02 0.  0.
         13    1    3    3    0    0 -0.17188306631E+02 -0.14757903165E+02  0.16309473352E+02  0.27914936427E+02  0.10566000000E+00 0.  1.
         22    1    1    0    0    0  0.19857679523E+02 -0.21413039204E+02  0.27566406075E+02  0.40159088982E+02  0.00000000000E+00 0. -1.
</event>
<event>
 5    1  0.9034917E-005  0.9118800E+02  0.7818608E-02  0.1130116E+00
         25   -1    0    0    0    0  0.00000000000E+00  0.00000000000E+00  0.99999998245E-14  0.12500000000E+03  0.12500000000E+03 0.  0.
        -13    1    3    3    0    0 -0.22230210159E+02 -0.90765735748E+01 -0.26669246165E+02  0.35886296641E+02  0.10566000000E+00 0.  1.
         23    2    1    0    0    0  0.22983762249E+02 -0.19581680035E+02  0.79310299814E+01  0.93781467736E+02  0.88432838550E+02 0.  0.
         13    1    3    3    0    0  0.45213972408E+02 -0.10505106460E+02  0.34600276146E+02  0.57895171095E+02  0.10566000000E+00 0. -1.
         22    1    1    0    0    0 -0.22983762249E+02  0.19581680035E+02 -0.79310299814E+01  0.31218532264E+02  0.00000000000E+00 0. -1.
</event>
<event>
 5    1  0.9034917E-005  0.9118800E+02  0.7818608E-02  0.1130116E+00
         25   -1    0    0    0    0  0.00000000000E+00  0.00000000000E+00  0.99999998245E-14  0.12500000000E+03  0.12500000000E+03 0.  0.
        -13    1    3    3    0    0  0.89202600265E+01  0.25548143609E+02  0.32699211097E+02  0.42444413663E+02  0.10566000000E+00 0.  1.
         23    2    1    0    0    0  0.29643990804E+02 -0.49010743459E+01 -0.42952387050E+01  0.94648133565E+02  0.89649503017E+02 0.  0.
         13    1    3    3    0    0  0.20723730778E+02 -0.30449217955E+02 -0.36994449802E+02  0.52203719902E+02  0.10566000000E+00 0. -1.
         22    1    1    0    0    0 -0.29643990804E+02  0.49010743459E+01  0.42952387050E+01  0.30351866435E+02  0.00000000000E+00 0. -1.
</event>
<event>
 5    1  0.9034917E-005  0.9118800E+02  0.7818608E-02  0.1130116E+00
         25   -1    0    0    0    0  0.00000000000E+00  0.00000000000E+00  0.99999998245E-14  0.12500000000E+03  0.12500000000E+03 0.  0.
        -13    1    3    3    0    0 -0.20706407480E+01 -0.31765164986E+02 -0.18999033070E+02  0.37071386288E+02  0.10566000000E+00 0. -1.
         23    2    1    0    0    0 -0.82815579305E+01  0.72810124439E+01  0.25871975416E+02  0.96876051915E+02  0.92703899480E+02 0.  0.
         13    1    3    3    0    0 -0.62109171825E+01  0.39046177430E+02  0.44871008486E+02  0.59804665627E+02  0.10566000000E+00 0.  1.
         22    1    1    0    0    0  0.82815579305E+01 -0.72810124439E+01 -0.25871975416E+02  0.28123948085E+02  0.00000000000E+00 0.  1.
</event>
<event>
 5    1  0.9034917E-005  0.9118800E+02  0.7818608E-02  0.1130116E+00
         25   -1    0    0    0    0  0.00000000000E+00  0.00000000000E+00  0.99999998245E-14  0.12500000000E+03  0.12500000000E+03 0.  0.
        -13    1    3    3    0    0  0.61738243747E+01  0.17276972507E+02  0.31590337882E+02  0.36531773814E+02  0.10566000000E+00 0.  1.
         23    2    1    0    0    0  0.15661354670E+02 -0.23812233003E+02 -0.90489281766E+01  0.95097097602E+02  0.90273331613E+02 0.  0.
         13    1    3    3    0    0  0.94875302955E+01 -0.41089205510E+02 -0.40639266059E+02  0.58565323788E+02  0.10566000000E+00 0. -1.
         22    1    1    0    0    0 -0.15661354670E+02  0.23812233003E+02  0.90489281766E+01  0.29902902398E+02  0.00000000000E+00 0. -1.
</event>
<event>
 5    1  0.9034917E-005  0.9118800E+02  0.7818608E-02  0.1130116E+00
         25   -1    0    0    0    0  0.00000000000E+00  0.00000000000E+00  0.99999998245E-14  0.12500000000E+03  0.12500000000E+03 0.  0.
        -13    1    3    3    0    0  0.28042647173E+01 -0.57466243171E+02  0.23423125605E+02  0.62119940292E+02  0.10566000000E+00 0. -1.
         23    2    1    0    0    0 -0.24365477825E+01 -0.27794492789E+02  0.79690576634E+01  0.95983169117E+02  0.91492033966E+02 0.  0.
         13    1    3    3    0    0 -0.52408124998E+01  0.29671750382E+02 -0.15454067942E+02  0.33863228824E+02  0.10566000000E+00 0.  1.
         22    1    1    0    0    0  0.24365477825E+01  0.27794492789E+02 -0.79690576634E+01  0.29016830883E+02  0.00000000000E+00 0. -1.
</event>
<event>
 5    1  0.9034917E-005  0.9118800E+02  0.7818608E-02  0.1130116E+00
         25   -1    0    0    0    0  0.00000000000E+00  0.00000000000E+00  0.99999998245E-14  0.12500000000E+03  0.12500000000E+03 0.  0.
        -13    1    3    3    0    0  0.13971584313E+02 -0.24424181263E+02  0.40180393366E+02  0.49053246311E+02  0.10566000000E+00 0. -1.
         23    2    1    0    0    0 -0.20839960856E+02 -0.17927847601E+02  0.94791924590E+01  0.95921369053E+02  0.91407561302E+02 0.  0.
         13    1    3    3    0    0 -0.34811545169E+02  0.64963336614E+01 -0.30701200907E+02  0.46868122741E+02  0.10566000000E+00 0.  1.
         22    1    1    0    0    0  0.20839960856E+02  0.17927847601E+02 -0.94791924590E+01  0.29078630947E+02  0.00000000000E+00 0.  1.
</event>
<event>
 5    1  0.9034917E-005  0.9118800E+02  0.7818608E-02  0.1130116E+00
         25   -1    0    0    0    0  0.00000000000E+00  0.00000000000E+00  0.99999998245E-14  0.12500000000E+03  0.12500000000E+03 0.  0.
        -13    1    3    3    0    0  0.45214556611E+02 -0.24047708020E+02 -0.22255665177E+02  0.55838823296E+02  0.10566000000E+00 0.  1.
         23    2    1    0    0    0  0.17267553561E+02 -0.22805007334E+02  0.61873569800E+01  0.95733634461E+02  0.91150472381E+02 0.  0.
         13    1    3    3    0    0 -0.27947003050E+02  0.12427006867E+01  0.28443022157E+02  0.39894811165E+02  0.10566000000E+00 0. -1.
         22    1    1    0    0    0 -0.17267553561E+02  0.22805007334E+02 -0.61873569800E+01  0.29266365539E+02  0.00000000000E+00 0.  1.
</event>
<event>
 5    1  0.9034917E-005  0.9118800E+02  0.7818608E-02  0.1130116E+00
         25   -1    0    0    0    0  0.00000000000E+00  0.00000000000E+00  0.99999998245E-14  0.12500000000E+03  0.12500000000E+03 0.  0.
        -13    1    3    3    0    0  0.29516602796E+02  0.82255151368E+01 -0.29436925342E+02  0.42490383353E+02  0.10566000000E+00 0.  1.
         23    2    1    0    0    0 -0.92268235712E+01 -0.23861950961E+02 -0.32299096511E+01  0.99213195366E+02  0.95803438569E+02 0.  0.
         13    1    3    3    0    0 -0.38743426367E+02 -0.32087466097E+02  0.26207015691E+02  0.56722812013E+02  0.10566000000E+00 0. -1.
         22    1    1    0    0    0  0.92268235712E+01  0.23861950961E+02  0.32299096511E+01  0.25786804634E+02  0.00000000000E+00 0. -1.
</event>
<event>
 5    1  0.9034917E-005  0.9118800E+02  0.7818608E-02  0.1130116E+00
         25   -1    0    0    0    0  0.00000000000E+00  0.00000000000E+00  0.99999998245E-14  0.12500000000E+03  0.12500000000E+03 0.  0.
        -13    1    3    3    0    0  0.12437525457E+02  0.11620682616E+02  0.29037041716E+02  0.33658479758E+02  0.10566000000E+00 0.  1.
         23    2    1    0    0    0 -0.28031271423E+01 -0.22931513050E+02 -0.19228720337E+02  0.94942463535E+02  0.90058957821E+02 0.  0.
         13    1    3    3    0    0 -0.15240652599E+02 -0.34552195666E+02 -0.48265762053E+02  0.61283983777E+02  0.10566000000E+00 0. -1.
         22    1    1    0    0    0  0.28031271423E+01  0.22931513050E+02  0.19228720337E+02  0.30057536465E+02  0.00000000000E+00 0. -1.
</event>
<event>
 5    1  0.9034917E-005  0.9118800E+02  0.7818608E-02  0.1130116E+00
         25   -1    0    0    0    0  0.00000000000E+00  0.00000000000E+00  0.99999998245E-14  0.12500000000E+03  0.12500000000E+03 0.  0.
        -13    1    3    3    0    0  0.87980085667E+01  0.22476663551E+02  0.31266532537E+02  0.39499526327E+02  0.10566000000E+00 0.  1.
         23    2    1    0    0    0 -0.21938939718E+02  0.15450102019E+02 -0.14054031143E+02  0.94709101702E+02  0.89734471779E+02 0.  0.
         13    1    3    3    0    0 -0.30736948284E+02 -0.70265615319E+01 -0.45320563680E+02  0.55209575375E+02  0.10566000000E+00 0. -1.
         22    1    1    0    0    0  0.21938939718E+02 -0.15450102019E+02  0.14054031143E+02  0.30290898298E+02  0.00000000000E+00 0. -1.
</event>
<event>
 5    1  0.9034917E-005  0.9118800E+02  0.7818608E-02  0.1130116E+00
         25   -1    0    0    0    0  0.00000000000E+00  0.00000000000E+00  0.99999998245E-14  0.12500000000E+03  0.12500000000E+03 0.  0.
        -13    1    3    3    0    0 -0.98140009320E+01  0.47097064243E+02  0.19646750671E+02  0.51965893147E+02  0.10566000000E+00 0. -1.
         23    2    1    0    0    0  0.68708727757E+01  0.11092959328E+02  0.29404471350E+02  0.92830362533E+02  0.87078072058E+02 0.  0.
         13    1    3    3    0    0  0.16684873708E+02 -0.36004104915E+02  0.97577206794E+01  0.40864469386E+02  0.10566000000E+00 0.  1.
         22    1    1    0    0    0 -0.68708727757E+01 -0.11092959328E+02 -0.29404471350E+02  0.32169637467E+02  0.00000000000E+00 0. -1.
</event>
<event>
 5    1  0.9034917E-005  0.9118800E+02  0.7818608E-02  0.1130116E+00
         25   -1    0    0    0    0  0.00000000000E+00  0.00000000000E+00  0.99999998245E-14  0.12500000000E+03  0.12500000000E+03 0.  0.
        -13    1    3    3    0    0  0.22431019287E+02  0.33864982324E+02 -0.18400103154E+02  0.44593302347E+02  0.10566000000E+00 0. -1.
         23    2    1    0    0    0 -0.19412113754E+02  0.27094956645E+01 -0.20281184411E+02  0.96795426465E+02  0.92595121989E+02 0.  0.
         13    1    3    3    0    0 -0.41843133041E+02 -0.31155486660E+02 -0.18810812579E+01  0.52202124118E+02  0.10566000000E+00 0.  1.
         22    1    1    0    0    0  0.19412113754E+02 -0.27094956645E+01  0.20281184411E+02  0.28204573535E+02  0.00000000000E+00 0.  1.
</event>
<event>
 5    1  0.9034917E-005  0.9118800E+02  0.7818608E-02  0.1130116E+00
         25   -1    0    0    0    0  0.00000000000E+00  0.00000000000E+00  0.99999998245E-14  0.12500000000E+03  0.12500000000E+03 0.  0.
        -13    1    3    3    0    0  0.36622903997E+02 -0.23687476199E+02  0.31861975254E+02  0.54014167188E+02  0.10566000000E+00 0.  1.
         23    2    1    0    0    0  0.89484746457E+01  0.57258195217E+01  0.28552102072E+02  0.94535549563E+02  0.89492387334E+02 0.  0.
         13    1    3    3    0    0 -0.27674429352E+02  0.29413295721E+02 -0.33098731817E+01  0.40521382375E+02  0.10566000000E+00 0. -1.
         22    1    1    0    0    0 -0.89484746457E+01 -0.57258195217E+01 -0.28552102072E+02  0.30464450437E+02  0.00000000000E+00 0.  1.
</event>
<event>
 5    1  0.9034917E-005  0.9118800E+02  0.7818608E-02  0.1130116E+00
         25   -1    0    0    0    0  0.00000000000E+00  0.00000000000E+00  0.99999998245E-14  0.12500000000E+03  0.12500000000E+03 0.  0.
        -13    1    3    3    0    0  0.17856986212E+02 -0.52683596267E+01  0.28320351418E+02  0.33892197306E+02  0.10566000000E+00 0.  1.
         23    2    1    0    0    0 -0.79289335783E+01 -0.94527292701E+01 -0.27134588338E+02  0.95192149313E+02  0.90404852349E+02 0.  0.
         13    1    3    3    0    0 -0.25785919790E+02 -0.41843696435E+01 -0.55454939756E+02  0.61299952007E+02  0.10566000000E+00 0. -1.
         22    1    1    0    0    0  0.79289335783E+01  0.94527292701E+01  0.27134588338E+02  0.29807850687E+02  0.00000000000E+00 0. -1.
</event>
<event>
 5    1  0.9034917E-005  0.9118800E+02  0.7818608E-02  0.1130116E+00
         25   -1    0    0    0    0  0.00000000000E+00  0.00000000000E+00  0.99999998245E-14  0.12500000000E+03  0.12500000000E+03 0.  0.
        -13    1    3    3    0    0  0.30391098270E+02  0.46586831829E+00  0.27217507518E+02  0.40799997143E+02  0.10566000000E+00 0.  1.
         23    2    1    0    0    0 -0.47684295472E+00 -0.25239609713E+02 -0.12096959715E+02  0.97007113189E+02  0.92880451641E+02 0.  0.
         13    1    3    3    0    0 -0.30867941224E+02 -0.25705478032E+02 -0.39314467234E+02  0.56207116046E+02  0.10566000000E+00 0. -1.
         22    1    1    0    0    0  0.47684295472E+00  0.25239609713E+02  0.12096959715E+02  0.27992886811E+02  0.00000000000E+00 0. -1.
</event>
<event>
 5    1  0.9034917E-005  0.9118800E+02  0.7818608E-02  0.1130116E+00
         25   -1    0    0    0    0  0.00000000000E+00  0.00000000000E+00  0.99999998245E-14  0.12500000000E+03  0.12500000000E+03 0.  0.
        -13    1    3    3    0    0 -0.34477364620E+02 -0.15693397829E+01 -0.34621948413E+02  0.48886010007E+02  0.10566000000E+00 0.  1.
         23    2    1    0    0    0 -0.23748421668E+02  0.21576646178E+02  0.12317434134E+01  0.92889933294E+02  0.87163543546E+02 0.  0.
         13    1    3    3    0    0  0.10728942951E+02  0.23145985961E+02  0.35853691827E+02  0.44003923287E+02  0.10566000000E+00 0. -1.
         22    1    1    0    0    0  0.23748421668E+02 -0.21576646178E+02 -0.12317434134E+01  0.32110066706E+02  0.00000000000E+00 0.  1.
</event>
<event>
 5    1  0.9034917E-005  0.9118800E+02  0.7818608E-02  0.1130116E+00
         25   -1    0    0    0    0  0.00000000000E+00  0.00000000000E+00  0.99999998245E-14  0.12500000000E+03  0.12500000000E+03 0.  0.
        -13    1    3    3    0    0 -0.36259169449E+02 -0.12815927739E+01  0.26431524220E+02  0.44888823618E+02  0.10566000000E+00 0.  1.
         23    2    1    0    0    0  0.53591192686E+01  0.25212840865E+02  0.13552577793E+02  0.95878189125E+02  0.91348493591E+02 0.  0.
         13    1    3    3    0    0  0.41618288718E+02  0.26494433639E+02 -0.12878946428E+02  0.50989365507E+02  0.10566000000E+00 0. -1.
         22    1    1    0    0    0 -0.53591192686E+01 -0.25212840865E+02 -0.13552577793E+02  0.29121810875E+02  0.00000000000E+00 0.  1.
</event>
<event>
 5    1  0.9034917E-005  0.9118800E+02  0.7818608E-02  0.1130116E+00
         25   -1    0    0    0    0  0.00000000000E+00  0.00000000000E+00  0.99999998245E-14  0.12500000000E+03  0.12500000000E+03 0.  0.
        -13    1    3    3    0    0 -0.53498557245E+02 -0.81017084504E+01 -0.13849759605E+02  0.55853024200E+02  0.10566000000E+00 0.  1.
         23    2    1    0    0    0 -0.29263370388E+02 -0.48252690166E+01  0.13388800717E+02  0.92459439892E+02  0.86543977104E+02 0.  0.
         13    1    3    3    0    0  0.24235186857E+02  0.32764394339E+01  0.27238560321E+02  0.36606415692E+02  0.10566000000E+00 0. -1.
         22    1    1    0    0    0  0.29263370388E+02  0.48252690166E+01 -0.13388800717E+02  0.32540560108E+02  0.00000000000E+00 0.  1.
</event>
<event>
 5    1  0.9034917E-005  0.9118800E+02  0.7818608E-02  0.1130116E+00
         25   -1    0    0    0    0  0.00000000000E+00  0.00000000000E+00  0.99999998245E-14  0.12500000000E+03  0.12500000000E+03 0.  0.
        -13    1    3    3    0    0  0.78834505103E+01  0.59002587684E+02  0.12630572643E+02  0.60852252832E+02  0.10566000000E+00 0.  1.
         23    2    1    0    0    0  0.11908129833E+02  0.24989133062E+02  0.11216866827E+02  0.95132317988E+02  0.90322087537E+02 0.  0.
         13    1    3    3    0    0  0.40246793229E+01 -0.34013454622E+02 -0.14137058152E+01  0.34280065156E+02  0.10566000000E+00 0. -1.
         22    1    1    0    0    0 -0.11908129833E+02 -0.24989133062E+02 -0.11216866827E+02  0.29867682012E+02  0.00000000000E+00 0.  1.
</event>
<event>
 5    1  0.9034917E-005  0.9118800E+02  0.7818608E-02  0.1130116E+00
         25   -1    0    0    0    0  0.00000000000E+00  0.00000000000E+00  0.99999998245E-14  0.12500000000E+03  0.12500000000E+03 0.  0.
        -13    1    3    3    0    0  0.47495936562E+01  0.36877302966E+02 -0.34616493506E+02  0.50801642696E+02  0.10566000000E+00 0. -1.
         23    2    1    0    0    0 -0.66438044298E+01  0.22573898873E+02  0.10311439182E+02  0.99308623516E+02  0.95927868104E+02 0.  0.
         13    1    3    3    0    0 -0.11393398086E+02 -0.14303404093E+02  0.44927932688E+02  0.48506980820E+02  0.10566000000E+00 0.  1.
         22    1    1    0    0    0  0.66438044298E+01 -0.22573898873E+02 -0.10311439182E+02  0.25691376484E+02  0.00000000000E+00 0. -1.
</event>
<event>
 5    1  0.9034917E-005  0.9118800E+02  0.7818608E-02  0.1130116E+00
         25   -1    0    0    0    0  0.00000000000E+00  0.00000000000E+00  0.99999998245E-14  0.12500000000E+03  0.12500000000E+03 0.  0.
        -13    1    3    3    0    0  0.34177184315E+02 -0.13548933284E+02  0.50417894100E+02  0.62398948151E+02  0.10566000000E+00 0.  1.
         23    2    1    0    0    0  0.17117178747E+02 -0.92828937439E+01  0.24881894506E+02  0.93404452865E+02  0.87898311795E+02 0.  0.
         13    1    3    3    0    0 -0.17060005568E+02  0.42660395401E+01 -0.25535999593E+02  0.31005504715E+02  0.10566000000E+00 0. -1.
         22    1    1    0    0    0 -0.17117178747E+02  0.92828937439E+01 -0.24881894506E+02  0.31595547135E+02  0.00000000000E+00 0.  1.
</event>
<event>
 5    1  0.9034917E-005  0.9118800E+02  0.7818608E-02  0.1130116E+00
         25   -1    0    0    0    0  0.00000000000E+00  0.00000000000E+00  0.99999998245E-14  0.12500000000E+03  0.12500000000E+03 0.  0.
        -13    1    3    3    0    0 -0.59906800595E+01 -0.39923973245E+02 -0.14025909742E+02  0.42738146841E+02  0.10566000000E+00 0.  1.
         23    2    1    0    0    0 -0.12938625466E+02  0.12029808760E+02 -0.23083716110E+02  0.95931421136E+02  0.91421306510E+02 0.  0.
         13    1    3    3    0    0 -0.69479454063E+01  0.51953782005E+02 -0.90578063684E+01  0.53193274295E+02  0.10566000000E+00 0. -1.
         22    1    1    0    0    0  0.12938625466E+02 -0.12029808760E+02  0.23083716110E+02  0.29068578864E+02  0.00000000000E+00 0. -1.
</event>
<event>
 5    1  0.9034917E-005  0.9118800E+02  0.7818608E-02  0.1130116E+00
         25   -1    0    0    0    0  0.00000000000E+00  0.00000000000E+00  0.99999998245E-14  0.12500000000E+03  0.12500000000E+03 0.  0.
        -13    1    3    3    0    0 -0.24834057861E+02 -0.32193881376E+02 -0.41436445668E+02  0.58053136190E+02  0.10566000000E+00 0.  1.
         23    2    1    0    0    0 -0.16429590814E+02 -0.65245686937E+00 -0.26180459313E+02  0.94084411632E+02  0.88860018613E+02 0.  0.
         13    1    3    3    0    0  0.84044670464E+01  0.31541424507E+02  0.15255986354E+02  0.36031275442E+02  0.10566000000E+00 0. -1.
         22    1    1    0    0    0  0.16429590814E+02  0.65245686937E+00  0.26180459313E+02  0.30915588368E+02  0.00000000000E+00 0. -1.
</event>
<event>
 5    1  0.9034917E-005  0.9118800E+02  0.7818608E-02  0.1130116E+00
         25   -1    0    0    0    0  0.00000000000E+00  0.00000000000E+00  0.99999998245E-14  0.12500000000E+03  0.12500000000E+03 0.  0.
        -13    1    3    3    0    0  0.26464487496E+02 -0.22333600809E+02  0.14037484587E+02  0.37366040211E+02  0.10566000000E+00 0.  1.
         23    2    1    0    0    0 -0.24935826373E+02  0.54229947677E+01  0.14229020680E+02  0.95782379654E+02  0.91217295035E+02 0.  0.
         13    1    3    3    0    0 -0.51400313869E+02  0.27756595576E+02  0.19153609288E+00  0.58416339443E+02  0.10566000000E+00 0. -1.
         22    1    1    0    0    0  0.24935826373E+02 -0.54229947677E+01 -0.14229020680E+02  0.29217620346E+02  0.00000000000E+00 0. -1.
</event>
<event>
 5    1  0.9034917E-005  0.9118800E+02  0.7818608E-02  0.1130116E+00
         25   -1    0    0    0    0  0.00000000000E+00  0.00000000000E+00  0.99999998245E-14  0.12500000000E+03  0.12500000000E+03 0.  0.
        -13    1    3    3    0    0 -0.29311000021E+02 -0.24457043673E+01 -0.28346265610E+02  0.40848967309E+02  0.10566000000E+00 0.  1.
         23    2    1    0    0    0 -0.59453781077E+01  0.27007508454E+02  0.10971607851E+02  0.95248878802E+02  0.90483256464E+02 0.  0.
         13    1    3    3    0    0  0.23365621913E+02  0.29453212821E+02  0.39317873462E+02  0.54399911493E+02  0.10566000000E+00 0. -1.
         22    1    1    0    0    0  0.59453781077E+01 -0.27007508454E+02 -0.10971607851E+02  0.29751121198E+02  0.00000000000E+00 0. -1.
</event>
<event>
 5    1  0.9034917E-005  0.9118800E+02  0.7818608E-02  0.1130116E+00
         25   -1    0    0    0    0  0.00000000000E+00  0.00000000000E+00  0.99999998245E-14  0.12500000000E+03  0.12500000000E+03 0.  0.
        -13    1    3    3    0    0 -0.15742754665E+02  0.26190680142E+02 -0.19047411075E+02  0.36008347414E+02  0.10566000000E+00 0. -1.
         23    2    1    0    0    0 -0.73992453068E+01 -0.18347439256E+02  0.20759941755E+02  0.96323310162E+02  0.91955573733E+02 0.  0.
         13    1    3    3    0    0  0.83435093583E+01 -0.44538119398E+02  0.39807352831E+02  0.60314962749E+02  0.10566000000E+00 0.  1.
         22    1    1    0    0    0  0.73992453068E+01  0.18347439256E+02 -0.20759941755E+02  0.28676689838E+02  0.00000000000E+00 0.  1.
</event>
<event>
 5    1  0.9034917E-005  0.9118800E+02  0.7818608E-02  0.1130116E+00
         25   -1    0    0    0    0  0.00000000000E+00  0.00000000000E+00  0.99999998245E-14  0.12500000000E+03  0.12500000000E+03 0.  0.
        -13    1    3    3    0    0  0.88313423529E+01  0.29664374107E+02  0.65795087362E+01  0.31642831702E+02  0.10566000000E+00 0.  1.
         23    2    1    0    0    0 -0.15125430064E+02  0.16494643337E+02 -0.36217208937E+02  0.82426086431E+02  0.70579895208E+02 0.  0.
         13    1    3    3    0    0 -0.23956772417E+02 -0.13169730769E+02 -0.42796717673E+02  0.50783254728E+02  0.10566000000E+00 0. -1.
         22    1    1    0    0    0  0.15125430064E+02 -0.16494643337E+02  0.36217208937E+02  0.42573913569E+02  0.00000000000E+00 0. -1.
</event>
<event>
 5    1  0.9034917E-005  0.9118800E+02  0.7818608E-02  0.1130116E+00
         25   -1    0    0    0    0  0.00000000000E+00  0.00000000000E+00  0.99999998245E-14  0.12500000000E+03  0.12500000000E+03 0.  0.
        -13    1    3    3    0    0  0.13538123360E+02 -0.29560036450E+02  0.14889442870E+02  0.35760078468E+02  0.10566000000E+00 0. -1.
         23    2    1    0    0    0 -0.23958969976E+02  0.15762749266E+02  0.50679242119E+00  0.96316322668E+02  0.91946074777E+02 0.  0.
         13    1    3    3    0    0 -0.37497093335E+02  0.45322785716E+02 -0.14382650449E+02  0.60556244200E+02  0.10566000000E+00 0.  1.
         22    1    1    0    0    0  0.23958969976E+02 -0.15762749266E+02 -0.50679242119E+00  0.28683677332E+02  0.00000000000E+00 0.  1.
</event>
<event>
 5    1  0.9034917E-005  0.9118800E+02  0.7818608E-02  0.1130116E+00
         25   -1    0    0    0    0  0.00000000000E+00  0.00000000000E+00  0.99999998245E-14  0.12500000000E+03  0.12500000000E+03 0.  0.
        -13    1    3    3    0    0  0.22013372375E+02  0.24012282675E+02 -0.14509476917E+02  0.35661104400E+02  0.10566000000E+00 0. -1.
         23    2    1    0    0    0 -0.23700954920E+02  0.58156832697E+01  0.18036555541E+02  0.94654081464E+02  0.89657795902E+02 0.  0.
         13    1    3    3    0    0 -0.45714327295E+02 -0.18196599406E+02  0.32546032459E+02  0.58992977063E+02  0.10566000000E+00 0.  1.
         22    1    1    0    0    0  0.23700954920E+02 -0.58156832697E+01 -0.18036555541E+02  0.30345918536E+02  0.00000000000E+00 0.  1.
</event>
<event>
 5    1  0.9034917E-005  0.9118800E+02  0.7818608E-02  0.1130116E+00
         25   -1    0    0    0    0  0.00000000000E+00  0.00000000000E+00  0.99999998245E-14  0.12500000000E+03  0.12500000000E+03 0.  0.
        -13    1    3    3    0    0 -0.10234457853E+02 -0.78193168107E+01  0.20534346991E+02  0.24239562977E+02  0.10566000000E+00 0.  1.
         23    2    1    0    0    0  0.13625430351E+02  0.36330274561E+02 -0.12399487700E+02  0.84265634936E+02  0.73765904956E+02 0.  0.
         13    1    3    3    0    0  0.23859888203E+02  0.44149591372E+02 -0.32933834691E+02  0.60026071959E+02  0.10566000000E+00 0. -1.
         22    1    1    0    0    0 -0.13625430351E+02 -0.36330274561E+02  0.12399487700E+02  0.40734365064E+02  0.00000000000E+00 0. -1.
</event>
<event>
 5    1  0.9034917E-005  0.9118800E+02  0.7818608E-02  0.1130116E+00
         25   -1    0    0    0    0  0.00000000000E+00  0.00000000000E+00  0.99999998245E-14  0.12500000000E+03  0.12500000000E+03 0.  0.
        -13    1    3    3    0    0  0.24920500571E+02  0.14708710377E+02 -0.23777069626E+02  0.37453140237E+02  0.10566000000E+00 0.  1.
         23    2    1    0    0    0 -0.94910096121E+01 -0.21644988840E+02  0.11523698388E+02  0.98705886022E+02  0.95139221699E+02 0.  0.
         13    1    3    3    0    0 -0.34411510183E+02 -0.36353699217E+02  0.35300768014E+02  0.61252745785E+02  0.10566000000E+00 0. -1.
         22    1    1    0    0    0  0.94910096121E+01  0.21644988840E+02 -0.11523698388E+02  0.26294113978E+02  0.00000000000E+00 0. -1.
</event>
<event>
 5    1  0.9034917E-005  0.9118800E+02  0.7818608E-02  0.1130116E+00
         25   -1    0    0    0    0  0.00000000000E+00  0.00000000000E+00  0.99999998245E-14  0.12500000000E+03  0.12500000000E+03 0.  0.
        -13    1    3    3    0    0 -0.30153657349E+02  0.39730212572E+01 -0.22155975156E+02  0.37628796800E+02  0.10566000000E+00 0.  1.
         23    2    1    0    0    0  0.55837175753E+00 -0.23002292693E+02  0.18645920968E+02  0.95384334940E+02  0.90670192098E+02 0.  0.
         13    1    3    3    0    0  0.30712029106E+02 -0.26975313950E+02  0.40801896125E+02  0.57755538141E+02  0.10566000000E+00 0. -1.
         22    1    1    0    0    0 -0.55837175753E+00  0.23002292693E+02 -0.18645920968E+02  0.29615665060E+02  0.00000000000E+00 0. -1.
</event>
<event>
 5    1  0.9034917E-005  0.9118800E+02  0.7818608E-02  0.1130116E+00
         25   -1    0    0    0    0  0.00000000000E+00  0.00000000000E+00  0.99999998245E-14  0.12500000000E+03  0.12500000000E+03 0.  0.
        -13    1    3    3    0    0 -0.27219195577E+02  0.19332999193E+01 -0.21644742757E+02  0.34829991523E+02  0.10566000000E+00 0.  1.
         23    2    1    0    0    0  0.32382123714E+01 -0.23883168022E+02  0.20844321056E+02  0.93135012092E+02  0.87514301820E+02 0.  0.
         13    1    3    3    0    0  0.30457407948E+02 -0.25816467941E+02  0.42489063812E+02  0.58305020569E+02  0.10566000000E+00 0. -1.
         22    1    1    0    0    0 -0.32382123714E+01  0.23883168022E+02 -0.20844321056E+02  0.31864987908E+02  0.00000000000E+00 0. -1.
</event>
<event>
 5    1  0.9034917E-005  0.9118800E+02  0.7818608E-02  0.1130116E+00
         25   -1    0    0    0    0  0.00000000000E+00  0.00000000000E+00  0.99999998245E-14  0.12500000000E+03  0.12500000000E+03 0.  0.
        -13    1    3    3    0    0 -0.18531485007E+02  0.49315086433E+02  0.32883407828E+02  0.62102522983E+02  0.10566000000E+00 0. -1.
         23    2    1    0    0    0 -0.97252526408E+01  0.23435360783E+02  0.21604535694E+02  0.91675044838E+02  0.85403519889E+02 0.  0.
         13    1    3    3    0    0  0.88062323665E+01 -0.25879725650E+02 -0.11278872134E+02  0.29572521855E+02  0.10566000000E+00 0.  1.
         22    1    1    0    0    0  0.97252526408E+01 -0.23435360783E+02 -0.21604535694E+02  0.33324955162E+02  0.00000000000E+00 0. -1.
</event>
<event>
 5    1  0.9034917E-005  0.9118800E+02  0.7818608E-02  0.1130116E+00
         25   -1    0    0    0    0  0.00000000000E+00  0.00000000000E+00  0.99999998245E-14  0.12500000000E+03  0.12500000000E+03 0.  0.
        -13    1    3    3    0    0 -0.55995221617E+01  0.30626667184E+02  0.50982086840E+02  0.59737188868E+02  0.10566000000E+00 0.  1.
         23    2    1    0    0    0 -0.13284944723E+02  0.17687537843E+02  0.16367001354E+02  0.97482414994E+02  0.93517932764E+02 0.  0.
         13    1    3    3    0    0 -0.76854225609E+01 -0.12939129341E+02 -0.34615085486E+02  0.37745226125E+02  0.10566000000E+00 0. -1.
         22    1    1    0    0    0  0.13284944723E+02 -0.17687537843E+02 -0.16367001354E+02  0.27517585006E+02  0.00000000000E+00 0.  1.
</event>
<event>
 5    1  0.9034917E-005  0.9118800E+02  0.7818608E-02  0.1130116E+00
         25   -1    0    0    0    0  0.00000000000E+00  0.00000000000E+00  0.99999998245E-14  0.12500000000E+03  0.12500000000E+03 0.  0.
        -13    1    3    3    0    0 -0.25953405398E+02 -0.17290761014E+02 -0.11360822806E+02  0.33190798831E+02  0.10566000000E+00 0.  1.
         23    2    1    0    0    0  0.18978453153E+02  0.53530218201E+01  0.23440166350E+02  0.94368677384E+02  0.89259001484E+02 0.  0.
         13    1    3    3    0    0  0.44931858551E+02  0.22643782834E+02  0.34800989156E+02  0.61177878552E+02  0.10566000000E+00 0. -1.
         22    1    1    0    0    0 -0.18978453153E+02 -0.53530218201E+01 -0.23440166350E+02  0.30631322616E+02  0.00000000000E+00 0. -1.
</event>
<event>
 5    1  0.9034917E-005  0.9118800E+02  0.7818608E-02  0.1130116E+00
         25   -1    0    0    0    0  0.00000000000E+00  0.00000000000E+00  0.99999998245E-14  0.12500000000E+03  0.12500000000E+03 0.  0.
        -13    1    3    3    0    0  0.30145707314E+02  0.77450649812E+01 -0.50924152551E+02  0.59682746067E+02  0.10566000000E+00 0.  1.
         23    2    1    0    0    0  0.18654889451E+02 -0.77549979263E+01 -0.17522002193E+02  0.98257422448E+02  0.94548165567E+02 0.  0.
         13    1    3    3    0    0 -0.11490817863E+02 -0.15500062908E+02  0.33402150358E+02  0.38574676381E+02  0.10566000000E+00 0. -1.
         22    1    1    0    0    0 -0.18654889451E+02  0.77549979263E+01  0.17522002193E+02  0.26742577552E+02  0.00000000000E+00 0.  1.
</event>
<event>
 5    1  0.9034917E-005  0.9118800E+02  0.7818608E-02  0.1130116E+00
         25   -1    0    0    0    0  0.00000000000E+00  0.00000000000E+00  0.99999998245E-14  0.12500000000E+03  0.12500000000E+03 0.  0.
        -13    1    3    3    0    0  0.34043530634E+02 -0.52289221263E+01 -0.40118035799E+02  0.52875056170E+02  0.10566000000E+00 0. -1.
         23    2    1    0    0    0  0.32834718846E+02 -0.10220157378E+02 -0.28520173503E+01  0.90493415389E+02  0.83656164431E+02 0.  0.
         13    1    3    3    0    0 -0.12088117879E+01 -0.49912352513E+01  0.37266018449E+02  0.37618359219E+02  0.10566000000E+00 0.  1.
         22    1    1    0    0    0 -0.32834718846E+02  0.10220157378E+02  0.28520173503E+01  0.34506584611E+02  0.00000000000E+00 0. -1.
</event>
<event>
 5    1  0.9034917E-005  0.9118800E+02  0.7818608E-02  0.1130116E+00
         25   -1    0    0    0    0  0.00000000000E+00  0.00000000000E+00  0.99999998245E-14  0.12500000000E+03  0.12500000000E+03 0.  0.
        -13    1    3    3    0    0  0.34790296553E+02 -0.16089333497E+02 -0.45982449089E+02  0.59863412657E+02  0.10566000000E+00 0.  1.
         23    2    1    0    0    0  0.16626817130E+02 -0.18551008353E+02 -0.14830263700E+02  0.96008144589E+02  0.91526150073E+02 0.  0.
         13    1    3    3    0    0 -0.18163479423E+02 -0.24616748565E+01  0.31152185390E+02  0.36144731932E+02  0.10566000000E+00 0. -1.
         22    1    1    0    0    0 -0.16626817130E+02  0.18551008353E+02  0.14830263700E+02  0.28991855411E+02  0.00000000000E+00 0.  1.
</event>
<event>
 5    1  0.9034917E-005  0.9118800E+02  0.7818608E-02  0.1130116E+00
         25   -1    0    0    0    0  0.00000000000E+00  0.00000000000E+00  0.99999998245E-14  0.12500000000E+03  0.12500000000E+03 0.  0.
        -13    1    3    3    0    0 -0.27443980814E+02  0.10670543165E+02  0.21961886768E+02  0.36733747546E+02  0.10566000000E+00 0.  1.
         23    2    1    0    0    0 -0.14247294674E+01 -0.40499939873E+01 -0.28928174215E+02  0.95754973606E+02  0.91179731309E+02 0.  0.
         13    1    3    3    0    0  0.26019251347E+02 -0.14720537152E+02 -0.50890060983E+02  0.59021226060E+02  0.10566000000E+00 0. -1.
         22    1    1    0    0    0  0.14247294674E+01  0.40499939873E+01  0.28928174215E+02  0.29245026394E+02  0.00000000000E+00 0. -1.
</event>
<event>
 5    1  0.9034917E-005  0.9118800E+02  0.7818608E-02  0.1130116E+00
         25   -1    0    0    0    0  0.00000000000E+00  0.00000000000E+00  0.99999998245E-14  0.12500000000E+03  0.12500000000E+03 0.  0.
        -13    1    3    3    0    0 -0.18455318534E+02 -0.13457386723E+02  0.34625299984E+02  0.41480388169E+02  0.10566000000E+00 0. -1.
         23    2    1    0    0    0 -0.24009224007E+02  0.62998506044E+01 -0.15562853342E+02  0.95702673173E+02  0.91108003454E+02 0.  0.
         13    1    3    3    0    0 -0.55539054728E+01  0.19757237328E+02 -0.50188153326E+02  0.54222285005E+02  0.10566000000E+00 0.  1.
         22    1    1    0    0    0  0.24009224007E+02 -0.62998506044E+01  0.15562853342E+02  0.29297326827E+02  0.00000000000E+00 0.  1.
</event>
<event>
 5    1  0.9034917E-005  0.9118800E+02  0.7818608E-02  0.1130116E+00
         25   -1    0    0    0    0  0.00000000000E+00  0.00000000000E+00  0.99999998245E-14  0.12500000000E+03  0.12500000000E+03 0.  0.
        -13    1    3    3    0    0  0.44784740988E+02  0.13591035144E+01  0.79657734760E+01  0.45508075094E+02  0.10566000000E+00 0. -1.
         23    2    1    0    0    0  0.85620540775E+01 -0.16070527835E+02 -0.22578286026E+02  0.95993972440E+02  0.91506792699E+02 0.  0.
         13    1    3    3    0    0 -0.36222686910E+02 -0.17429631349E+02 -0.30544059502E+02  0.50485897346E+02  0.10566000000E+00 0.  1.
         22    1    1    0    0    0 -0.85620540775E+01  0.16070527835E+02  0.22578286026E+02  0.29006027560E+02  0.00000000000E+00 0. -1.
</event>
<event>
 5    1  0.9034917E-005  0.9118800E+02  0.7818608E-02  0.1130116E+00
         25   -1    0    0    0    0  0.00000000000E+00  0.00000000000E+00  0.99999998245E-14  0.12500000000E+03  0.12500000000E+03 0.  0.
        -13    1    3    3    0    0  0.83542949931E+01 -0.19236666157E+02  0.28539919372E+02  0.35417251891E+02  0.10566000000E+00 0. -1.
         23    2    1    0    0    0  0.48368941662E+01  0.31588052053E+02  0.17064494060E+01  0.92998241498E+02  0.87318728658E+02 0.  0.
         13    1    3    3    0    0 -0.35174008269E+01  0.50824718210E+02 -0.26833469966E+02  0.57580989607E+02  0.10566000000E+00 0.  1.
         22    1    1    0    0    0 -0.48368941662E+01 -0.31588052053E+02 -0.17064494060E+01  0.32001758502E+02  0.00000000000E+00 0.  1.
</event>
<event>
 5    1  0.9034917E-005  0.9118800E+02  0.7818608E-02  0.1130116E+00
         25   -1    0    0    0    0  0.00000000000E+00  0.00000000000E+00  0.99999998245E-14  0.12500000000E+03  0.12500000000E+03 0.  0.
        -13    1    3    3    0    0  0.26811433011E+02 -0.18974661968E+02  0.13448859769E+02  0.35493291338E+02  0.10566000000E+00 0. -1.
         23    2    1    0    0    0 -0.17577406495E+02 -0.46978084391E+01 -0.23707560489E+02  0.95115504898E+02  0.90298816296E+02 0.  0.
         13    1    3    3    0    0 -0.44388839506E+02  0.14276853529E+02 -0.37156420257E+02  0.59622213559E+02  0.10566000000E+00 0.  1.
         22    1    1    0    0    0  0.17577406495E+02  0.46978084391E+01  0.23707560489E+02  0.29884495102E+02  0.00000000000E+00 0.  1.
</event>
<event>
 5    1  0.9034917E-005  0.9118800E+02  0.7818608E-02  0.1130116E+00
         25   -1    0    0    0    0  0.00000000000E+00  0.00000000000E+00  0.99999998245E-14  0.12500000000E+03  0.12500000000E+03 0.  0.
        -13    1    3    3    0    0  0.41551134285E+02  0.28770317860E+01 -0.32422533808E+01  0.41776757214E+02  0.10566000000E+00 0.  1.
         23    2    1    0    0    0  0.22106973562E+01 -0.13270313395E+02  0.27590944840E+02  0.94303931236E+02  0.89168283649E+02 0.  0.
         13    1    3    3    0    0 -0.39340436929E+02 -0.16147345181E+02  0.30833198221E+02  0.52527174022E+02  0.10566000000E+00 0. -1.
         22    1    1    0    0    0 -0.22106973562E+01  0.13270313395E+02 -0.27590944840E+02  0.30696068764E+02  0.00000000000E+00 0. -1.
</event>
<event>
 5    1  0.9034917E-005  0.9118800E+02  0.7818608E-02  0.1130116E+00
         25   -1    0    0    0    0  0.00000000000E+00  0.00000000000E+00  0.99999998245E-14  0.12500000000E+03  0.12500000000E+03 0.  0.
        -13    1    3    3    0    0 -0.49171992028E+02  0.19668644341E+02  0.18867758605E+02  0.56220493141E+02  0.10566000000E+00 0. -1.
         23    2    1    0    0    0 -0.27729508216E+02 -0.71446964060E+01 -0.18243704028E+01  0.96306784077E+02  0.91933106220E+02 0.  0.
         13    1    3    3    0    0  0.21442483812E+02 -0.26813340747E+02 -0.20692129008E+02  0.40086290935E+02  0.10566000000E+00 0.  1.
         22    1    1    0    0    0  0.27729508216E+02  0.71446964060E+01  0.18243704028E+01  0.28693215923E+02  0.00000000000E+00 0. -1.
</event>
<event>
 5    1  0.9034917E-005  0.9118800E+02  0.7818608E-02  0.1130116E+00
         25   -1    0    0    0    0  0.00000000000E+00  0.00000000000E+00  0.99999998245E-14  0.12500000000E+03  0.12500000000E+03 0.  0.
        -13    1    3    3    0    0 -0.61205154032E+01 -0.17830916277E+02 -0.48558981756E+02  0.52090192525E+02  0.10566000000E+00 0. -1.
         23    2    1    0    0    0 -0.12948266849E+02  0.15277062271E+02 -0.23217589486E+02  0.94338905636E+02  0.89217298822E+02 0.  0.
         13    1    3    3    0    0 -0.68277514456E+01  0.33107978548E+02  0.25341392270E+02  0.42248713111E+02  0.10566000000E+00 0.  1.
         22    1    1    0    0    0  0.12948266849E+02 -0.15277062271E+02  0.23217589486E+02  0.30661094364E+02  0.00000000000E+00 0. -1.
</event>
<event>
 5    1  0.9034917E-005  0.9118800E+02  0.7818608E-02  0.1130116E+00
         25   -1    0    0    0    0  0.00000000000E+00  0.00000000000E+00  0.99999998245E-14  0.12500000000E+03  0.12500000000E+03 0.  0.
        -13    1    3    3    0    0 -0.23144642057E+02  0.28491357599E+02 -0.40846647822E+01  0.36934097582E+02  0.10566000000E+00 0.  1.
         23    2    1    0    0    0 -0.35014822133E+01 -0.25697760236E+02  0.11479045845E+02  0.96637987512E+02  0.92382340726E+02 0.  0.
         13    1    3    3    0    0  0.19643159843E+02 -0.54189117835E+02  0.15563710627E+02  0.59703889931E+02  0.10566000000E+00 0. -1.
         22    1    1    0    0    0  0.35014822133E+01  0.25697760236E+02 -0.11479045845E+02  0.28362012488E+02  0.00000000000E+00 0. -1.
</event>
<event>
 5    1  0.9034917E-005  0.9118800E+02  0.7818608E-02  0.1130116E+00
         25   -1    0    0    0    0  0.00000000000E+00  0.00000000000E+00  0.99999998245E-14  0.12500000000E+03  0.12500000000E+03 0.  0.
        -13    1    3    3    0    0  0.27076612626E+02  0.28051244685E+02 -0.10423679188E+02  0.40356901907E+02  0.10566000000E+00 0.  1.
         23    2    1    0    0    0 -0.18792303049E+02  0.92207538111E+01  0.17897743391E+02  0.97459081837E+02  0.93486739484E+02 0.  0.
         13    1    3    3    0    0 -0.45868915676E+02 -0.18830490874E+02  0.28321422579E+02  0.57102179930E+02  0.10566000000E+00 0. -1.
         22    1    1    0    0    0  0.18792303049E+02 -0.92207538111E+01 -0.17897743391E+02  0.27540918163E+02  0.00000000000E+00 0. -1.
</event>
<event>
 5    1  0.9034917E-005  0.9118800E+02  0.7818608E-02  0.1130116E+00
         25   -1    0    0    0    0  0.00000000000E+00  0.00000000000E+00  0.99999998245E-14  0.12500000000E+03  0.12500000000E+03 0.  0.
        -13    1    3    3    0    0 -0.32820633791E+02 -0.40504704708E+02  0.20771249887E+02  0.56118455893E+02  0.10566000000E+00 0. -1.
         23    2    1    0    0    0 -0.12156431362E+02  0.61437293882E+01 -0.43910041304E+00  0.11137219594E+03  0.11053528389E+03 0.  0.
         13    1    3    3    0    0  0.20664202429E+02  0.46648434096E+02 -0.21210350300E+02  0.55253740050E+02  0.10566000000E+00 0.  1.
         22    1    1    0    0    0  0.12156431362E+02 -0.61437293882E+01  0.43910041304E+00  0.13627804058E+02  0.00000000000E+00 0. -1.
</event>
<event>
 5    1  0.9034917E-005  0.9118800E+02  0.7818608E-02  0.1130116E+00
         25   -1    0    0    0    0  0.00000000000E+00  0.00000000000E+00  0.99999998245E-14  0.12500000000E+03  0.12500000000E+03 0.  0.
        -13    1    3    3    0    0 -0.18302355948E+02 -0.55084512952E+02 -0.21798129165E+02  0.62003624084E+02  0.10566000000E+00 0. -1.
         23    2    1    0    0    0 -0.78020159102E+01 -0.30384841802E+02 -0.17167091511E+02  0.89239419824E+02  0.81760962299E+02 0.  0.
         13    1    3    3    0    0  0.10500340038E+02  0.24699671150E+02  0.46310376545E+01  0.27235795741E+02  0.10566000000E+00 0.  1.
         22    1    1    0    0    0  0.78020159102E+01  0.30384841802E+02  0.17167091511E+02  0.35760580176E+02  0.00000000000E+00 0. -1.
</event>
<event>
 5    1  0.9034917E-005  0.9118800E+02  0.7818608E-02  0.1130116E+00
         25   -1    0    0    0    0  0.00000000000E+00  0.00000000000E+00  0.99999998245E-14  0.12500000000E+03  0.12500000000E+03 0.  0.
        -13    1    3    3    0    0  0.17290472727E+02  0.83252420912E+01 -0.39722841027E+02  0.44115590967E+02  0.10566000000E+00 0.  1.
         23    2    1    0    0    0  0.19089162940E+02 -0.22931768631E+02  0.58810654963E+00  0.95156943460E+02  0.90356161191E+02 0.  0.
         13    1    3    3    0    0  0.17986902127E+01 -0.31257010722E+02  0.40310947577E+02  0.51041352494E+02  0.10566000000E+00 0. -1.
         22    1    1    0    0    0 -0.19089162940E+02  0.22931768631E+02 -0.58810654963E+00  0.29843056540E+02  0.00000000000E+00 0. -1.
</event>
<event>
 5    1  0.9034917E-005  0.9118800E+02  0.7818608E-02  0.1130116E+00
         25   -1    0    0    0    0  0.00000000000E+00  0.00000000000E+00  0.99999998245E-14  0.12500000000E+03  0.12500000000E+03 0.  0.
        -13    1    3    3    0    0 -0.89419284609E+01 -0.27629048226E+01 -0.56148427989E+02  0.56923183830E+02  0.10566000000E+00 0.  1.
         23    2    1    0    0    0 -0.96978376359E+01 -0.18181309709E+02 -0.19760403442E+02  0.96450365646E+02  0.92128124976E+02 0.  0.
         13    1    3    3    0    0 -0.75590917502E+00 -0.15418404886E+02  0.36388024547E+02  0.39527181816E+02  0.10566000000E+00 0. -1.
         22    1    1    0    0    0  0.96978376359E+01  0.18181309709E+02  0.19760403442E+02  0.28549634354E+02  0.00000000000E+00 0.  1.
</event>
<event>
 5    1  0.9034917E-005  0.9118800E+02  0.7818608E-02  0.1130116E+00
         25   -1    0    0    0    0  0.00000000000E+00  0.00000000000E+00  0.99999998245E-14  0.12500000000E+03  0.12500000000E+03 0.  0.
        -13    1    3    3    0    0 -0.11796417576E+02 -0.30408876538E+02 -0.10266886595E+02  0.34194668653E+02  0.10566000000E+00 0.  1.
         23    2    1    0    0    0  0.76927367857E+01  0.26590922798E+02 -0.12832395236E+02  0.94488924273E+02  0.89427238961E+02 0.  0.
         13    1    3    3    0    0  0.19489154361E+02  0.56999799336E+02 -0.25655086410E+01  0.60294255620E+02  0.10566000000E+00 0. -1.
         22    1    1    0    0    0 -0.76927367857E+01 -0.26590922798E+02  0.12832395236E+02  0.30511075727E+02  0.00000000000E+00 0. -1.
</event>
<event>
 5    1  0.9034917E-005  0.9118800E+02  0.7818608E-02  0.1130116E+00
         25   -1    0    0    0    0  0.00000000000E+00  0.00000000000E+00  0.99999998245E-14  0.12500000000E+03  0.12500000000E+03 0.  0.
        -13    1    3    3    0    0 -0.41842306676E+02  0.16866836289E+02  0.40134543838E+02  0.60382626371E+02  0.10566000000E+00 0.  1.
         23    2    1    0    0    0 -0.17942910742E+02  0.18381253731E+02  0.14333676870E+02  0.95584479824E+02  0.90945697842E+02 0.  0.
         13    1    3    3    0    0  0.23899395934E+02  0.15144174419E+01 -0.25800866968E+02  0.35201853453E+02  0.10566000000E+00 0. -1.
         22    1    1    0    0    0  0.17942910742E+02 -0.18381253731E+02 -0.14333676870E+02  0.29415520176E+02  0.00000000000E+00 0.  1.
</event>
<event>
 5    1  0.9034917E-005  0.9118800E+02  0.7818608E-02  0.1130116E+00
         25   -1    0    0    0    0  0.00000000000E+00  0.00000000000E+00  0.99999998245E-14  0.12500000000E+03  0.12500000000E+03 0.  0.
        -13    1    3    3    0    0  0.24252169863E+00 -0.22400884353E+02  0.63725259098E+01  0.23291171870E+02  0.10566000000E+00 0. -1.
         23    2    1    0    0    0 -0.11341655506E+02  0.21184560661E+02 -0.33692668735E+02  0.83616250937E+02  0.72657158865E+02 0.  0.
         13    1    3    3    0    0 -0.11584177205E+02  0.43585445013E+02 -0.40065194645E+02  0.60325079067E+02  0.10566000000E+00 0.  1.
         22    1    1    0    0    0  0.11341655506E+02 -0.21184560661E+02  0.33692668735E+02  0.41383749063E+02  0.00000000000E+00 0.  1.
</event>
<event>
 5    1  0.9034917E-005  0.9118800E+02  0.7818608E-02  0.1130116E+00
         25   -1    0    0    0    0  0.00000000000E+00  0.00000000000E+00  0.99999998245E-14  0.12500000000E+03  0.12500000000E+03 0.  0.
        -13    1    3    3    0    0  0.30480389041E+02 -0.46158670738E+02 -0.21439052655E+02  0.59323866556E+02  0.10566000000E+00 0.  1.
         23    2    1    0    0    0  0.24088248459E+01 -0.23921822661E+02 -0.17312101137E+02  0.95372902904E+02  0.90654430261E+02 0.  0.
         13    1    3    3    0    0 -0.28071564195E+02  0.22236848077E+02  0.41269515184E+01  0.36049036348E+02  0.10566000000E+00 0. -1.
         22    1    1    0    0    0 -0.24088248459E+01  0.23921822661E+02  0.17312101137E+02  0.29627097096E+02  0.00000000000E+00 0.  1.
</event>
<event>
 5    1  0.9034917E-005  0.9118800E+02  0.7818608E-02  0.1130116E+00
         25   -1    0    0    0    0  0.00000000000E+00  0.00000000000E+00  0.99999998245E-14  0.12500000000E+03  0.12500000000E+03 0.  0.
        -13    1    3    3    0    0 -0.14352043761E+02  0.13230523132E+01 -0.49854319630E+02  0.51896011189E+02  0.10566000000E+00 0.  1.
         23    2    1    0    0    0  0.15912350758E+02 -0.12450504144E+02 -0.19577123045E+02  0.96866715321E+02  0.92691309357E+02 0.  0.
         13    1    3    3    0    0  0.30264394519E+02 -0.13773556457E+02  0.30277196585E+02  0.44970704132E+02  0.10566000000E+00 0. -1.
         22    1    1    0    0    0 -0.15912350758E+02  0.12450504144E+02  0.19577123045E+02  0.28133284679E+02  0.00000000000E+00 0.  1.
</event>
<event>
 5    1  0.9034917E-005  0.9118800E+02  0.7818608E-02  0.1130116E+00
         25   -1    0    0    0    0  0.00000000000E+00  0.00000000000E+00  0.99999998245E-14  0.12500000000E+03  0.12500000000E+03 0.  0.
        -13    1    3    3    0    0  0.25231341983E+02 -0.15060919126E+02 -0.25307045186E+02  0.38780273379E+02  0.10566000000E+00 0. -1.
         23    2    1    0    0    0  0.15186697248E+02  0.34051262819E+01  0.26263838740E+02  0.94470999302E+02  0.89402180205E+02 0.  0.
         13    1    3    3    0    0 -0.10044644736E+02  0.18466045408E+02  0.51570883926E+02  0.55690725923E+02  0.10566000000E+00 0.  1.
         22    1    1    0    0    0 -0.15186697248E+02 -0.34051262819E+01 -0.26263838740E+02  0.30529000698E+02  0.00000000000E+00 0.  1.
</event>
<event>
 5    1  0.9034917E-005  0.9118800E+02  0.7818608E-02  0.1130116E+00
         25   -1    0    0    0    0  0.00000000000E+00  0.00000000000E+00  0.99999998245E-14  0.12500000000E+03  0.12500000000E+03 0.  0.
        -13    1    3    3    0    0 -0.21803190363E+02  0.43418502279E+02 -0.17197824651E+02  0.51539516751E+02  0.10566000000E+00 0. -1.
         23    2    1    0    0    0 -0.17421716110E+02 -0.66917801832E+00 -0.22909282077E+02  0.96211127206E+02  0.91802950941E+02 0.  0.
         13    1    3    3    0    0  0.43814742524E+01 -0.44087680298E+02 -0.57114574265E+01  0.44671610455E+02  0.10566000000E+00 0.  1.
         22    1    1    0    0    0  0.17421716110E+02  0.66917801832E+00  0.22909282077E+02  0.28788872794E+02  0.00000000000E+00 0. -1.
</event>
<event>
 5    1  0.9034917E-005  0.9118800E+02  0.7818608E-02  0.1130116E+00
         25   -1    0    0    0    0  0.00000000000E+00  0.00000000000E+00  0.99999998245E-14  0.12500000000E+03  0.12500000000E+03 0.  0.
        -13    1    3    3    0    0  0.17725495475E+02  0.25240832195E+02  0.22099761814E+02  0.37943424148E+02  0.10566000000E+00 0.  1.
         23    2    1    0    0    0 -0.21727079401E+02 -0.15768949865E+02  0.11334774579E+02  0.95858914332E+02  0.91322114424E+02 0.  0.
         13    1    3    3    0    0 -0.39452574877E+02 -0.41009782061E+02 -0.10764987235E+02  0.57915490184E+02  0.10566000000E+00 0. -1.
         22    1    1    0    0    0  0.21727079401E+02  0.15768949865E+02 -0.11334774579E+02  0.29141085668E+02  0.00000000000E+00 0. -1.
</event>
<event>
 5    1  0.9034917E-005  0.9118800E+02  0.7818608E-02  0.1130116E+00
         25   -1    0    0    0    0  0.00000000000E+00  0.00000000000E+00  0.99999998245E-14  0.12500000000E+03  0.12500000000E+03 0.  0.
        -13    1    3    3    0    0  0.25574424667E+02  0.10725875146E+02  0.42215515734E+02  0.50509964635E+02  0.10566000000E+00 0. -1.
         23    2    1    0    0    0  0.69619382284E+01  0.30846916093E+02  0.12338501993E+02  0.91055347287E+02  0.84491637585E+02 0.  0.
         13    1    3    3    0    0 -0.18612486438E+02  0.20121040947E+02 -0.29877013742E+02  0.40545382652E+02  0.10566000000E+00 0.  1.
         22    1    1    0    0    0 -0.69619382284E+01 -0.30846916093E+02 -0.12338501993E+02  0.33944652713E+02  0.00000000000E+00 0. -1.
</event>
<event>
 5    1  0.9034917E-005  0.9118800E+02  0.7818608E-02  0.1130116E+00
         25   -1    0    0    0    0  0.00000000000E+00  0.00000000000E+00  0.99999998245E-14  0.12500000000E+03  0.12500000000E+03 0.  0.
        -13    1    3    3    0    0 -0.15840003026E+02  0.80563866013E+01  0.15713591653E+02  0.23722124433E+02  0.10566000000E+00 0.  1.
         23    2    1    0    0    0 -0.40188081216E+00 -0.40814535574E+02 -0.12610910381E+02  0.82279713449E+02  0.70320184601E+02 0.  0.
         13    1    3    3    0    0  0.15438122214E+02 -0.48870922176E+02 -0.28324502035E+02  0.58557589016E+02  0.10566000000E+00 0. -1.
         22    1    1    0    0    0  0.40188081216E+00  0.40814535574E+02  0.12610910381E+02  0.42720286551E+02  0.00000000000E+00 0. -1.
</event>
<event>
 5    1  0.9034917E-005  0.9118800E+02  0.7818608E-02  0.1130116E+00
         25   -1    0    0    0    0  0.00000000000E+00  0.00000000000E+00  0.99999998245E-14  0.12500000000E+03  0.12500000000E+03 0.  0.
        -13    1    3    3    0    0 -0.15705227460E+02 -0.19322740642E+02  0.31151007131E+02  0.39880056229E+02  0.10566000000E+00 0.  1.
         23    2    1    0    0    0  0.13902636431E+02  0.23396597567E+02  0.97384513424E+01  0.96094611022E+02  0.91644163783E+02 0.  0.
         13    1    3    3    0    0  0.29607863891E+02  0.42719338208E+02 -0.21412555789E+02  0.56214554793E+02  0.10566000000E+00 0. -1.
         22    1    1    0    0    0 -0.13902636431E+02 -0.23396597567E+02 -0.97384513424E+01  0.28905388978E+02  0.00000000000E+00 0. -1.
</event>
<event>
 5    1  0.9034917E-005  0.9118800E+02  0.7818608E-02  0.1130116E+00
         25   -1    0    0    0    0  0.00000000000E+00  0.00000000000E+00  0.99999998245E-14  0.12500000000E+03  0.12500000000E+03 0.  0.
        -13    1    3    3    0    0 -0.13838619383E+02  0.25614820021E+02 -0.27143544147E+02  0.39804642242E+02  0.10566000000E+00 0. -1.
         23    2    1    0    0    0 -0.91036287903E+01 -0.26141901130E+02 -0.16230524622E+02  0.92910983478E+02  0.87193726090E+02 0.  0.
         13    1    3    3    0    0  0.47349905931E+01 -0.51756721151E+02  0.10913019525E+02  0.53106341235E+02  0.10566000000E+00 0.  1.
         22    1    1    0    0    0  0.91036287903E+01  0.26141901130E+02  0.16230524622E+02  0.32089016522E+02  0.00000000000E+00 0.  1.
</event>
<event>
 5    1  0.9034917E-005  0.9118800E+02  0.7818608E-02  0.1130116E+00
         25   -1    0    0    0    0  0.00000000000E+00  0.00000000000E+00  0.99999998245E-14  0.12500000000E+03  0.12500000000E+03 0.  0.
        -13    1    3    3    0    0  0.31007704992E+02 -0.94259541981E+01  0.43961566379E+01  0.32705714158E+02  0.10566000000E+00 0. -1.
         23    2    1    0    0    0 -0.28030742955E+02  0.71306803352E+00 -0.11518438633E+02  0.94686546796E+02  0.89703047323E+02 0.  0.
         13    1    3    3    0    0 -0.59038447947E+02  0.10139022232E+02 -0.15914595271E+02  0.61980832637E+02  0.10566000000E+00 0.  1.
         22    1    1    0    0    0  0.28030742955E+02 -0.71306803352E+00  0.11518438633E+02  0.30313453204E+02  0.00000000000E+00 0.  1.
</event>
<event>
 5    1  0.9034917E-005  0.9118800E+02  0.7818608E-02  0.1130116E+00
         25   -1    0    0    0    0  0.00000000000E+00  0.00000000000E+00  0.99999998245E-14  0.12500000000E+03  0.12500000000E+03 0.  0.
        -13    1    3    3    0    0 -0.84767844842E+01  0.31780728594E+02  0.73014013786E+01  0.33692613601E+02  0.10566000000E+00 0.  1.
         23    2    1    0    0    0 -0.23194732546E+02 -0.19885426196E+02  0.19465025144E+02  0.88774139116E+02  0.81046497636E+02 0.  0.
         13    1    3    3    0    0 -0.14717948062E+02 -0.51666154790E+02  0.12163623766E+02  0.55081525515E+02  0.10566000000E+00 0. -1.
         22    1    1    0    0    0  0.23194732546E+02  0.19885426196E+02 -0.19465025144E+02  0.36225860884E+02  0.00000000000E+00 0. -1.
</event>
<event>
 5    1  0.9034917E-005  0.9118800E+02  0.7818608E-02  0.1130116E+00
         25   -1    0    0    0    0  0.00000000000E+00  0.00000000000E+00  0.99999998245E-14  0.12500000000E+03  0.12500000000E+03 0.  0.
        -13    1    3    3    0    0  0.75738523414E+01  0.37650792058E+02  0.66312656909E+00  0.38410887555E+02  0.10566000000E+00 0. -1.
         23    2    1    0    0    0  0.21150426808E+02 -0.16202298103E+02  0.13078715310E+02  0.95319908825E+02  0.90581329237E+02 0.  0.
         13    1    3    3    0    0  0.13576574466E+02 -0.53853090161E+02  0.12415588740E+02  0.56909021270E+02  0.10566000000E+00 0.  1.
         22    1    1    0    0    0 -0.21150426808E+02  0.16202298103E+02 -0.13078715310E+02  0.29680091175E+02  0.00000000000E+00 0.  1.
</event>
<event>
 5    1  0.9034917E-005  0.9118800E+02  0.7818608E-02  0.1130116E+00
         25   -1    0    0    0    0  0.00000000000E+00  0.00000000000E+00  0.99999998245E-14  0.12500000000E+03  0.12500000000E+03 0.  0.
        -13    1    3    3    0    0  0.24485587327E+02  0.16839990757E+02  0.17736388818E+02  0.34608090496E+02  0.10566000000E+00 0. -1.
         23    2    1    0    0    0 -0.50995845323E+01 -0.16611806977E+02 -0.23756252650E+02  0.95566729142E+02  0.90921297205E+02 0.  0.
         13    1    3    3    0    0 -0.29585171859E+02 -0.33451797734E+02 -0.41492641468E+02  0.60958638646E+02  0.10566000000E+00 0.  1.
         22    1    1    0    0    0  0.50995845323E+01  0.16611806977E+02  0.23756252650E+02  0.29433270858E+02  0.00000000000E+00 0.  1.
</event>
<event>
 5    1  0.9034917E-005  0.9118800E+02  0.7818608E-02  0.1130116E+00
         25   -1    0    0    0    0  0.00000000000E+00  0.00000000000E+00  0.99999998245E-14  0.12500000000E+03  0.12500000000E+03 0.  0.
        -13    1    3    3    0    0  0.21269681274E+02 -0.36670680382E+02 -0.34640315644E+01  0.42534090091E+02  0.10566000000E+00 0.  1.
         23    2    1    0    0    0 -0.26121080424E+02 -0.10264185828E+02 -0.28665071662E+01  0.96788633203E+02  0.92585950882E+02 0.  0.
         13    1    3    3    0    0 -0.47390761698E+02  0.26406494554E+02  0.59752439822E+00  0.54254543112E+02  0.10566000000E+00 0. -1.
         22    1    1    0    0    0  0.26121080424E+02  0.10264185828E+02  0.28665071662E+01  0.28211366797E+02  0.00000000000E+00 0. -1.
</event>
<event>
 5    1  0.9034917E-005  0.9118800E+02  0.7818608E-02  0.1130116E+00
         25   -1    0    0    0    0  0.00000000000E+00  0.00000000000E+00  0.99999998245E-14  0.12500000000E+03  0.12500000000E+03 0.  0.
        -13    1    3    3    0    0 -0.44385518690E+02  0.28558709781E+02  0.90096657162E+01  0.53543061306E+02  0.10566000000E+00 0.  1.
         23    2    1    0    0    0 -0.22857362110E+01  0.27711577139E+02  0.93851055250E+01  0.95653172177E+02  0.91040062853E+02 0.  0.
         13    1    3    3    0    0  0.42099782479E+02 -0.84713264235E+00  0.37543980881E+00  0.42110110871E+02  0.10566000000E+00 0. -1.
         22    1    1    0    0    0  0.22857362110E+01 -0.27711577139E+02 -0.93851055250E+01  0.29346827823E+02  0.00000000000E+00 0. -1.
</event>
<event>
 5    1  0.9034917E-005  0.9118800E+02  0.7818608E-02  0.1130116E+00
         25   -1    0    0    0    0  0.00000000000E+00  0.00000000000E+00  0.99999998245E-14  0.12500000000E+03  0.12500000000E+03 0.  0.
        -13    1    3    3    0    0 -0.31410244907E+02  0.14106007290E+02  0.11851047537E+02  0.36414851620E+02  0.10566000000E+00 0.  1.
         23    2    1    0    0    0  0.56765370832E+01 -0.28979170665E+02 -0.34034092391E+01  0.95274613541E+02  0.90518801281E+02 0.  0.
         13    1    3    3    0    0  0.37086781990E+02 -0.43085177955E+02 -0.15254456776E+02  0.58859761921E+02  0.10566000000E+00 0. -1.
         22    1    1    0    0    0 -0.56765370832E+01  0.28979170665E+02  0.34034092391E+01  0.29725386459E+02  0.00000000000E+00 0. -1.
</event>
<event>
 5    1  0.9034917E-005  0.9118800E+02  0.7818608E-02  0.1130116E+00
         25   -1    0    0    0    0  0.00000000000E+00  0.00000000000E+00  0.99999998245E-14  0.12500000000E+03  0.12500000000E+03 0.  0.
        -13    1    3    3    0    0 -0.37568290165E+02  0.25069156002E+02 -0.29683259183E+02  0.54045777340E+02  0.10566000000E+00 0.  1.
         23    2    1    0    0    0 -0.16782346907E+02  0.21151428267E+02  0.76340637459E+01  0.96940972670E+02  0.92791395977E+02 0.  0.
         13    1    3    3    0    0  0.20785943258E+02 -0.39177277348E+01  0.37317322929E+02  0.42895195329E+02  0.10566000000E+00 0. -1.
         22    1    1    0    0    0  0.16782346907E+02 -0.21151428267E+02 -0.76340637459E+01  0.28059027330E+02  0.00000000000E+00 0.  1.
</event>
<event>
 5    1  0.9034917E-005  0.9118800E+02  0.7818608E-02  0.1130116E+00
         25   -1    0    0    0    0  0.00000000000E+00  0.00000000000E+00  0.99999998245E-14  0.12500000000E+03  0.12500000000E+03 0.  0.
        -13    1    3    3    0    0 -0.41271799849E+02 -0.41994790190E+02 -0.20625380185E+01  0.58916798054E+02  0.10566000000E+00 0. -1.
         23    2    1    0    0    0 -0.28664613996E+02 -0.84495405655E+01 -0.42278290585E+01  0.94818393518E+02  0.89886586205E+02 0.  0.
         13    1    3    3    0    0  0.12607185853E+02  0.33545249625E+02 -0.21652910401E+01  0.35901595464E+02  0.10566000000E+00 0.  1.
         22    1    1    0    0    0  0.28664613996E+02  0.84495405655E+01  0.42278290585E+01  0.30181606482E+02  0.00000000000E+00 0. -1.
</event>
<event>
 5    1  0.9034917E-005  0.9118800E+02  0.7818608E-02  0.1130116E+00
         25   -1    0    0    0    0  0.00000000000E+00  0.00000000000E+00  0.99999998245E-14  0.12500000000E+03  0.12500000000E+03 0.  0.
        -13    1    3    3    0    0 -0.54377720469E+02  0.23548311178E+02  0.72045724586E+01  0.59694023747E+02  0.10566000000E+00 0. -1.
         23    2    1    0    0    0 -0.28775536758E+02 -0.85156837507E+00 -0.16893135248E+01  0.96162342942E+02  0.91736501653E+02 0.  0.
         13    1    3    3    0    0  0.25602183712E+02 -0.24399879553E+02 -0.88938859835E+01  0.36468319195E+02  0.10566000000E+00 0.  1.
         22    1    1    0    0    0  0.28775536758E+02  0.85156837507E+00  0.16893135248E+01  0.28837657058E+02  0.00000000000E+00 0. -1.
</event>
<event>
 5    1  0.9034917E-005  0.9118800E+02  0.7818608E-02  0.1130116E+00
         25   -1    0    0    0    0  0.00000000000E+00  0.00000000000E+00  0.99999998245E-14  0.12500000000E+03  0.12500000000E+03 0.  0.
        -13    1    3    3    0    0 -0.43627932075E+01 -0.38091589203E+02 -0.11683147379E+01  0.38358561703E+02  0.10566000000E+00 0. -1.
         23    2    1    0    0    0 -0.27831899115E+02  0.12538764817E+02  0.30435007479E+01  0.94322677296E+02  0.89194558825E+02 0.  0.
         13    1    3    3    0    0 -0.23469105907E+02  0.50630354020E+02  0.42118154858E+01  0.55964115593E+02  0.10566000000E+00 0.  1.
         22    1    1    0    0    0  0.27831899115E+02 -0.12538764817E+02 -0.30435007479E+01  0.30677322704E+02  0.00000000000E+00 0.  1.
</event>
<event>
 5    1  0.9034917E-005  0.9118800E+02  0.7818608E-02  0.1130116E+00
         25   -1    0    0    0    0  0.00000000000E+00  0.00000000000E+00  0.99999998245E-14  0.12500000000E+03  0.12500000000E+03 0.  0.
        -13    1    3    3    0    0  0.50175460880E+02  0.23136276286E+02  0.41530470220E+01  0.55408691724E+02  0.10566000000E+00 0. -1.
         23    2    1    0    0    0  0.10513016839E+02  0.27605192077E+02  0.24675340627E+01  0.95357819294E+02  0.90633629649E+02 0.  0.
         13    1    3    3    0    0 -0.39662444041E+02  0.44689157909E+01 -0.16855129592E+01  0.39949127570E+02  0.10566000000E+00 0.  1.
         22    1    1    0    0    0 -0.10513016839E+02 -0.27605192077E+02 -0.24675340627E+01  0.29642180706E+02  0.00000000000E+00 0. -1.
</event>
<event>
 5    1  0.9034917E-005  0.9118800E+02  0.7818608E-02  0.1130116E+00
         25   -1    0    0    0    0  0.00000000000E+00  0.00000000000E+00  0.99999998245E-14  0.12500000000E+03  0.12500000000E+03 0.  0.
        -13    1    3    3    0    0 -0.13159252980E+02  0.30751866919E+02  0.15803562148E+02  0.36994688789E+02  0.10566000000E+00 0. -1.
         23    2    1    0    0    0  0.45847091222E+01 -0.37500470659E+01 -0.28503586451E+02  0.95887513824E+02  0.91361252487E+02 0.  0.
         13    1    3    3    0    0  0.17743962102E+02 -0.34501913984E+02 -0.44307148599E+02  0.58892825036E+02  0.10566000000E+00 0.  1.
         22    1    1    0    0    0 -0.45847091222E+01  0.37500470659E+01  0.28503586451E+02  0.29112486176E+02  0.00000000000E+00 0.  1.
</event>
<event>
 5    1  0.9034917E-005  0.9118800E+02  0.7818608E-02  0.1130116E+00
         25   -1    0    0    0    0  0.00000000000E+00  0.00000000000E+00  0.99999998245E-14  0.12500000000E+03  0.12500000000E+03 0.  0.
        -13    1    3    3    0    0  0.36137454385E+02  0.26996925199E+02 -0.20856868292E+02  0.49696777547E+02  0.10566000000E+00 0. -1.
         23    2    1    0    0    0 -0.64895963086E+00  0.60044511333E+00 -0.29242637476E+02  0.95744000111E+02  0.91164686298E+02 0.  0.
         13    1    3    3    0    0 -0.36786414016E+02 -0.26396480085E+02 -0.83857691837E+01  0.46047222564E+02  0.10566000000E+00 0.  1.
         22    1    1    0    0    0  0.64895963086E+00 -0.60044511333E+00  0.29242637476E+02  0.29255999889E+02  0.00000000000E+00 0. -1.
</event>
<event>
 5    1  0.9034917E-005  0.9118800E+02  0.7818608E-02  0.1130116E+00
         25   -1    0    0    0    0  0.00000000000E+00  0.00000000000E+00  0.99999998245E-14  0.12500000000E+03  0.12500000000E+03 0.  0.
        -13    1    3    3    0    0  0.49626529345E+02  0.33091235599E+02 -0.18223552850E+01  0.59675408931E+02  0.10566000000E+00 0.  1.
         23    2    1    0    0    0  0.30056753204E+02  0.11610692596E+02  0.10316289647E+02  0.91167435394E+02  0.84657302393E+02 0.  0.
         13    1    3    3    0    0 -0.19569776141E+02 -0.21480543002E+02  0.12138644932E+02  0.31492026462E+02  0.10566000000E+00 0. -1.
         22    1    1    0    0    0 -0.30056753204E+02 -0.11610692596E+02 -0.10316289647E+02  0.33832564606E+02  0.00000000000E+00 0.  1.
</event>
<event>
 5    1  0.9034917E-005  0.9118800E+02  0.7818608E-02  0.1130116E+00
         25   -1    0    0    0    0  0.00000000000E+00  0.00000000000E+00  0.99999998245E-14  0.12500000000E+03  0.12500000000E+03 0.  0.
        -13    1    3    3    0    0  0.44214707713E+02 -0.23547614326E+01  0.37435496659E+01  0.44435465652E+02  0.10566000000E+00 0.  1.
         23    2    1    0    0    0  0.94331037732E+01 -0.10400228175E+02  0.32058682747E+02  0.90001323849E+02  0.82917615512E+02 0.  0.
         13    1    3    3    0    0 -0.34781603940E+02 -0.80454667425E+01  0.28315133081E+02  0.45565858196E+02  0.10566000000E+00 0. -1.
         22    1    1    0    0    0 -0.94331037732E+01  0.10400228175E+02 -0.32058682747E+02  0.34998676151E+02  0.00000000000E+00 0. -1.
</event>
<event>
 5    1  0.9034917E-005  0.9118800E+02  0.7818608E-02  0.1130116E+00
         25   -1    0    0    0    0  0.00000000000E+00  0.00000000000E+00  0.99999998245E-14  0.12500000000E+03  0.12500000000E+03 0.  0.
        -13    1    3    3    0    0 -0.26949224327E+02  0.28749838814E+01 -0.26832662974E+02  0.38138290345E+02  0.10566000000E+00 0.  1.
         23    2    1    0    0    0 -0.94626045498E+01 -0.20314575925E+02  0.21123292485E+02  0.94203630648E+02  0.89027566865E+02 0.  0.
         13    1    3    3    0    0  0.17486619778E+02 -0.23189559806E+02  0.47955955459E+02  0.56065340303E+02  0.10566000000E+00 0. -1.
         22    1    1    0    0    0  0.94626045498E+01  0.20314575925E+02 -0.21123292485E+02  0.30796369352E+02  0.00000000000E+00 0. -1.
</event>
<event>
 5    1  0.9034917E-005  0.9118800E+02  0.7818608E-02  0.1130116E+00
         25   -1    0    0    0    0  0.00000000000E+00  0.00000000000E+00  0.99999998245E-14  0.12500000000E+03  0.12500000000E+03 0.  0.
        -13    1    3    3    0    0  0.22552599167E+02  0.19579679801E+02  0.28065120014E+02  0.40983481010E+02  0.10566000000E+00 0. -1.
         23    2    1    0    0    0 -0.22964565481E+02  0.20388549593E+02  0.33459258183E+00  0.94288826554E+02  0.89147106731E+02 0.  0.
         13    1    3    3    0    0 -0.45517164648E+02  0.80886979193E+00 -0.27730527432E+02  0.53305345544E+02  0.10566000000E+00 0.  1.
         22    1    1    0    0    0  0.22964565481E+02 -0.20388549593E+02 -0.33459258183E+00  0.30711173446E+02  0.00000000000E+00 0.  1.
</event>
<event>
 5    1  0.9034917E-005  0.9118800E+02  0.7818608E-02  0.1130116E+00
         25   -1    0    0    0    0  0.00000000000E+00  0.00000000000E+00  0.99999998245E-14  0.12500000000E+03  0.12500000000E+03 0.  0.
        -13    1    3    3    0    0  0.34476972828E+02 -0.22066955463E+02 -0.39907293511E+02  0.57168307812E+02  0.10566000000E+00 0. -1.
         23    2    1    0    0    0  0.28776873621E+02 -0.54935917475E+01 -0.63554880817E+01  0.95022004163E+02  0.90169291007E+02 0.  0.
         13    1    3    3    0    0 -0.57000992070E+01  0.16573363715E+02  0.33551805429E+02  0.37853696350E+02  0.10566000000E+00 0.  1.
         22    1    1    0    0    0 -0.28776873621E+02  0.54935917475E+01  0.63554880817E+01  0.29977995837E+02  0.00000000000E+00 0. -1.
</event>
<event>
 5    1  0.9034917E-005  0.9118800E+02  0.7818608E-02  0.1130116E+00
         25   -1    0    0    0    0  0.00000000000E+00  0.00000000000E+00  0.99999998245E-14  0.12500000000E+03  0.12500000000E+03 0.  0.
        -13    1    3    3    0    0 -0.22196194469E+02 -0.31640909955E+02 -0.12297125985E+02  0.40559199982E+02  0.10566000000E+00 0. -1.
         23    2    1    0    0    0 -0.54608601727E+01  0.19431734411E+02 -0.21967912893E+02  0.95167090438E+02  0.90370197574E+02 0.  0.
         13    1    3    3    0    0  0.16735334296E+02  0.51072644366E+02 -0.96707869085E+01  0.54607890456E+02  0.10566000000E+00 0.  1.
         22    1    1    0    0    0  0.54608601727E+01 -0.19431734411E+02  0.21967912893E+02  0.29832909562E+02  0.00000000000E+00 0.  1.
</event>
<event>
 5    1  0.9034917E-005  0.9118800E+02  0.7818608E-02  0.1130116E+00
         25   -1    0    0    0    0  0.00000000000E+00  0.00000000000E+00  0.99999998245E-14  0.12500000000E+03  0.12500000000E+03 0.  0.
        -13    1    3    3    0    0  0.32227397442E+02  0.24122326973E+02  0.26633110632E+02  0.48268266496E+02  0.10566000000E+00 0.  1.
         23    2    1    0    0    0  0.71488656954E+01  0.16682129996E+02 -0.17639003064E+02  0.99691223439E+02  0.96425130852E+02 0.  0.
         13    1    3    3    0    0 -0.25078531747E+02 -0.74401969779E+01 -0.44272113696E+02  0.51422956943E+02  0.10566000000E+00 0. -1.
         22    1    1    0    0    0 -0.71488656954E+01 -0.16682129996E+02  0.17639003064E+02  0.25308776561E+02  0.00000000000E+00 0.  1.
</event>
<event>
 5    1  0.9034917E-005  0.9118800E+02  0.7818608E-02  0.1130116E+00
         25   -1    0    0    0    0  0.00000000000E+00  0.00000000000E+00  0.99999998245E-14  0.12500000000E+03  0.12500000000E+03 0.  0.
        -13    1    3    3    0    0 -0.20995817064E+02 -0.32823896711E+02  0.35341674202E+02  0.52604920197E+02  0.10566000000E+00 0.  1.
         23    2    1    0    0    0 -0.26139025662E+02  0.32296061909E+01  0.19012673195E+02  0.92516761849E+02  0.86626730646E+02 0.  0.
         13    1    3    3    0    0 -0.51432085983E+01  0.36053502901E+02 -0.16329001007E+02  0.39911841652E+02  0.10566000000E+00 0. -1.
         22    1    1    0    0    0  0.26139025662E+02 -0.32296061909E+01 -0.19012673195E+02  0.32483238151E+02  0.00000000000E+00 0.  1.
</event>
<event>
 5    1  0.9034917E-005  0.9118800E+02  0.7818608E-02  0.1130116E+00
         25   -1    0    0    0    0  0.00000000000E+00  0.00000000000E+00  0.99999998245E-14  0.12500000000E+03  0.12500000000E+03 0.  0.
        -13    1    3    3    0    0  0.18034706248E+02 -0.24588317616E+02  0.81260598246E+01  0.31557566525E+02  0.10566000000E+00 0.  1.
         23    2    1    0    0    0 -0.15561929756E+02  0.27197377511E+02  0.17270973344E+01  0.93617618535E+02  0.88200933294E+02 0.  0.
         13    1    3    3    0    0 -0.33596636004E+02  0.51785695127E+02 -0.63989624903E+01  0.62060052011E+02  0.10566000000E+00 0. -1.
         22    1    1    0    0    0  0.15561929756E+02 -0.27197377511E+02 -0.17270973344E+01  0.31382381465E+02  0.00000000000E+00 0. -1.
</event>
<event>
 5    1  0.9034917E-005  0.9118800E+02  0.7818608E-02  0.1130116E+00
         25   -1    0    0    0    0  0.00000000000E+00  0.00000000000E+00  0.99999998245E-14  0.12500000000E+03  0.12500000000E+03 0.  0.
        -13    1    3    3    0    0  0.21309580438E+02  0.23883413504E+02  0.18097093851E+02  0.36769982716E+02  0.10566000000E+00 0.  1.
         23    2    1    0    0    0 -0.36843462115E+00 -0.19943760207E+01 -0.29669381397E+02  0.95261380795E+02  0.90500525958E+02 0.  0.
         13    1    3    3    0    0 -0.21678015060E+02 -0.25877789525E+02 -0.47766475247E+02  0.58491398079E+02  0.10566000000E+00 0. -1.
         22    1    1    0    0    0  0.36843462115E+00  0.19943760207E+01  0.29669381397E+02  0.29738619205E+02  0.00000000000E+00 0. -1.
</event>
<event>
 5    1  0.9034917E-005  0.9118800E+02  0.7818608E-02  0.1130116E+00
         25   -1    0    0    0    0  0.00000000000E+00  0.00000000000E+00  0.99999998245E-14  0.12500000000E+03  0.12500000000E+03 0.  0.
        -13    1    3    3    0    0  0.41506087831E+02 -0.26695534912E+02 -0.38262285536E+02  0.62445340657E+02  0.10566000000E+00 0.  1.
         23    2    1    0    0    0  0.20169115861E+02 -0.13684477992E+02 -0.21101846177E+02  0.92761109128E+02  0.86978602438E+02 0.  0.
         13    1    3    3    0    0 -0.21336971969E+02  0.13011056921E+02  0.17160439358E+02  0.30315768472E+02  0.10566000000E+00 0. -1.
         22    1    1    0    0    0 -0.20169115861E+02  0.13684477992E+02  0.21101846177E+02  0.32238890872E+02  0.00000000000E+00 0.  1.
</event>
<event>
 5    1  0.9034917E-005  0.9118800E+02  0.7818608E-02  0.1130116E+00
         25   -1    0    0    0    0  0.00000000000E+00  0.00000000000E+00  0.99999998245E-14  0.12500000000E+03  0.12500000000E+03 0.  0.
        -13    1    3    3    0    0  0.26034085470E+02 -0.46679954875E+02  0.17218293885E+01  0.53476795472E+02  0.10566000000E+00 0.  1.
         23    2    1    0    0    0  0.27511536810E+02 -0.34744935374E+01  0.49643264064E+01  0.96829069954E+02  0.92640528326E+02 0.  0.
         13    1    3    3    0    0  0.14774513397E+01  0.43205461338E+02  0.32424970179E+01  0.43352274483E+02  0.10566000000E+00 0. -1.
         22    1    1    0    0    0 -0.27511536810E+02  0.34744935374E+01 -0.49643264064E+01  0.28170930046E+02  0.00000000000E+00 0.  1.
</event>
<event>
 5    1  0.9034917E-005  0.9118800E+02  0.7818608E-02  0.1130116E+00
         25   -1    0    0    0    0  0.00000000000E+00  0.00000000000E+00  0.99999998245E-14  0.12500000000E+03  0.12500000000E+03 0.  0.
        -13    1    3    3    0    0 -0.10776995849E+02  0.24295175712E+02 -0.28122708628E+02  0.38694923531E+02  0.10566000000E+00 0. -1.
         23    2    1    0    0    0  0.27722444151E+02 -0.55122159185E+01  0.31456364914E+01  0.96560354029E+02  0.92277237210E+02 0.  0.
         13    1    3    3    0    0  0.38499440000E+02 -0.29807391631E+02  0.31268345119E+02  0.57865430498E+02  0.10566000000E+00 0.  1.
         22    1    1    0    0    0 -0.27722444151E+02  0.55122159185E+01 -0.31456364914E+01  0.28439645971E+02  0.00000000000E+00 0.  1.
</event>
<event>
 5    1  0.9034917E-005  0.9118800E+02  0.7818608E-02  0.1130116E+00
         25   -1    0    0    0    0  0.00000000000E+00  0.00000000000E+00  0.99999998245E-14  0.12500000000E+03  0.12500000000E+03 0.  0.
        -13    1    3    3    0    0 -0.75433987309E+01 -0.13144156128E+02 -0.22716106741E+02  0.27307588217E+02  0.10566000000E+00 0. -1.
         23    2    1    0    0    0  0.11117737612E+02  0.29850585761E+02  0.17135709698E+02  0.88829651554E+02  0.81132070653E+02 0.  0.
         13    1    3    3    0    0  0.18661136342E+02  0.42994741889E+02  0.39851816439E+02  0.61522063337E+02  0.10566000000E+00 0.  1.
         22    1    1    0    0    0 -0.11117737612E+02 -0.29850585761E+02 -0.17135709698E+02  0.36170348446E+02  0.00000000000E+00 0.  1.
</event>
<event>
 5    1  0.9034917E-005  0.9118800E+02  0.7818608E-02  0.1130116E+00
         25   -1    0    0    0    0  0.00000000000E+00  0.00000000000E+00  0.99999998245E-14  0.12500000000E+03  0.12500000000E+03 0.  0.
        -13    1    3    3    0    0  0.34843344009E+02 -0.20079853406E+02 -0.45199624082E+02  0.60500217486E+02  0.10566000000E+00 0.  1.
         23    2    1    0    0    0  0.17344392772E+02  0.22614915009E+01 -0.19738510333E+02  0.98626697313E+02  0.95035121552E+02 0.  0.
         13    1    3    3    0    0 -0.17498951238E+02  0.22341344907E+02  0.25461113749E+02  0.38126479828E+02  0.10566000000E+00 0. -1.
         22    1    1    0    0    0 -0.17344392772E+02 -0.22614915009E+01  0.19738510333E+02  0.26373302687E+02  0.00000000000E+00 0.  1.
</event>
<event>
 5    1  0.9034917E-005  0.9118800E+02  0.7818608E-02  0.1130116E+00
         25   -1    0    0    0    0  0.00000000000E+00  0.00000000000E+00  0.99999998245E-14  0.12500000000E+03  0.12500000000E+03 0.  0.
        -13    1    3    3    0    0  0.42352768457E+01  0.59051020953E+02 -0.58602075547E+00  0.59205702680E+02  0.10566000000E+00 0.  1.
         23    2    1    0    0    0  0.15430696362E+02  0.21300048781E+02 -0.21273246400E+01  0.98612048613E+02  0.95015852115E+02 0.  0.
         13    1    3    3    0    0  0.11195419516E+02 -0.37750972171E+02 -0.15413038845E+01  0.39406345932E+02  0.10566000000E+00 0. -1.
         22    1    1    0    0    0 -0.15430696362E+02 -0.21300048781E+02  0.21273246400E+01  0.26387951387E+02  0.00000000000E+00 0.  1.
</event>
<event>
 5    1  0.9034917E-005  0.9118800E+02  0.7818608E-02  0.1130116E+00
         25   -1    0    0    0    0  0.00000000000E+00  0.00000000000E+00  0.99999998245E-14  0.12500000000E+03  0.12500000000E+03 0.  0.
        -13    1    3    3    0    0  0.29980453529E+02 -0.13742734590E+02 -0.39848312615E+02  0.51726101053E+02  0.10566000000E+00 0. -1.
         23    2    1    0    0    0  0.20643595486E+02 -0.18459882841E+02  0.41913301017E+01  0.96991205718E+02  0.92859040645E+02 0.  0.
         13    1    3    3    0    0 -0.93368580423E+01 -0.47171482510E+01  0.44039642717E+02  0.45265104666E+02  0.10566000000E+00 0.  1.
         22    1    1    0    0    0 -0.20643595486E+02  0.18459882841E+02 -0.41913301017E+01  0.28008794282E+02  0.00000000000E+00 0.  1.
</event>
<event>
 5    1  0.9034917E-005  0.9118800E+02  0.7818608E-02  0.1130116E+00
         25   -1    0    0    0    0  0.00000000000E+00  0.00000000000E+00  0.99999998245E-14  0.12500000000E+03  0.12500000000E+03 0.  0.
        -13    1    3    3    0    0 -0.15692762197E+02 -0.20532829409E+02  0.15654438256E+02  0.30214772381E+02  0.10566000000E+00 0.  1.
         23    2    1    0    0    0  0.14004895581E+02  0.19009493795E+02 -0.22276190495E+02  0.92538844482E+02  0.86658589422E+02 0.  0.
         13    1    3    3    0    0  0.29697657777E+02  0.39542323204E+02 -0.37930628751E+02  0.62324072101E+02  0.10566000000E+00 0. -1.
         22    1    1    0    0    0 -0.14004895581E+02 -0.19009493795E+02  0.22276190495E+02  0.32461155518E+02  0.00000000000E+00 0. -1.
</event>
<event>
 5    1  0.9034917E-005  0.9118800E+02  0.7818608E-02  0.1130116E+00
         25   -1    0    0    0    0  0.00000000000E+00  0.00000000000E+00  0.99999998245E-14  0.12500000000E+03  0.12500000000E+03 0.  0.
        -13    1    3    3    0    0 -0.42746357661E+02  0.15674612634E+02 -0.29922587629E+02  0.54482263067E+02  0.10566000000E+00 0. -1.
         23    2    1    0    0    0 -0.11840600087E+02 -0.11726580917E+02 -0.23361322137E+02  0.96303939602E+02  0.91929238550E+02 0.  0.
         13    1    3    3    0    0  0.30905757574E+02 -0.27401193551E+02  0.65612654925E+01  0.41821676534E+02  0.10566000000E+00 0.  1.
         22    1    1    0    0    0  0.11840600087E+02  0.11726580917E+02  0.23361322137E+02  0.28696060398E+02  0.00000000000E+00 0. -1.
</event>
<event>
 5    1  0.9034917E-005  0.9118800E+02  0.7818608E-02  0.1130116E+00
         25   -1    0    0    0    0  0.00000000000E+00  0.00000000000E+00  0.99999998245E-14  0.12500000000E+03  0.12500000000E+03 0.  0.
        -13    1    3    3    0    0  0.71133016230E+01  0.54088127985E+02 -0.52917141482E+01  0.54810017803E+02  0.10566000000E+00 0.  1.
         23    2    1    0    0    0 -0.15773248415E+02  0.20713951474E+02 -0.12831138975E+02  0.95974127427E+02  0.91479680021E+02 0.  0.
         13    1    3    3    0    0 -0.22886550038E+02 -0.33374176510E+02 -0.75394248263E+01  0.41164109624E+02  0.10566000000E+00 0. -1.
         22    1    1    0    0    0  0.15773248415E+02 -0.20713951474E+02  0.12831138975E+02  0.29025872573E+02  0.00000000000E+00 0.  1.
</event>
<event>
 5    1  0.9034917E-005  0.9118800E+02  0.7818608E-02  0.1130116E+00
         25   -1    0    0    0    0  0.00000000000E+00  0.00000000000E+00  0.99999998245E-14  0.12500000000E+03  0.12500000000E+03 0.  0.
        -13    1    3    3    0    0  0.26592039239E+02  0.10090604553E+01  0.24626770628E+02  0.36258016348E+02  0.10566000000E+00 0.  1.
         23    2    1    0    0    0  0.24930747734E+01  0.10929889760E+02 -0.27920445126E+02  0.94912973427E+02  0.90018016845E+02 0.  0.
         13    1    3    3    0    0 -0.24098964466E+02  0.99208293043E+01 -0.52547215754E+02  0.58654957079E+02  0.10566000000E+00 0. -1.
         22    1    1    0    0    0 -0.24930747734E+01 -0.10929889760E+02  0.27920445126E+02  0.30087026573E+02  0.00000000000E+00 0. -1.
</event>
<event>
 5    1  0.9034917E-005  0.9118800E+02  0.7818608E-02  0.1130116E+00
         25   -1    0    0    0    0  0.00000000000E+00  0.00000000000E+00  0.99999998245E-14  0.12500000000E+03  0.12500000000E+03 0.  0.
        -13    1    3    3    0    0  0.32225509547E+02 -0.11178418122E+01 -0.30389027946E+02  0.44308432825E+02  0.10566000000E+00 0. -1.
         23    2    1    0    0    0 -0.33640736410E+01 -0.28215073005E+02 -0.38356829619E+01  0.96327368452E+02  0.91961090211E+02 0.  0.
         13    1    3    3    0    0 -0.35589583188E+02 -0.27097231193E+02  0.26553344984E+02  0.52018935626E+02  0.10566000000E+00 0.  1.
         22    1    1    0    0    0  0.33640736410E+01  0.28215073005E+02  0.38356829619E+01  0.28672631548E+02  0.00000000000E+00 0.  1.
</event>
<event>
 5    1  0.9034917E-005  0.9118800E+02  0.7818608E-02  0.1130116E+00
         25   -1    0    0    0    0  0.00000000000E+00  0.00000000000E+00  0.99999998245E-14  0.12500000000E+03  0.12500000000E+03 0.  0.
        -13    1    3    3    0    0  0.81563286602E+00  0.20547711165E+01 -0.47355710777E+02  0.47407402888E+02  0.10566000000E+00 0. -1.
         23    2    1    0    0    0 -0.20091263600E+02 -0.16995562807E+02 -0.51956381581E+01  0.98176452807E+02  0.94441056759E+02 0.  0.
         13    1    3    3    0    0 -0.20906896466E+02 -0.19050333924E+02  0.42160072619E+02  0.50769049919E+02  0.10566000000E+00 0.  1.
         22    1    1    0    0    0  0.20091263600E+02  0.16995562807E+02  0.51956381581E+01  0.26823547193E+02  0.00000000000E+00 0. -1.
</event>
<event>
 5    1  0.9034917E-005  0.9118800E+02  0.7818608E-02  0.1130116E+00
         25   -1    0    0    0    0  0.00000000000E+00  0.00000000000E+00  0.99999998245E-14  0.12500000000E+03  0.12500000000E+03 0.  0.
        -13    1    3    3    0    0  0.30007823704E+02  0.30515051082E+01 -0.15289121504E+02  0.33816409734E+02  0.10566000000E+00 0.  1.
         23    2    1    0    0    0  0.20734058167E+02 -0.40261748676E+02 -0.11515333860E+02  0.78271930402E+02  0.62793173199E+02 0.  0.
         13    1    3    3    0    0 -0.92737655377E+01 -0.43313253784E+02  0.37737876439E+01  0.44455520668E+02  0.10566000000E+00 0. -1.
         22    1    1    0    0    0 -0.20734058167E+02  0.40261748676E+02  0.11515333860E+02  0.46728069598E+02  0.00000000000E+00 0. -1.
</event>
<event>
 5    1  0.9034917E-005  0.9118800E+02  0.7818608E-02  0.1130116E+00
         25   -1    0    0    0    0  0.00000000000E+00  0.00000000000E+00  0.99999998245E-14  0.12500000000E+03  0.12500000000E+03 0.  0.
        -13    1    3    3    0    0 -0.13534119918E+02  0.29511432176E+02 -0.40229968056E+02  0.51696794145E+02  0.10566000000E+00 0.  1.
         23    2    1    0    0    0  0.68562509742E+01 -0.67752892469E+01 -0.28459541768E+02  0.94952400438E+02  0.90072748984E+02 0.  0.
         13    1    3    3    0    0  0.20390370892E+02 -0.36286721423E+02  0.11770426288E+02  0.43255606293E+02  0.10566000000E+00 0. -1.
         22    1    1    0    0    0 -0.68562509742E+01  0.67752892469E+01  0.28459541768E+02  0.30047599562E+02  0.00000000000E+00 0. -1.
</event>
<event>
 5    1  0.9034917E-005  0.9118800E+02  0.7818608E-02  0.1130116E+00
         25   -1    0    0    0    0  0.00000000000E+00  0.00000000000E+00  0.99999998245E-14  0.12500000000E+03  0.12500000000E+03 0.  0.
        -13    1    3    3    0    0  0.59672845079E+02  0.10637004839E+02  0.14589154899E+02  0.62344598134E+02  0.10566000000E+00 0.  1.
         23    2    1    0    0    0  0.28528306064E+02  0.24375282558E+01  0.86129169864E+01  0.95100365723E+02  0.90277856813E+02 0.  0.
         13    1    3    3    0    0 -0.31144539016E+02 -0.81994765830E+01 -0.59762379123E+01  0.32755767589E+02  0.10566000000E+00 0. -1.
         22    1    1    0    0    0 -0.28528306064E+02 -0.24375282558E+01 -0.86129169864E+01  0.29899634277E+02  0.00000000000E+00 0.  1.
</event>
<event>
 5    1  0.9034917E-005  0.9118800E+02  0.7818608E-02  0.1130116E+00
         25   -1    0    0    0    0  0.00000000000E+00  0.00000000000E+00  0.99999998245E-14  0.12500000000E+03  0.12500000000E+03 0.  0.
        -13    1    3    3    0    0 -0.59583572472E+01 -0.36427603317E+02 -0.38045045572E+01  0.37107380983E+02  0.10566000000E+00 0. -1.
         23    2    1    0    0    0  0.24855593447E+02  0.10873672405E+02  0.11400435805E+02  0.95571999495E+02  0.90928542679E+02 0.  0.
         13    1    3    3    0    0  0.30813950694E+02  0.47301275722E+02  0.15204940363E+02  0.58464618512E+02  0.10566000000E+00 0.  1.
         22    1    1    0    0    0 -0.24855593447E+02 -0.10873672405E+02 -0.11400435805E+02  0.29428000505E+02  0.00000000000E+00 0.  1.
</event>
<event>
 5    1  0.9034917E-005  0.9118800E+02  0.7818608E-02  0.1130116E+00
         25   -1    0    0    0    0  0.00000000000E+00  0.00000000000E+00  0.99999998245E-14  0.12500000000E+03  0.12500000000E+03 0.  0.
        -13    1    3    3    0    0 -0.39835146641E+02 -0.31478451061E+02 -0.14250453535E+02  0.52733465456E+02  0.10566000000E+00 0. -1.
         23    2    1    0    0    0 -0.26975695157E+02  0.89443338174E+01 -0.62695775463E+01  0.95896789881E+02  0.91373943059E+02 0.  0.
         13    1    3    3    0    0  0.12859451483E+02  0.40422784878E+02  0.79808759888E+01  0.43163324424E+02  0.10566000000E+00 0.  1.
         22    1    1    0    0    0  0.26975695157E+02 -0.89443338174E+01  0.62695775463E+01  0.29103210119E+02  0.00000000000E+00 0. -1.
</event>
<event>
 5    1  0.9034917E-005  0.9118800E+02  0.7818608E-02  0.1130116E+00
         25   -1    0    0    0    0  0.00000000000E+00  0.00000000000E+00  0.99999998245E-14  0.12500000000E+03  0.12500000000E+03 0.  0.
        -13    1    3    3    0    0  0.19288892240E+02 -0.29940534959E+02 -0.43237809880E+01  0.35877614797E+02  0.10566000000E+00 0.  1.
         23    2    1    0    0    0 -0.25825687904E+02  0.47576345396E+01 -0.16372630042E+02  0.94053849083E+02  0.88817015659E+02 0.  0.
         13    1    3    3    0    0 -0.45114580143E+02  0.34698169499E+02 -0.12048849054E+02  0.58176234285E+02  0.10566000000E+00 0. -1.
         22    1    1    0    0    0  0.25825687904E+02 -0.47576345396E+01  0.16372630042E+02  0.30946150917E+02  0.00000000000E+00 0. -1.
</event>
<event>
 5    1  0.9034917E-005  0.9118800E+02  0.7818608E-02  0.1130116E+00
         25   -1    0    0    0    0  0.00000000000E+00  0.00000000000E+00  0.99999998245E-14  0.12500000000E+03  0.12500000000E+03 0.  0.
        -13    1    3    3    0    0 -0.12009657576E+02  0.23437687180E+02  0.45126382478E+02  0.52249005876E+02  0.10566000000E+00 0. -1.
         23    2    1    0    0    0  0.15678749827E+02  0.18558947199E+02  0.68200845533E+01  0.99765672773E+02  0.96521594440E+02 0.  0.
         13    1    3    3    0    0  0.27688407403E+02 -0.48787399807E+01 -0.38306297925E+02  0.47516666897E+02  0.10566000000E+00 0.  1.
         22    1    1    0    0    0 -0.15678749827E+02 -0.18558947199E+02 -0.68200845533E+01  0.25234327227E+02  0.00000000000E+00 0. -1.
</event>
<event>
 5    1  0.9034917E-005  0.9118800E+02  0.7818608E-02  0.1130116E+00
         25   -1    0    0    0    0  0.00000000000E+00  0.00000000000E+00  0.99999998245E-14  0.12500000000E+03  0.12500000000E+03 0.  0.
        -13    1    3    3    0    0  0.37274078524E+02  0.31540225770E+01 -0.10514230121E+02  0.38856981191E+02  0.10566000000E+00 0. -1.
         23    2    1    0    0    0 -0.14570306722E+02  0.25221893742E+02 -0.45764333431E+01  0.95514723945E+02  0.90849771525E+02 0.  0.
         13    1    3    3    0    0 -0.51844385246E+02  0.22067871165E+02  0.59377967781E+01  0.56657742753E+02  0.10566000000E+00 0.  1.
         22    1    1    0    0    0  0.14570306722E+02 -0.25221893742E+02  0.45764333431E+01  0.29485276055E+02  0.00000000000E+00 0.  1.
</event>
<event>
 5    1  0.9034917E-005  0.9118800E+02  0.7818608E-02  0.1130116E+00
         25   -1    0    0    0    0  0.00000000000E+00  0.00000000000E+00  0.99999998245E-14  0.12500000000E+03  0.12500000000E+03 0.  0.
        -13    1    3    3    0    0  0.53120586198E+02 -0.28798611825E+02 -0.14616964604E+02  0.62167704955E+02  0.10566000000E+00 0.  1.
         23    2    1    0    0    0  0.24197882135E+02 -0.17877935101E+02 -0.90645670836E+01  0.93578280765E+02  0.88145165444E+02 0.  0.
         13    1    3    3    0    0 -0.28922704063E+02  0.10920676725E+02  0.55523975208E+01  0.31410575810E+02  0.10566000000E+00 0. -1.
         22    1    1    0    0    0 -0.24197882135E+02  0.17877935101E+02  0.90645670836E+01  0.31421719235E+02  0.00000000000E+00 0.  1.
</event>
<event>
 5    1  0.9034917E-005  0.9118800E+02  0.7818608E-02  0.1130116E+00
         25   -1    0    0    0    0  0.00000000000E+00  0.00000000000E+00  0.99999998245E-14  0.12500000000E+03  0.12500000000E+03 0.  0.
        -13    1    3    3    0    0 -0.83513383064E+01  0.37629951614E+02  0.26902904706E+02  0.47005697055E+02  0.10566000000E+00 0. -1.
         23    2    1    0    0    0  0.22354434330E+02  0.18027499418E+02 -0.54993860042E+01  0.95760391317E+02  0.91187158248E+02 0.  0.
         13    1    3    3    0    0  0.30705772637E+02 -0.19602452197E+02 -0.32402290710E+02  0.48754694262E+02  0.10566000000E+00 0.  1.
         22    1    1    0    0    0 -0.22354434330E+02 -0.18027499418E+02  0.54993860042E+01  0.29239608683E+02  0.00000000000E+00 0. -1.
</event>
<event>
 5    1  0.9034917E-005  0.9118800E+02  0.7818608E-02  0.1130116E+00
         25   -1    0    0    0    0  0.00000000000E+00  0.00000000000E+00  0.99999998245E-14  0.12500000000E+03  0.12500000000E+03 0.  0.
        -13    1    3    3    0    0 -0.21449231355E+01 -0.34214136431E+02 -0.70723292306E+01  0.35003383147E+02  0.10566000000E+00 0. -1.
         23    2    1    0    0    0  0.10016927791E+02  0.14859226894E+02  0.24526800782E+02  0.94624032150E+02  0.89615891657E+02 0.  0.
         13    1    3    3    0    0  0.12161850926E+02  0.49073363324E+02  0.31599130012E+02  0.59620649003E+02  0.10566000000E+00 0.  1.
         22    1    1    0    0    0 -0.10016927791E+02 -0.14859226894E+02 -0.24526800782E+02  0.30375967850E+02  0.00000000000E+00 0.  1.
</event>
<event>
 5    1  0.9034917E-005  0.9118800E+02  0.7818608E-02  0.1130116E+00
         25   -1    0    0    0    0  0.00000000000E+00  0.00000000000E+00  0.99999998245E-14  0.12500000000E+03  0.12500000000E+03 0.  0.
        -13    1    3    3    0    0 -0.77339392149E+01  0.23692236876E+02 -0.27287450563E+02  0.36956082398E+02  0.10566000000E+00 0.  1.
         23    2    1    0    0    0  0.10614774343E+02 -0.21717606485E+02  0.10330262956E+02  0.98712318502E+02  0.95147672728E+02 0.  0.
         13    1    3    3    0    0  0.18348713558E+02 -0.45409843361E+02  0.37617713519E+02  0.61756236104E+02  0.10566000000E+00 0. -1.
         22    1    1    0    0    0 -0.10614774343E+02  0.21717606485E+02 -0.10330262956E+02  0.26287681498E+02  0.00000000000E+00 0. -1.
</event>
<event>
 5    1  0.9034917E-005  0.9118800E+02  0.7818608E-02  0.1130116E+00
         25   -1    0    0    0    0  0.00000000000E+00  0.00000000000E+00  0.99999998245E-14  0.12500000000E+03  0.12500000000E+03 0.  0.
        -13    1    3    3    0    0  0.38617336911E+02  0.25565519142E+02 -0.23518293457E+02  0.51942427458E+02  0.10566000000E+00 0.  1.
         23    2    1    0    0    0  0.27335685498E+02 -0.10139523836E+02 -0.61238290139E+00  0.95837958609E+02  0.91293426118E+02 0.  0.
         13    1    3    3    0    0 -0.11281651413E+02 -0.35705042978E+02  0.22905910555E+02  0.43895531151E+02  0.10566000000E+00 0. -1.
         22    1    1    0    0    0 -0.27335685498E+02  0.10139523836E+02  0.61238290139E+00  0.29162041391E+02  0.00000000000E+00 0. -1.
</event>
<event>
 5    1  0.9034917E-005  0.9118800E+02  0.7818608E-02  0.1130116E+00
         25   -1    0    0    0    0  0.00000000000E+00  0.00000000000E+00  0.99999998245E-14  0.12500000000E+03  0.12500000000E+03 0.  0.
        -13    1    3    3    0    0  0.34495645189E+02 -0.61583652535E-01 -0.37773069246E+02  0.51154366909E+02  0.10566000000E+00 0.  1.
         23    2    1    0    0    0  0.14548847566E+02  0.23753836647E+02 -0.43118617310E+01  0.96813019450E+02  0.92618868825E+02 0.  0.
         13    1    3    3    0    0 -0.19946797623E+02  0.23815420300E+02  0.33461207515E+02  0.45658652541E+02  0.10566000000E+00 0. -1.
         22    1    1    0    0    0 -0.14548847566E+02 -0.23753836647E+02  0.43118617310E+01  0.28186980550E+02  0.00000000000E+00 0. -1.
</event>
<event>
 5    1  0.9034917E-005  0.9118800E+02  0.7818608E-02  0.1130116E+00
         25   -1    0    0    0    0  0.00000000000E+00  0.00000000000E+00  0.99999998245E-14  0.12500000000E+03  0.12500000000E+03 0.  0.
        -13    1    3    3    0    0  0.13650144996E+02  0.55257110796E+02 -0.93724872279E+01  0.57684741768E+02  0.10566000000E+00 0. -1.
         23    2    1    0    0    0 -0.10964065461E+02  0.27189183657E+02 -0.35162497733E+01  0.95473292567E+02  0.90792748289E+02 0.  0.
         13    1    3    3    0    0 -0.24614210457E+02 -0.28067927140E+02  0.58562374545E+01  0.37788550799E+02  0.10566000000E+00 0.  1.
         22    1    1    0    0    0  0.10964065461E+02 -0.27189183657E+02  0.35162497733E+01  0.29526707433E+02  0.00000000000E+00 0. -1.
</event>
<event>
 5    1  0.9034917E-005  0.9118800E+02  0.7818608E-02  0.1130116E+00
         25   -1    0    0    0    0  0.00000000000E+00  0.00000000000E+00  0.99999998245E-14  0.12500000000E+03  0.12500000000E+03 0.  0.
        -13    1    3    3    0    0 -0.21567838458E+02 -0.34471363632E+02 -0.20919397339E+02  0.45728316342E+02  0.10566000000E+00 0.  1.
         23    2    1    0    0    0  0.22676138231E+02 -0.16676488511E+02 -0.12698042818E+02  0.94120349654E+02  0.88910558504E+02 0.  0.
         13    1    3    3    0    0  0.44243976689E+02  0.17794875121E+02  0.82213545214E+01  0.48392033312E+02  0.10566000000E+00 0. -1.
         22    1    1    0    0    0 -0.22676138231E+02  0.16676488511E+02  0.12698042818E+02  0.30879650346E+02  0.00000000000E+00 0. -1.
</event>
<event>
 5    1  0.9034917E-005  0.9118800E+02  0.7818608E-02  0.1130116E+00
         25   -1    0    0    0    0  0.00000000000E+00  0.00000000000E+00  0.99999998245E-14  0.12500000000E+03  0.12500000000E+03 0.  0.
        -13    1    3    3    0    0  0.24250366511E+02  0.13917880202E+02 -0.11640241563E+01  0.27984884875E+02  0.10566000000E+00 0. -1.
         23    2    1    0    0    0 -0.27554074986E+02 -0.37913272899E+01 -0.24911466404E+02  0.87661248422E+02  0.79311487853E+02 0.  0.
         13    1    3    3    0    0 -0.51804441497E+02 -0.17709207492E+02 -0.23747442248E+02  0.59676363547E+02  0.10566000000E+00 0.  1.
         22    1    1    0    0    0  0.27554074986E+02  0.37913272899E+01  0.24911466404E+02  0.37338751578E+02  0.00000000000E+00 0.  1.
</event>
<event>
 5    1  0.9034917E-005  0.9118800E+02  0.7818608E-02  0.1130116E+00
         25   -1    0    0    0    0  0.00000000000E+00  0.00000000000E+00  0.99999998245E-14  0.12500000000E+03  0.12500000000E+03 0.  0.
        -13    1    3    3    0    0 -0.51628213716E+02  0.33914686559E+02 -0.72566569577E+01  0.62196050117E+02  0.10566000000E+00 0. -1.
         23    2    1    0    0    0 -0.24562669956E+02  0.21248223035E+02 -0.46205613484E+01  0.92195102124E+02  0.86161334315E+02 0.  0.
         13    1    3    3    0    0  0.27065543760E+02 -0.12666463524E+02  0.26360956092E+01  0.29999052007E+02  0.10566000000E+00 0.  1.
         22    1    1    0    0    0  0.24562669956E+02 -0.21248223035E+02  0.46205613484E+01  0.32804897876E+02  0.00000000000E+00 0. -1.
</event>
<event>
 5    1  0.9034917E-005  0.9118800E+02  0.7818608E-02  0.1130116E+00
         25   -1    0    0    0    0  0.00000000000E+00  0.00000000000E+00  0.99999998245E-14  0.12500000000E+03  0.12500000000E+03 0.  0.
        -13    1    3    3    0    0 -0.46823638052E+02 -0.64316291339E+01 -0.24380879750E+02  0.53181363232E+02  0.10566000000E+00 0. -1.
         23    2    1    0    0    0 -0.25518432717E+02  0.12878411415E+02  0.68225005581E+01  0.95613091302E+02  0.90985014291E+02 0.  0.
         13    1    3    3    0    0  0.21305205335E+02  0.19310040549E+02  0.31203380308E+02  0.42431728071E+02  0.10566000000E+00 0.  1.
         22    1    1    0    0    0  0.25518432717E+02 -0.12878411415E+02 -0.68225005581E+01  0.29386908698E+02  0.00000000000E+00 0. -1.
</event>
<event>
 5    1  0.9034917E-005  0.9118800E+02  0.7818608E-02  0.1130116E+00
         25   -1    0    0    0    0  0.00000000000E+00  0.00000000000E+00  0.99999998245E-14  0.12500000000E+03  0.12500000000E+03 0.  0.
        -13    1    3    3    0    0 -0.56913733250E+02  0.81553941140E+01  0.18613192886E+02  0.60432984363E+02  0.10566000000E+00 0. -1.
         23    2    1    0    0    0 -0.24398202212E+02  0.14385841383E+02  0.49579315534E+01  0.96245769203E+02  0.91850107788E+02 0.  0.
         13    1    3    3    0    0  0.32515531038E+02  0.62304472691E+01 -0.13655261332E+02  0.35812784840E+02  0.10566000000E+00 0.  1.
         22    1    1    0    0    0  0.24398202212E+02 -0.14385841383E+02 -0.49579315534E+01  0.28754230797E+02  0.00000000000E+00 0. -1.
</event>
<event>
 5    1  0.9034917E-005  0.9118800E+02  0.7818608E-02  0.1130116E+00
         25   -1    0    0    0    0  0.00000000000E+00  0.00000000000E+00  0.99999998245E-14  0.12500000000E+03  0.12500000000E+03 0.  0.
        -13    1    3    3    0    0  0.13714436004E+02  0.18133128084E+02 -0.35073216795E+02  0.41797581143E+02  0.10566000000E+00 0. -1.
         23    2    1    0    0    0  0.12332143444E+02  0.20579659374E+02  0.18038368916E+02  0.94983556256E+02  0.90115975632E+02 0.  0.
         13    1    3    3    0    0 -0.13822925599E+01  0.24465312897E+01  0.53111585710E+02  0.53185975113E+02  0.10566000000E+00 0.  1.
         22    1    1    0    0    0 -0.12332143444E+02 -0.20579659374E+02 -0.18038368916E+02  0.30016443744E+02  0.00000000000E+00 0.  1.
</event>
<event>
 5    1  0.9034917E-005  0.9118800E+02  0.7818608E-02  0.1130116E+00
         25   -1    0    0    0    0  0.00000000000E+00  0.00000000000E+00  0.99999998245E-14  0.12500000000E+03  0.12500000000E+03 0.  0.
        -13    1    3    3    0    0 -0.16193699812E+02  0.34929769057E+02  0.18703068072E+02  0.42803511530E+02  0.10566000000E+00 0.  1.
         23    2    1    0    0    0 -0.23977104866E+02 -0.15650150642E+02  0.37230965829E+01  0.96126305726E+02  0.91687384254E+02 0.  0.
         13    1    3    3    0    0 -0.77834050545E+01 -0.50579919699E+02 -0.14979971489E+02  0.53322794196E+02  0.10566000000E+00 0. -1.
         22    1    1    0    0    0  0.23977104866E+02  0.15650150642E+02 -0.37230965829E+01  0.28873694274E+02  0.00000000000E+00 0. -1.
</event>
<event>
 5    1  0.9034917E-005  0.9118800E+02  0.7818608E-02  0.1130116E+00
         25   -1    0    0    0    0  0.00000000000E+00  0.00000000000E+00  0.99999998245E-14  0.12500000000E+03  0.12500000000E+03 0.  0.
        -13    1    3    3    0    0 -0.39562193133E+02  0.11086870736E+02  0.11087180482E+02  0.42556110763E+02  0.10566000000E+00 0.  1.
         23    2    1    0    0    0  0.72842873636E+01  0.98668715274E+01  0.29613157770E+02  0.92947619289E+02  0.87246230991E+02 0.  0.
         13    1    3    3    0    0  0.46846480497E+02 -0.12199992083E+01  0.18525977289E+02  0.50391508526E+02  0.10566000000E+00 0. -1.
         22    1    1    0    0    0 -0.72842873636E+01 -0.98668715274E+01 -0.29613157770E+02  0.32052380711E+02  0.00000000000E+00 0. -1.
</event>
<event>
 5    1  0.9034917E-005  0.9118800E+02  0.7818608E-02  0.1130116E+00
         25   -1    0    0    0    0  0.00000000000E+00  0.00000000000E+00  0.99999998245E-14  0.12500000000E+03  0.12500000000E+03 0.  0.
        -13    1    3    3    0    0 -0.63497676545E+01 -0.26133768562E+02  0.43006133441E+02  0.50723092237E+02  0.10566000000E+00 0.  1.
         23    2    1    0    0    0  0.13780374693E+02  0.87184228370E+01  0.25764421607E+02  0.94508771028E+02  0.89454976145E+02 0.  0.
         13    1    3    3    0    0  0.20130142347E+02  0.34852191398E+02 -0.17241711834E+02  0.43785678791E+02  0.10566000000E+00 0. -1.
         22    1    1    0    0    0 -0.13780374693E+02 -0.87184228370E+01 -0.25764421607E+02  0.30491228972E+02  0.00000000000E+00 0.  1.
</event>
<event>
 5    1  0.9034917E-005  0.9118800E+02  0.7818608E-02  0.1130116E+00
         25   -1    0    0    0    0  0.00000000000E+00  0.00000000000E+00  0.99999998245E-14  0.12500000000E+03  0.12500000000E+03 0.  0.
        -13    1    3    3    0    0 -0.26785604112E+02  0.18775115233E+02 -0.54980971519E+01  0.33169470542E+02  0.10566000000E+00 0.  1.
         23    2    1    0    0    0  0.17063995887E+02 -0.24457796758E+02  0.14752799444E+01  0.95141329086E+02  0.90334557460E+02 0.  0.
         13    1    3    3    0    0  0.43849599999E+02 -0.43232911991E+02  0.69733770963E+01  0.61971858544E+02  0.10566000000E+00 0. -1.
         22    1    1    0    0    0 -0.17063995887E+02  0.24457796758E+02 -0.14752799444E+01  0.29858670914E+02  0.00000000000E+00 0. -1.
</event>
<event>
 5    1  0.9034917E-005  0.9118800E+02  0.7818608E-02  0.1130116E+00
         25   -1    0    0    0    0  0.00000000000E+00  0.00000000000E+00  0.99999998245E-14  0.12500000000E+03  0.12500000000E+03 0.  0.
        -13    1    3    3    0    0 -0.31599339561E+02 -0.72009285400E+01  0.19380120118E+02  0.37762042481E+02  0.10566000000E+00 0. -1.
         23    2    1    0    0    0 -0.16116117328E+02  0.26227656329E+02 -0.17249282046E+02  0.89713218830E+02  0.82482147810E+02 0.  0.
         13    1    3    3    0    0  0.15483222233E+02  0.33428584869E+02 -0.36629402164E+02  0.51951176349E+02  0.10566000000E+00 0.  1.
         22    1    1    0    0    0  0.16116117328E+02 -0.26227656329E+02  0.17249282046E+02  0.35286781170E+02  0.00000000000E+00 0.  1.
</event>
<event>
 5    1  0.9034917E-005  0.9118800E+02  0.7818608E-02  0.1130116E+00
         25   -1    0    0    0    0  0.00000000000E+00  0.00000000000E+00  0.99999998245E-14  0.12500000000E+03  0.12500000000E+03 0.  0.
        -13    1    3    3    0    0  0.21554625960E+02 -0.91151384276E+01 -0.37456339213E+02  0.44166459674E+02  0.10566000000E+00 0. -1.
         23    2    1    0    0    0  0.19028565535E+02  0.18939283666E+02  0.74158871396E+01  0.97147205631E+02  0.93068799325E+02 0.  0.
         13    1    3    3    0    0 -0.25260604253E+01  0.28054422094E+02  0.44872226353E+02  0.52980745957E+02  0.10566000000E+00 0.  1.
         22    1    1    0    0    0 -0.19028565535E+02 -0.18939283666E+02 -0.74158871396E+01  0.27852794369E+02  0.00000000000E+00 0.  1.
</event>
<event>
 5    1  0.9034917E-005  0.9118800E+02  0.7818608E-02  0.1130116E+00
         25   -1    0    0    0    0  0.00000000000E+00  0.00000000000E+00  0.99999998245E-14  0.12500000000E+03  0.12500000000E+03 0.  0.
        -13    1    3    3    0    0 -0.29203279856E+02  0.17577652156E+02 -0.60202502243E+01  0.34613003141E+02  0.10566000000E+00 0.  1.
         23    2    1    0    0    0  0.22447238525E+02 -0.39105862996E+01  0.18458250913E+02  0.95676319648E+02  0.91071839292E+02 0.  0.
         13    1    3    3    0    0  0.51650518381E+02 -0.21488238455E+02  0.24478501137E+02  0.61063316507E+02  0.10566000000E+00 0. -1.
         22    1    1    0    0    0 -0.22447238525E+02  0.39105862996E+01 -0.18458250913E+02  0.29323680352E+02  0.00000000000E+00 0. -1.
</event>
<event>
 5    1  0.9034917E-005  0.9118800E+02  0.7818608E-02  0.1130116E+00
         25   -1    0    0    0    0  0.00000000000E+00  0.00000000000E+00  0.99999998245E-14  0.12500000000E+03  0.12500000000E+03 0.  0.
        -13    1    3    3    0    0  0.18061585662E+02 -0.47227601988E+02  0.29353114207E+02  0.58466090547E+02  0.10566000000E+00 0.  1.
         23    2    1    0    0    0  0.24037028881E+02 -0.18606401933E+02  0.13311914228E+02  0.91815907264E+02  0.85609443497E+02 0.  0.
         13    1    3    3    0    0  0.59754432191E+01  0.28621200055E+02 -0.16041199979E+02  0.33349816717E+02  0.10566000000E+00 0. -1.
         22    1    1    0    0    0 -0.24037028881E+02  0.18606401933E+02 -0.13311914228E+02  0.33184092736E+02  0.00000000000E+00 0.  1.
</event>
<event>
 5    1  0.9034917E-005  0.9118800E+02  0.7818608E-02  0.1130116E+00
         25   -1    0    0    0    0  0.00000000000E+00  0.00000000000E+00  0.99999998245E-14  0.12500000000E+03  0.12500000000E+03 0.  0.
        -13    1    3    3    0    0  0.24876907888E+02  0.27097040457E+02  0.41833277418E+02  0.55705874118E+02  0.10566000000E+00 0. -1.
         23    2    1    0    0    0  0.34283407925E+01 -0.35824613048E+01  0.29451199747E+02  0.95134288621E+02  0.90324814726E+02 0.  0.
         13    1    3    3    0    0 -0.21448567095E+02 -0.30679501762E+02 -0.12382077671E+02  0.39428414504E+02  0.10566000000E+00 0.  1.
         22    1    1    0    0    0 -0.34283407925E+01  0.35824613048E+01 -0.29451199747E+02  0.29865711379E+02  0.00000000000E+00 0. -1.
</event>
<event>
 5    1  0.9034917E-005  0.9118800E+02  0.7818608E-02  0.1130116E+00
         25   -1    0    0    0    0  0.00000000000E+00  0.00000000000E+00  0.99999998245E-14  0.12500000000E+03  0.12500000000E+03 0.  0.
        -13    1    3    3    0    0 -0.26899985549E+02 -0.46296353768E+02  0.28150169006E+02  0.60493014257E+02  0.10566000000E+00 0. -1.
         23    2    1    0    0    0 -0.14207499628E+02 -0.26597985936E+02  0.32745730193E+01  0.94668024627E+02  0.89677233213E+02 0.  0.
         13    1    3    3    0    0  0.12692485921E+02  0.19698367831E+02 -0.24875595987E+02  0.34175010370E+02  0.10566000000E+00 0.  1.
         22    1    1    0    0    0  0.14207499628E+02  0.26597985936E+02 -0.32745730193E+01  0.30331975373E+02  0.00000000000E+00 0. -1.
</event>
<event>
 5    1  0.9034917E-005  0.9118800E+02  0.7818608E-02  0.1130116E+00
         25   -1    0    0    0    0  0.00000000000E+00  0.00000000000E+00  0.99999998245E-14  0.12500000000E+03  0.12500000000E+03 0.  0.
        -13    1    3    3    0    0  0.39032628053E+02  0.79149312958E+01  0.38511701998E+01  0.40012933735E+02  0.10566000000E+00 0.  1.
         23    2    1    0    0    0 -0.29757272253E+01 -0.28892870217E+02  0.10917929904E+01  0.95933783979E+02  0.91424537158E+02 0.  0.
         13    1    3    3    0    0 -0.42008355278E+02 -0.36807801512E+02 -0.27593772094E+01  0.55920850244E+02  0.10566000000E+00 0. -1.
         22    1    1    0    0    0  0.29757272253E+01  0.28892870217E+02 -0.10917929904E+01  0.29066216021E+02  0.00000000000E+00 0. -1.
</event>
<event>
 5    1  0.9034917E-005  0.9118800E+02  0.7818608E-02  0.1130116E+00
         25   -1    0    0    0    0  0.00000000000E+00  0.00000000000E+00  0.99999998245E-14  0.12500000000E+03  0.12500000000E+03 0.  0.
        -13    1    3    3    0    0 -0.26002780508E+02 -0.53808732559E+02  0.84931286335E+01  0.60362808846E+02  0.10566000000E+00 0.  1.
         23    2    1    0    0    0 -0.21851490164E+02 -0.19993753733E+02  0.75031436746E+01  0.94446195397E+02  0.89367493247E+02 0.  0.
         13    1    3    3    0    0  0.41512903435E+01  0.33814978826E+02 -0.98998495897E+00  0.34083386551E+02  0.10566000000E+00 0. -1.
         22    1    1    0    0    0  0.21851490164E+02  0.19993753733E+02 -0.75031436746E+01  0.30553804603E+02  0.00000000000E+00 0. -1.
</event>
<event>
 5    1  0.9034917E-005  0.9118800E+02  0.7818608E-02  0.1130116E+00
         25   -1    0    0    0    0  0.00000000000E+00  0.00000000000E+00  0.99999998245E-14  0.12500000000E+03  0.12500000000E+03 0.  0.
        -13    1    3    3    0    0 -0.96207538226E-01 -0.38382302272E+01  0.53305897515E+02  0.53444093603E+02  0.10566000000E+00 0. -1.
         23    2    1    0    0    0 -0.70405826104E+01 -0.23278959820E+02  0.16608386223E+02  0.95549732315E+02  0.90897926702E+02 0.  0.
         13    1    3    3    0    0 -0.69443750722E+01 -0.19440729593E+02 -0.36697511292E+02  0.42105638711E+02  0.10566000000E+00 0.  1.
         22    1    1    0    0    0  0.70405826104E+01  0.23278959820E+02 -0.16608386223E+02  0.29450267685E+02  0.00000000000E+00 0. -1.
</event>
<event>
 5    1  0.9034917E-005  0.9118800E+02  0.7818608E-02  0.1130116E+00
         25   -1    0    0    0    0  0.00000000000E+00  0.00000000000E+00  0.99999998245E-14  0.12500000000E+03  0.12500000000E+03 0.  0.
        -13    1    3    3    0    0  0.41294176752E+02 -0.43257679463E+02 -0.53326495843E+01  0.60040687719E+02  0.10566000000E+00 0. -1.
         23    2    1    0    0    0  0.94301581364E+01 -0.27730501884E+02 -0.27706086332E+01  0.95579175922E+02  0.90938407621E+02 0.  0.
         13    1    3    3    0    0 -0.31864018616E+02  0.15527177579E+02  0.25620409511E+01  0.35538488203E+02  0.10566000000E+00 0.  1.
         22    1    1    0    0    0 -0.94301581364E+01  0.27730501884E+02  0.27706086332E+01  0.29420824078E+02  0.00000000000E+00 0. -1.
</event>
<event>
 5    1  0.9034917E-005  0.9118800E+02  0.7818608E-02  0.1130116E+00
         25   -1    0    0    0    0  0.00000000000E+00  0.00000000000E+00  0.99999998245E-14  0.12500000000E+03  0.12500000000E+03 0.  0.
        -13    1    3    3    0    0  0.19603529437E+02 -0.38176425906E+02  0.18803523536E+02  0.46854258320E+02  0.10566000000E+00 0. -1.
         23    2    1    0    0    0  0.23898464593E+02  0.10641398505E+02  0.16079106221E+01  0.98790052487E+02  0.95249740796E+02 0.  0.
         13    1    3    3    0    0  0.42949351559E+01  0.48817824411E+02 -0.17195612914E+02  0.51935794167E+02  0.10566000000E+00 0.  1.
         22    1    1    0    0    0 -0.23898464593E+02 -0.10641398505E+02 -0.16079106221E+01  0.26209947513E+02  0.00000000000E+00 0. -1.
</event>
<event>
 5    1  0.9034917E-005  0.9118800E+02  0.7818608E-02  0.1130116E+00
         25   -1    0    0    0    0  0.00000000000E+00  0.00000000000E+00  0.99999998245E-14  0.12500000000E+03  0.12500000000E+03 0.  0.
        -13    1    3    3    0    0 -0.34455834092E+02  0.10031678489E+01  0.11301410728E+02  0.36275941024E+02  0.10566000000E+00 0.  1.
         23    2    1    0    0    0  0.10464818926E+02  0.48273668116E+01 -0.27134419938E+02  0.95519622613E+02  0.90856511342E+02 0.  0.
         13    1    3    3    0    0  0.44920653017E+02  0.38241989627E+01 -0.38435830666E+02  0.59243681589E+02  0.10566000000E+00 0. -1.
         22    1    1    0    0    0 -0.10464818926E+02 -0.48273668116E+01  0.27134419938E+02  0.29480377387E+02  0.00000000000E+00 0. -1.
</event>
<event>
 5    1  0.9034917E-005  0.9118800E+02  0.7818608E-02  0.1130116E+00
         25   -1    0    0    0    0  0.00000000000E+00  0.00000000000E+00  0.99999998245E-14  0.12500000000E+03  0.12500000000E+03 0.  0.
        -13    1    3    3    0    0 -0.21087913671E+02  0.20014944298E+02 -0.32385784984E+02  0.43521814431E+02  0.10566000000E+00 0.  1.
         23    2    1    0    0    0  0.26995157580E+01  0.22122976122E+02  0.16057014238E+02  0.97531087316E+02  0.93582967622E+02 0.  0.
         13    1    3    3    0    0  0.23787429429E+02  0.21080318236E+01  0.48442799223E+02  0.54009272885E+02  0.10566000000E+00 0. -1.
         22    1    1    0    0    0 -0.26995157580E+01 -0.22122976122E+02 -0.16057014238E+02  0.27468912684E+02  0.00000000000E+00 0. -1.
</event>
<event>
 5    1  0.9034917E-005  0.9118800E+02  0.7818608E-02  0.1130116E+00
         25   -1    0    0    0    0  0.00000000000E+00  0.00000000000E+00  0.99999998245E-14  0.12500000000E+03  0.12500000000E+03 0.  0.
        -13    1    3    3    0    0 -0.10842589844E+01 -0.39441158755E+02 -0.20217271459E+02  0.44334296552E+02  0.10566000000E+00 0.  1.
         23    2    1    0    0    0  0.23066210644E+02 -0.16450688419E+02  0.15092119198E+02  0.92899419244E+02  0.87177146152E+02 0.  0.
         13    1    3    3    0    0  0.24150469628E+02  0.22990470336E+02  0.35309390657E+02  0.48565122693E+02  0.10566000000E+00 0. -1.
         22    1    1    0    0    0 -0.23066210644E+02  0.16450688419E+02 -0.15092119198E+02  0.32100580756E+02  0.00000000000E+00 0. -1.
</event>
<event>
 5    1  0.9034917E-005  0.9118800E+02  0.7818608E-02  0.1130116E+00
         25   -1    0    0    0    0  0.00000000000E+00  0.00000000000E+00  0.99999998245E-14  0.12500000000E+03  0.12500000000E+03 0.  0.
        -13    1    3    3    0    0 -0.98909437247E+01  0.24284483355E+02 -0.33549715280E+02  0.42581233648E+02  0.10566000000E+00 0. -1.
         23    2    1    0    0    0  0.16012082606E+02  0.26223401391E+02  0.94815887486E+01  0.92844843414E+02  0.87098856786E+02 0.  0.
         13    1    3    3    0    0  0.25903026331E+02  0.19389180365E+01  0.43031304029E+02  0.50263609766E+02  0.10566000000E+00 0.  1.
         22    1    1    0    0    0 -0.16012082606E+02 -0.26223401391E+02 -0.94815887486E+01  0.32155156586E+02  0.00000000000E+00 0.  1.
</event>
<event>
 5    1  0.9034917E-005  0.9118800E+02  0.7818608E-02  0.1130116E+00
         25   -1    0    0    0    0  0.00000000000E+00  0.00000000000E+00  0.99999998245E-14  0.12500000000E+03  0.12500000000E+03 0.  0.
        -13    1    3    3    0    0 -0.30051248790E+02  0.20866858244E+02 -0.29540597543E+02  0.47022987932E+02  0.10566000000E+00 0. -1.
         23    2    1    0    0    0  0.12420634742E+02 -0.46545908220E+01 -0.24896832609E+02  0.96790255990E+02  0.92588141776E+02 0.  0.
         13    1    3    3    0    0  0.42471883532E+02 -0.25521449066E+02  0.46437649337E+01  0.49767268058E+02  0.10566000000E+00 0.  1.
         22    1    1    0    0    0 -0.12420634742E+02  0.46545908220E+01  0.24896832609E+02  0.28209744010E+02  0.00000000000E+00 0.  1.
</event>
<event>
 5    1  0.9034917E-005  0.9118800E+02  0.7818608E-02  0.1130116E+00
         25   -1    0    0    0    0  0.00000000000E+00  0.00000000000E+00  0.99999998245E-14  0.12500000000E+03  0.12500000000E+03 0.  0.
        -13    1    3    3    0    0 -0.19045795890E+02  0.19216509360E+02 -0.14499165734E+02  0.30696148685E+02  0.10566000000E+00 0.  1.
         23    2    1    0    0    0  0.29431708666E+02 -0.15349677719E+02 -0.77250719477E+00  0.91797065665E+02  0.85581928094E+02 0.  0.
         13    1    3    3    0    0  0.48477504556E+02 -0.34566187079E+02  0.13726658539E+02  0.61100916980E+02  0.10566000000E+00 0. -1.
         22    1    1    0    0    0 -0.29431708666E+02  0.15349677719E+02  0.77250719477E+00  0.33202934335E+02  0.00000000000E+00 0. -1.
</event>
<event>
 5    1  0.9034917E-005  0.9118800E+02  0.7818608E-02  0.1130116E+00
         25   -1    0    0    0    0  0.00000000000E+00  0.00000000000E+00  0.99999998245E-14  0.12500000000E+03  0.12500000000E+03 0.  0.
        -13    1    3    3    0    0 -0.50338535046E+00 -0.42121979133E+02  0.53645055667E+01  0.42465322405E+02  0.10566000000E+00 0.  1.
         23    2    1    0    0    0 -0.12497794802E+02  0.41569905330E+01 -0.23319311643E+02  0.98218182647E+02  0.94496273270E+02 0.  0.
         13    1    3    3    0    0 -0.11994409451E+02  0.46278969666E+02 -0.28683817210E+02  0.55752860243E+02  0.10566000000E+00 0. -1.
         22    1    1    0    0    0  0.12497794802E+02 -0.41569905330E+01  0.23319311643E+02  0.26781817353E+02  0.00000000000E+00 0. -1.
</event>
<event>
 5    1  0.9034917E-005  0.9118800E+02  0.7818608E-02  0.1130116E+00
         25   -1    0    0    0    0  0.00000000000E+00  0.00000000000E+00  0.99999998245E-14  0.12500000000E+03  0.12500000000E+03 0.  0.
        -13    1    3    3    0    0 -0.40785657550E+02 -0.28312876989E+02 -0.32473489316E+02  0.59326448887E+02  0.10566000000E+00 0.  1.
         23    2    1    0    0    0 -0.26376028136E+02 -0.12000863558E+02 -0.31405824143E+01  0.95852464182E+02  0.91313285153E+02 0.  0.
         13    1    3    3    0    0  0.14409629414E+02  0.16312013431E+02  0.29332906901E+02  0.36526015295E+02  0.10566000000E+00 0. -1.
         22    1    1    0    0    0  0.26376028136E+02  0.12000863558E+02  0.31405824143E+01  0.29147535818E+02  0.00000000000E+00 0.  1.
</event>
<event>
 5    1  0.9034917E-005  0.9118800E+02  0.7818608E-02  0.1130116E+00
         25   -1    0    0    0    0  0.00000000000E+00  0.00000000000E+00  0.99999998245E-14  0.12500000000E+03  0.12500000000E+03 0.  0.
        -13    1    3    3    0    0  0.29107712039E+02 -0.10921563606E+01  0.49260607403E+02  0.57228230022E+02  0.10566000000E+00 0. -1.
         23    2    1    0    0    0  0.23119014272E+02  0.15361037447E+02  0.37597162993E+02  0.78266746770E+02  0.62782853491E+02 0.  0.
         13    1    3    3    0    0 -0.59886977666E+01  0.16453193808E+02 -0.11663444411E+02  0.21038516748E+02  0.10566000000E+00 0.  1.
         22    1    1    0    0    0 -0.23119014272E+02 -0.15361037447E+02 -0.37597162993E+02  0.46733253230E+02  0.00000000000E+00 0. -1.
</event>
<event>
 5    1  0.9034917E-005  0.9118800E+02  0.7818608E-02  0.1130116E+00
         25   -1    0    0    0    0  0.00000000000E+00  0.00000000000E+00  0.99999998245E-14  0.12500000000E+03  0.12500000000E+03 0.  0.
        -13    1    3    3    0    0 -0.34688785916E+02 -0.12612658732E+02  0.79976981756E+01  0.37767252598E+02  0.10566000000E+00 0. -1.
         23    2    1    0    0    0  0.72869732287E+01  0.21900046529E+02 -0.15735097276E+02  0.97066054645E+02  0.92959742154E+02 0.  0.
         13    1    3    3    0    0  0.41975759145E+02  0.34512705261E+02 -0.23732795452E+02  0.59298802047E+02  0.10566000000E+00 0.  1.
         22    1    1    0    0    0 -0.72869732287E+01 -0.21900046529E+02  0.15735097276E+02  0.27933945355E+02  0.00000000000E+00 0.  1.
</event>
<event>
 5    1  0.9034917E-005  0.9118800E+02  0.7818608E-02  0.1130116E+00
         25   -1    0    0    0    0  0.00000000000E+00  0.00000000000E+00  0.99999998245E-14  0.12500000000E+03  0.12500000000E+03 0.  0.
        -13    1    3    3    0    0  0.31569661448E+02  0.19295904942E+02  0.65690218172E+01  0.37578433751E+02  0.10566000000E+00 0.  1.
         23    2    1    0    0    0 -0.18968705022E+02  0.74639672237E+01 -0.20476441258E+02  0.96106969292E+02  0.91661018557E+02 0.  0.
         13    1    3    3    0    0 -0.50538366469E+02 -0.11831937719E+02 -0.27045463075E+02  0.58528535541E+02  0.10566000000E+00 0. -1.
         22    1    1    0    0    0  0.18968705022E+02 -0.74639672237E+01  0.20476441258E+02  0.28893030708E+02  0.00000000000E+00 0. -1.
</event>
<event>
 5    1  0.9034917E-005  0.9118800E+02  0.7818608E-02  0.1130116E+00
         25   -1    0    0    0    0  0.00000000000E+00  0.00000000000E+00  0.99999998245E-14  0.12500000000E+03  0.12500000000E+03 0.  0.
        -13    1    3    3    0    0 -0.10288950007E+02  0.28078764486E+02 -0.96894297813E+01  0.31435262379E+02  0.10566000000E+00 0. -1.
         23    2    1    0    0    0 -0.28520208487E+02 -0.11716875616E+02  0.23387590910E+02  0.86300298775E+02  0.77136727269E+02 0.  0.
         13    1    3    3    0    0 -0.18231258480E+02 -0.39795640102E+02  0.33077020691E+02  0.54865036396E+02  0.10566000000E+00 0.  1.
         22    1    1    0    0    0  0.28520208487E+02  0.11716875616E+02 -0.23387590910E+02  0.38699701225E+02  0.00000000000E+00 0.  1.
</event>
<event>
 5    1  0.9034917E-005  0.9118800E+02  0.7818608E-02  0.1130116E+00
         25   -1    0    0    0    0  0.00000000000E+00  0.00000000000E+00  0.99999998245E-14  0.12500000000E+03  0.12500000000E+03 0.  0.
        -13    1    3    3    0    0  0.17633497893E+02 -0.17080909573E+02  0.55322410463E+01  0.25165742087E+02  0.10566000000E+00 0.  1.
         23    2    1    0    0    0 -0.27544214939E+02 -0.13689689885E+02 -0.29458727709E+02  0.82410000892E+02  0.70551401284E+02 0.  0.
         13    1    3    3    0    0 -0.45177712832E+02  0.33912196873E+01 -0.34990968755E+02  0.57244258805E+02  0.10566000000E+00 0. -1.
         22    1    1    0    0    0  0.27544214939E+02  0.13689689885E+02  0.29458727709E+02  0.42589999108E+02  0.00000000000E+00 0. -1.
</event>
<event>
 5    1  0.9034917E-005  0.9118800E+02  0.7818608E-02  0.1130116E+00
         25   -1    0    0    0    0  0.00000000000E+00  0.00000000000E+00  0.99999998245E-14  0.12500000000E+03  0.12500000000E+03 0.  0.
        -13    1    3    3    0    0  0.17345012886E+02  0.29126409610E+02 -0.59913000407E+01  0.34425340216E+02  0.10566000000E+00 0.  1.
         23    2    1    0    0    0 -0.59714024753E+00 -0.28374230288E+02  0.63646530171E+01  0.95914568441E+02  0.91398260981E+02 0.  0.
         13    1    3    3    0    0 -0.17942153134E+02 -0.57500639898E+02  0.12355953058E+02  0.61489228225E+02  0.10566000000E+00 0. -1.
         22    1    1    0    0    0  0.59714024753E+00  0.28374230288E+02 -0.63646530171E+01  0.29085431559E+02  0.00000000000E+00 0. -1.
</event>
<event>
 5    1  0.9034917E-005  0.9118800E+02  0.7818608E-02  0.1130116E+00
         25   -1    0    0    0    0  0.00000000000E+00  0.00000000000E+00  0.99999998245E-14  0.12500000000E+03  0.12500000000E+03 0.  0.
        -13    1    3    3    0    0 -0.39444537232E+02  0.12722350744E+02 -0.42115198007E+02  0.59088330431E+02  0.10566000000E+00 0. -1.
         23    2    1    0    0    0 -0.25725897508E+02 -0.31004990189E+01 -0.10432936873E+02  0.97066488431E+02  0.92960325450E+02 0.  0.
         13    1    3    3    0    0  0.13718639724E+02 -0.15822849763E+02  0.31682261134E+02  0.37978158000E+02  0.10566000000E+00 0.  1.
         22    1    1    0    0    0  0.25725897508E+02  0.31004990189E+01  0.10432936873E+02  0.27933511569E+02  0.00000000000E+00 0. -1.
</event>
<event>
 5    1  0.9034917E-005  0.9118800E+02  0.7818608E-02  0.1130116E+00
         25   -1    0    0    0    0  0.00000000000E+00  0.00000000000E+00  0.99999998245E-14  0.12500000000E+03  0.12500000000E+03 0.  0.
        -13    1    3    3    0    0 -0.15398042725E+02  0.30036022256E+02 -0.13393204421E+02  0.36313240580E+02  0.10566000000E+00 0. -1.
         23    2    1    0    0    0 -0.21491273362E+02 -0.24238880251E+02  0.23857565851E+00  0.92604706131E+02  0.86753539022E+02 0.  0.
         13    1    3    3    0    0 -0.60932306370E+01 -0.54274902507E+02  0.13631780080E+02  0.56291465551E+02  0.10566000000E+00 0.  1.
         22    1    1    0    0    0  0.21491273362E+02  0.24238880251E+02 -0.23857565851E+00  0.32395293869E+02  0.00000000000E+00 0.  1.
</event>
<event>
 5    1  0.9034917E-005  0.9118800E+02  0.7818608E-02  0.1130116E+00
         25   -1    0    0    0    0  0.00000000000E+00  0.00000000000E+00  0.99999998245E-14  0.12500000000E+03  0.12500000000E+03 0.  0.
        -13    1    3    3    0    0 -0.30458476499E+02  0.37598799150E+02 -0.12053172367E+01  0.48403020999E+02  0.10566000000E+00 0. -1.
         23    2    1    0    0    0  0.15177200251E+02  0.24190239840E+02 -0.45378642796E+01  0.96084479545E+02  0.91630343698E+02 0.  0.
         13    1    3    3    0    0  0.45635676750E+02 -0.13408559311E+02 -0.33325470430E+01  0.47681458546E+02  0.10566000000E+00 0.  1.
         22    1    1    0    0    0 -0.15177200251E+02 -0.24190239840E+02  0.45378642796E+01  0.28915520455E+02  0.00000000000E+00 0.  1.
</event>
<event>
 5    1  0.9034917E-005  0.9118800E+02  0.7818608E-02  0.1130116E+00
         25   -1    0    0    0    0  0.00000000000E+00  0.00000000000E+00  0.99999998245E-14  0.12500000000E+03  0.12500000000E+03 0.  0.
        -13    1    3    3    0    0 -0.19445842618E+02  0.24057360900E+02  0.30340445348E+02  0.43329564925E+02  0.10566000000E+00 0.  1.
         23    2    1    0    0    0  0.37636040912E+01 -0.21051055046E+02  0.21222688038E+02  0.94871705627E+02  0.89960693676E+02 0.  0.
         13    1    3    3    0    0  0.23209446710E+02 -0.45108415946E+02 -0.91177573106E+01  0.51542140702E+02  0.10566000000E+00 0. -1.
         22    1    1    0    0    0 -0.37636040912E+01  0.21051055046E+02 -0.21222688038E+02  0.30128294373E+02  0.00000000000E+00 0. -1.
</event>
<event>
 5    1  0.9034917E-005  0.9118800E+02  0.7818608E-02  0.1130116E+00
         25   -1    0    0    0    0  0.00000000000E+00  0.00000000000E+00  0.99999998245E-14  0.12500000000E+03  0.12500000000E+03 0.  0.
        -13    1    3    3    0    0  0.46189322336E+02  0.70358523225E+01 -0.23802580837E+02  0.52435967945E+02  0.10566000000E+00 0. -1.
         23    2    1    0    0    0  0.26688479695E+01  0.13887636382E+02 -0.24740881662E+02  0.96502624346E+02  0.92199002633E+02 0.  0.
         13    1    3    3    0    0 -0.43520474367E+02  0.68517840591E+01 -0.93830082556E+00  0.44066656401E+02  0.10566000000E+00 0.  1.
         22    1    1    0    0    0 -0.26688479695E+01 -0.13887636382E+02  0.24740881662E+02  0.28497375654E+02  0.00000000000E+00 0.  1.
</event>
<event>
 5    1  0.9034917E-005  0.9118800E+02  0.7818608E-02  0.1130116E+00
         25   -1    0    0    0    0  0.00000000000E+00  0.00000000000E+00  0.99999998245E-14  0.12500000000E+03  0.12500000000E+03 0.  0.
        -13    1    3    3    0    0  0.11553829000E+02 -0.56041902913E+01 -0.40736445087E+02  0.42712609798E+02  0.10566000000E+00 0.  1.
         23    2    1    0    0    0 -0.57546735400E+01  0.30160404644E+02 -0.10834995435E+02  0.92439849480E+02  0.86515677018E+02 0.  0.
         13    1    3    3    0    0 -0.17308502540E+02  0.35764594935E+02  0.29901449652E+02  0.49727239682E+02  0.10566000000E+00 0. -1.
         22    1    1    0    0    0  0.57546735400E+01 -0.30160404644E+02  0.10834995435E+02  0.32560150520E+02  0.00000000000E+00 0.  1.
</event>
<event>
 5    1  0.9034917E-005  0.9118800E+02  0.7818608E-02  0.1130116E+00
         25   -1    0    0    0    0  0.00000000000E+00  0.00000000000E+00  0.99999998245E-14  0.12500000000E+03  0.12500000000E+03 0.  0.
        -13    1    3    3    0    0  0.27947325929E+02  0.10980657247E+02 -0.40704178061E+02  0.50581312120E+02  0.10566000000E+00 0.  1.
         23    2    1    0    0    0  0.22250489378E+02  0.12260727818E+02  0.70053517910E+01  0.98646922800E+02  0.95061720477E+02 0.  0.
         13    1    3    3    0    0 -0.56968365513E+01  0.12800705714E+01  0.47709529852E+02  0.48065610680E+02  0.10566000000E+00 0. -1.
         22    1    1    0    0    0 -0.22250489378E+02 -0.12260727818E+02 -0.70053517910E+01  0.26353077200E+02  0.00000000000E+00 0. -1.
</event>
<event>
 5    1  0.9034917E-005  0.9118800E+02  0.7818608E-02  0.1130116E+00
         25   -1    0    0    0    0  0.00000000000E+00  0.00000000000E+00  0.99999998245E-14  0.12500000000E+03  0.12500000000E+03 0.  0.
        -13    1    3    3    0    0  0.11687071097E+02 -0.81622886972E+01  0.32965553710E+02  0.35915866731E+02  0.10566000000E+00 0.  1.
         23    2    1    0    0    0 -0.29869244620E+02  0.37963589337E+01 -0.62000419735E+01  0.94258747003E+02  0.89104919902E+02 0.  0.
         13    1    3    3    0    0 -0.41556315718E+02  0.11958647631E+02 -0.39165595683E+02  0.58342880272E+02  0.10566000000E+00 0. -1.
         22    1    1    0    0    0  0.29869244620E+02 -0.37963589337E+01  0.62000419735E+01  0.30741252997E+02  0.00000000000E+00 0. -1.
</event>
<event>
 5    1  0.9034917E-005  0.9118800E+02  0.7818608E-02  0.1130116E+00
         25   -1    0    0    0    0  0.00000000000E+00  0.00000000000E+00  0.99999998245E-14  0.12500000000E+03  0.12500000000E+03 0.  0.
        -13    1    3    3    0    0 -0.46548703734E+02 -0.32592995197E+02  0.12371962421E+02  0.58156356259E+02  0.10566000000E+00 0.  1.
         23    2    1    0    0    0 -0.10719140782E+02 -0.26105905469E+02 -0.49398455015E+00  0.96774793177E+02  0.92567263621E+02 0.  0.
         13    1    3    3    0    0  0.35829562952E+02  0.64870897276E+01 -0.12865946971E+02  0.38618436918E+02  0.10566000000E+00 0. -1.
         22    1    1    0    0    0  0.10719140782E+02  0.26105905469E+02  0.49398455015E+00  0.28225206823E+02  0.00000000000E+00 0.  1.
</event>
<event>
 5    1  0.9034917E-005  0.9118800E+02  0.7818608E-02  0.1130116E+00
         25   -1    0    0    0    0  0.00000000000E+00  0.00000000000E+00  0.99999998245E-14  0.12500000000E+03  0.12500000000E+03 0.  0.
        -13    1    3    3    0    0 -0.40967593597E+02 -0.30373915414E+02 -0.19253491552E+02  0.54512627562E+02  0.10566000000E+00 0. -1.
         23    2    1    0    0    0 -0.42853548026E+00 -0.27035018377E+02 -0.94909365418E+01  0.96344219820E+02  0.91983992928E+02 0.  0.
         13    1    3    3    0    0  0.40539058117E+02  0.33388970373E+01  0.97625550106E+01  0.41831592257E+02  0.10566000000E+00 0.  1.
         22    1    1    0    0    0  0.42853548026E+00  0.27035018377E+02  0.94909365418E+01  0.28655780180E+02  0.00000000000E+00 0. -1.
</event>
<event>
 5    1  0.9034917E-005  0.9118800E+02  0.7818608E-02  0.1130116E+00
         25   -1    0    0    0    0  0.00000000000E+00  0.00000000000E+00  0.99999998245E-14  0.12500000000E+03  0.12500000000E+03 0.  0.
        -13    1    3    3    0    0 -0.44034413230E+01  0.15172769886E+02 -0.41994358857E+02  0.44868035185E+02  0.10566000000E+00 0. -1.
         23    2    1    0    0    0 -0.10879881023E+02 -0.24723503225E+02 -0.10863099787E+02  0.95885907883E+02  0.91359055220E+02 0.  0.
         13    1    3    3    0    0 -0.64764397003E+01 -0.39896273112E+02  0.31131259069E+02  0.51017872698E+02  0.10566000000E+00 0.  1.
         22    1    1    0    0    0  0.10879881023E+02  0.24723503225E+02  0.10863099787E+02  0.29114092117E+02  0.00000000000E+00 0.  1.
</event>
<event>
 5    1  0.9034917E-005  0.9118800E+02  0.7818608E-02  0.1130116E+00
         25   -1    0    0    0    0  0.00000000000E+00  0.00000000000E+00  0.99999998245E-14  0.12500000000E+03  0.12500000000E+03 0.  0.
        -13    1    3    3    0    0  0.10457064595E+02 -0.38509147907E+02 -0.24249722417E+02  0.46694377326E+02  0.10566000000E+00 0.  1.
         23    2    1    0    0    0  0.22375164465E+02  0.59855612607E+01  0.50598513983E+01  0.10129183633E+03  0.98478216284E+02 0.  0.
         13    1    3    3    0    0  0.11918099870E+02  0.44494709168E+02  0.29309573815E+02  0.54597459004E+02  0.10566000000E+00 0. -1.
         22    1    1    0    0    0 -0.22375164465E+02 -0.59855612607E+01 -0.50598513983E+01  0.23708163670E+02  0.00000000000E+00 0.  1.
</event>
<event>
 5    1  0.9034917E-005  0.9118800E+02  0.7818608E-02  0.1130116E+00
         25   -1    0    0    0    0  0.00000000000E+00  0.00000000000E+00  0.99999998245E-14  0.12500000000E+03  0.12500000000E+03 0.  0.
        -13    1    3    3    0    0  0.15322189755E+02  0.43843310690E+02  0.32874881580E+02  0.56901444569E+02  0.10566000000E+00 0. -1.
         23    2    1    0    0    0  0.11725915063E+02  0.61103002247E+01  0.26563679293E+02  0.95327421573E+02  0.90591696051E+02 0.  0.
         13    1    3    3    0    0 -0.35962746921E+01 -0.37733010465E+02 -0.63112022863E+01  0.38425977004E+02  0.10566000000E+00 0.  1.
         22    1    1    0    0    0 -0.11725915063E+02 -0.61103002247E+01 -0.26563679293E+02  0.29672578427E+02  0.00000000000E+00 0. -1.
</event>
<event>
 5    1  0.9034917E-005  0.9118800E+02  0.7818608E-02  0.1130116E+00
         25   -1    0    0    0    0  0.00000000000E+00  0.00000000000E+00  0.99999998245E-14  0.12500000000E+03  0.12500000000E+03 0.  0.
        -13    1    3    3    0    0 -0.28352888493E+02  0.16930211818E+02 -0.29169483583E+01  0.33151743692E+02  0.10566000000E+00 0.  1.
         23    2    1    0    0    0  0.26051300301E+02 -0.13621293268E+02 -0.15274705691E+01  0.95562896813E+02  0.90916028308E+02 0.  0.
         13    1    3    3    0    0  0.54404188794E+02 -0.30551505086E+02  0.13894777892E+01  0.62411153121E+02  0.10566000000E+00 0. -1.
         22    1    1    0    0    0 -0.26051300301E+02  0.13621293268E+02  0.15274705691E+01  0.29437103187E+02  0.00000000000E+00 0. -1.
</event>
<event>
 5    1  0.9034917E-005  0.9118800E+02  0.7818608E-02  0.1130116E+00
         25   -1    0    0    0    0  0.00000000000E+00  0.00000000000E+00  0.99999998245E-14  0.12500000000E+03  0.12500000000E+03 0.  0.
        -13    1    3    3    0    0 -0.48833280752E+02 -0.21543640207E+02  0.19253089658E+02  0.56740729355E+02  0.10566000000E+00 0. -1.
         23    2    1    0    0    0 -0.26126897472E+02  0.87418758325E+01  0.63997361293E+01  0.96715873938E+02  0.92487666662E+02 0.  0.
         13    1    3    3    0    0  0.22706383281E+02  0.30285516039E+02 -0.12853353529E+02  0.39975144583E+02  0.10566000000E+00 0.  1.
         22    1    1    0    0    0  0.26126897472E+02 -0.87418758325E+01 -0.63997361293E+01  0.28284126062E+02  0.00000000000E+00 0. -1.
</event>
<event>
 5    1  0.9034917E-005  0.9118800E+02  0.7818608E-02  0.1130116E+00
         25   -1    0    0    0    0  0.00000000000E+00  0.00000000000E+00  0.99999998245E-14  0.12500000000E+03  0.12500000000E+03 0.  0.
        -13    1    3    3    0    0 -0.42257690865E+02  0.26220430488E+02 -0.30425096953E+02  0.58300266731E+02  0.10566000000E+00 0.  1.
         23    2    1    0    0    0 -0.17031926020E+02  0.13728090263E+01 -0.25864150090E+02  0.94001203758E+02  0.88742892332E+02 0.  0.
         13    1    3    3    0    0  0.25225764844E+02 -0.24847621462E+02  0.45609468632E+01  0.35700937027E+02  0.10566000000E+00 0. -1.
         22    1    1    0    0    0  0.17031926020E+02 -0.13728090263E+01  0.25864150090E+02  0.30998796242E+02  0.00000000000E+00 0.  1.
</event>
<event>
 5    1  0.9034917E-005  0.9118800E+02  0.7818608E-02  0.1130116E+00
         25   -1    0    0    0    0  0.00000000000E+00  0.00000000000E+00  0.99999998245E-14  0.12500000000E+03  0.12500000000E+03 0.  0.
        -13    1    3    3    0    0 -0.20641371324E+02 -0.40454669210E+02 -0.44371021564E+01  0.45632724120E+02  0.10566000000E+00 0. -1.
         23    2    1    0    0    0 -0.17087919196E+02  0.80261523595E+00  0.23753432924E+02  0.95727713630E+02  0.91142352436E+02 0.  0.
         13    1    3    3    0    0  0.35534521278E+01  0.41257284446E+02  0.28190535080E+02  0.50094989510E+02  0.10566000000E+00 0.  1.
         22    1    1    0    0    0  0.17087919196E+02 -0.80261523595E+00 -0.23753432924E+02  0.29272286370E+02  0.00000000000E+00 0.  1.
</event>
<event>
 4    1  0.9034917E-005  0.9118800E+02  0.7818608E-02  0.1130116E+00
         25   -1    0    0    0    0  0.00000000000E+00  0.00000000000E+00  0.99999998245E-14  0.12500000000E+03  0.12500000000E+03 0.  0.
        -13    1    1    0    0    0 -0.68119477929E+00  0.32807944265E+01  0.15320381756E+02  0.15682885563E+02  0.10566000000E+00 0.  1.
         13    1    1    0    0    0 -0.46735406639E+02  0.19518309573E+02 -0.23909671731E+02  0.56007554924E+02  0.10566000000E+00 0. -1.
         22    1    1    0    0    0  0.47416601418E+02 -0.22799103999E+02  0.85892899751E+01  0.53309559513E+02  0.00000000000E+00 0. -1.
</event>
<event>
 5    1  0.9034917E-005  0.9118800E+02  0.7818608E-02  0.1130116E+00
         25   -1    0    0    0    0  0.00000000000E+00  0.00000000000E+00  0.99999998245E-14  0.12500000000E+03  0.12500000000E+03 0.  0.
        -13    1    3    3    0    0  0.24812323246E+02  0.20817638862E+02  0.13080171734E+02  0.34930323922E+02  0.10566000000E+00 0.  1.
         23    2    1    0    0    0 -0.23809519162E+02 -0.15207600279E+02  0.78949721518E+01  0.95665806739E+02  0.91057408731E+02 0.  0.
         13    1    3    3    0    0 -0.48621842409E+02 -0.36025239140E+02 -0.51851995824E+01  0.60735482817E+02  0.10566000000E+00 0. -1.
         22    1    1    0    0    0  0.23809519162E+02  0.15207600279E+02 -0.78949721518E+01  0.29334193261E+02  0.00000000000E+00 0. -1.
</event>
<event>
 5    1  0.9034917E-005  0.9118800E+02  0.7818608E-02  0.1130116E+00
         25   -1    0    0    0    0  0.00000000000E+00  0.00000000000E+00  0.99999998245E-14  0.12500000000E+03  0.12500000000E+03 0.  0.
        -13    1    3    3    0    0 -0.43265391922E+02 -0.12122077680E+02 -0.40778722842E+02  0.60677461269E+02  0.10566000000E+00 0.  1.
         23    2    1    0    0    0 -0.12264617308E+02 -0.85320502845E+01 -0.25548588353E+02  0.95403596729E+02  0.90696742952E+02 0.  0.
         13    1    3    3    0    0  0.31000774613E+02  0.35900273958E+01  0.15230134489E+02  0.34726135459E+02  0.10566000000E+00 0. -1.
         22    1    1    0    0    0  0.12264617308E+02  0.85320502845E+01  0.25548588353E+02  0.29596403271E+02  0.00000000000E+00 0.  1.
</event>
<event>
 5    1  0.9034917E-005  0.9118800E+02  0.7818608E-02  0.1130116E+00
         25   -1    0    0    0    0  0.00000000000E+00  0.00000000000E+00  0.99999998245E-14  0.12500000000E+03  0.12500000000E+03 0.  0.
        -13    1    3    3    0    0  0.32749424561E+02  0.11257422062E+02 -0.42311801535E+02  0.54676814773E+02  0.10566000000E+00 0.  1.
         23    2    1    0    0    0 -0.31947884941E+01 -0.20619908322E+01 -0.29739069202E+02  0.95018827296E+02  0.90164886868E+02 0.  0.
         13    1    3    3    0    0 -0.35944213055E+02 -0.13319412894E+02  0.12572732333E+02  0.40342012522E+02  0.10566000000E+00 0. -1.
         22    1    1    0    0    0  0.31947884941E+01  0.20619908322E+01  0.29739069202E+02  0.29981172704E+02  0.00000000000E+00 0.  1.
</event>
<event>
 5    1  0.9034917E-005  0.9118800E+02  0.7818608E-02  0.1130116E+00
         25   -1    0    0    0    0  0.00000000000E+00  0.00000000000E+00  0.99999998245E-14  0.12500000000E+03  0.12500000000E+03 0.  0.
        -13    1    3    3    0    0 -0.25980615101E+02 -0.24738769081E+02  0.22568296094E+02  0.42383230284E+02  0.10566000000E+00 0. -1.
         23    2    1    0    0    0 -0.52799801331E+01  0.24050829721E+02  0.15629128589E+02  0.95835119391E+02  0.91289538545E+02 0.  0.
         13    1    3    3    0    0  0.20700634968E+02  0.48789598803E+02 -0.69391675045E+01  0.53451889107E+02  0.10566000000E+00 0.  1.
         22    1    1    0    0    0  0.52799801331E+01 -0.24050829721E+02 -0.15629128589E+02  0.29164880609E+02  0.00000000000E+00 0.  1.
</event>
<event>
 5    1  0.9034917E-005  0.9118800E+02  0.7818608E-02  0.1130116E+00
         25   -1    0    0    0    0  0.00000000000E+00  0.00000000000E+00  0.99999998245E-14  0.12500000000E+03  0.12500000000E+03 0.  0.
        -13    1    3    3    0    0  0.44855998324E+02  0.31195679765E+02  0.25894906357E+02  0.60463115706E+02  0.10566000000E+00 0.  1.
         23    2    1    0    0    0  0.28243431820E+02  0.61202211898E+01  0.10504749401E+02  0.94251043784E+02  0.89094112858E+02 0.  0.
         13    1    3    3    0    0 -0.16612566503E+02 -0.25075458576E+02 -0.15390156956E+02  0.33787928077E+02  0.10566000000E+00 0. -1.
         22    1    1    0    0    0 -0.28243431820E+02 -0.61202211898E+01 -0.10504749401E+02  0.30748956216E+02  0.00000000000E+00 0.  1.
</event>
<event>
 5    1  0.9034917E-005  0.9118800E+02  0.7818608E-02  0.1130116E+00
         25   -1    0    0    0    0  0.00000000000E+00  0.00000000000E+00  0.99999998245E-14  0.12500000000E+03  0.12500000000E+03 0.  0.
        -13    1    3    3    0    0 -0.44198501301E+01  0.31408558356E+02  0.45327887884E+02  0.55323242830E+02  0.10566000000E+00 0.  1.
         23    2    1    0    0    0  0.12774586244E+02  0.22653571180E+02  0.72655968028E+01  0.97996977247E+02  0.94203207544E+02 0.  0.
         13    1    3    3    0    0  0.17194436375E+02 -0.87549871761E+01 -0.38062291081E+02  0.42673734417E+02  0.10566000000E+00 0. -1.
         22    1    1    0    0    0 -0.12774586244E+02 -0.22653571180E+02 -0.72655968028E+01  0.27003022753E+02  0.00000000000E+00 0.  1.
</event>
<event>
 5    1  0.9034917E-005  0.9118800E+02  0.7818608E-02  0.1130116E+00
         25   -1    0    0    0    0  0.00000000000E+00  0.00000000000E+00  0.99999998245E-14  0.12500000000E+03  0.12500000000E+03 0.  0.
        -13    1    3    3    0    0 -0.26746545706E+02  0.13920584955E+02  0.16588700817E+02  0.34414481712E+02  0.10566000000E+00 0.  1.
         23    2    1    0    0    0  0.18523498788E+02 -0.22479756031E+02 -0.29996360920E+01  0.95717628934E+02  0.91128520418E+02 0.  0.
         13    1    3    3    0    0  0.45270044494E+02 -0.36400340986E+02 -0.19588336909E+02  0.61303147222E+02  0.10566000000E+00 0. -1.
         22    1    1    0    0    0 -0.18523498788E+02  0.22479756031E+02  0.29996360920E+01  0.29282371066E+02  0.00000000000E+00 0. -1.
</event>
<event>
 5    1  0.9034917E-005  0.9118800E+02  0.7818608E-02  0.1130116E+00
         25   -1    0    0    0    0  0.00000000000E+00  0.00000000000E+00  0.99999998245E-14  0.12500000000E+03  0.12500000000E+03 0.  0.
        -13    1    3    3    0    0  0.13841848685E+02 -0.38849704866E+02  0.18802068734E+01  0.41284896574E+02  0.10566000000E+00 0.  1.
         23    2    1    0    0    0  0.23803947984E+02  0.13876024339E+02 -0.89581102816E+01  0.96027258830E+02  0.91552251242E+02 0.  0.
         13    1    3    3    0    0  0.99620992988E+01  0.52725729205E+02 -0.10838317155E+02  0.54742362256E+02  0.10566000000E+00 0. -1.
         22    1    1    0    0    0 -0.23803947984E+02 -0.13876024339E+02  0.89581102816E+01  0.28972741170E+02  0.00000000000E+00 0. -1.
</event>
<event>
 5    1  0.9034917E-005  0.9118800E+02  0.7818608E-02  0.1130116E+00
         25   -1    0    0    0    0  0.00000000000E+00  0.00000000000E+00  0.99999998245E-14  0.12500000000E+03  0.12500000000E+03 0.  0.
        -13    1    3    3    0    0  0.82456991273E+01 -0.60609377302E+02 -0.74904045528E+01  0.61624714972E+02  0.10566000000E+00 0.  1.
         23    2    1    0    0    0  0.49479804356E+01 -0.25576825838E+02 -0.10438225170E+02  0.96935554967E+02  0.92784097461E+02 0.  0.
         13    1    3    3    0    0 -0.32977186917E+01  0.35032551464E+02 -0.29478206174E+01  0.35310839994E+02  0.10566000000E+00 0. -1.
         22    1    1    0    0    0 -0.49479804356E+01  0.25576825838E+02  0.10438225170E+02  0.28064445033E+02  0.00000000000E+00 0.  1.
</event>
<event>
 5    1  0.9034917E-005  0.9118800E+02  0.7818608E-02  0.1130116E+00
         25   -1    0    0    0    0  0.00000000000E+00  0.00000000000E+00  0.99999998245E-14  0.12500000000E+03  0.12500000000E+03 0.  0.
        -13    1    3    3    0    0  0.26886068718E+02 -0.41238101972E+02 -0.37496085104E+02  0.61882221256E+02  0.10566000000E+00 0. -1.
         23    2    1    0    0    0  0.13046003012E+02 -0.28175539609E+02 -0.18078568841E+02  0.89070988349E+02  0.81503049559E+02 0.  0.
         13    1    3    3    0    0 -0.13840065706E+02  0.13062562363E+02  0.19417516263E+02  0.27188767094E+02  0.10566000000E+00 0.  1.
         22    1    1    0    0    0 -0.13046003012E+02  0.28175539609E+02  0.18078568841E+02  0.35929011651E+02  0.00000000000E+00 0. -1.
</event>
<event>
 5    1  0.9034917E-005  0.9118800E+02  0.7818608E-02  0.1130116E+00
         25   -1    0    0    0    0  0.00000000000E+00  0.00000000000E+00  0.99999998245E-14  0.12500000000E+03  0.12500000000E+03 0.  0.
        -13    1    3    3    0    0  0.48701246256E+02 -0.38608135313E-01 -0.17559577768E+02  0.51770288901E+02  0.10566000000E+00 0. -1.
         23    2    1    0    0    0  0.84084205932E+01  0.11386015231E+02 -0.26829994064E+02  0.94665342244E+02  0.89673494194E+02 0.  0.
         13    1    3    3    0    0 -0.40292825663E+02  0.11424623366E+02 -0.92704162960E+01  0.42895053343E+02  0.10566000000E+00 0.  1.
         22    1    1    0    0    0 -0.84084205932E+01 -0.11386015231E+02  0.26829994064E+02  0.30334657756E+02  0.00000000000E+00 0. -1.
</event>
<event>
 5    1  0.9034917E-005  0.9118800E+02  0.7818608E-02  0.1130116E+00
         25   -1    0    0    0    0  0.00000000000E+00  0.00000000000E+00  0.99999998245E-14  0.12500000000E+03  0.12500000000E+03 0.  0.
        -13    1    3    3    0    0 -0.35825959792E+02  0.10948502716E+02  0.12453901528E+02  0.39477587744E+02  0.10566000000E+00 0.  1.
         23    2    1    0    0    0  0.16599632110E+02 -0.48087920493E+01  0.24000616092E+02  0.95424641339E+02  0.90725742403E+02 0.  0.
         13    1    3    3    0    0  0.52425591903E+02 -0.15757294765E+02  0.11546714563E+02  0.55947053595E+02  0.10566000000E+00 0. -1.
         22    1    1    0    0    0 -0.16599632110E+02  0.48087920493E+01 -0.24000616092E+02  0.29575358661E+02  0.00000000000E+00 0. -1.
</event>
<event>
 5    1  0.9034917E-005  0.9118800E+02  0.7818608E-02  0.1130116E+00
         25   -1    0    0    0    0  0.00000000000E+00  0.00000000000E+00  0.99999998245E-14  0.12500000000E+03  0.12500000000E+03 0.  0.
        -13    1    3    3    0    0 -0.37537436162E+01  0.32452472681E+02 -0.24768364534E+02  0.40996787923E+02  0.10566000000E+00 0. -1.
         23    2    1    0    0    0 -0.16948932696E+02  0.24305705102E+02  0.20579497486E+02  0.88923008207E+02  0.81275777768E+02 0.  0.
         13    1    3    3    0    0 -0.13195189080E+02 -0.81467675797E+01  0.45347862021E+02  0.47926220284E+02  0.10566000000E+00 0.  1.
         22    1    1    0    0    0  0.16948932696E+02 -0.24305705102E+02 -0.20579497486E+02  0.36076991793E+02  0.00000000000E+00 0.  1.
</event>
<event>
 5    1  0.9034917E-005  0.9118800E+02  0.7818608E-02  0.1130116E+00
         25   -1    0    0    0    0  0.00000000000E+00  0.00000000000E+00  0.99999998245E-14  0.12500000000E+03  0.12500000000E+03 0.  0.
        -13    1    3    3    0    0 -0.55747981138E+01  0.53671782471E+02  0.83348543004E+01  0.54600545491E+02  0.10566000000E+00 0.  1.
         23    2    1    0    0    0 -0.15834549913E+02  0.19582372525E+02 -0.13563342452E+02  0.96396389334E+02  0.92054860456E+02 0.  0.
         13    1    3    3    0    0 -0.10259751799E+02 -0.34089409947E+02 -0.21898196753E+02  0.41795843843E+02  0.10566000000E+00 0. -1.
         22    1    1    0    0    0  0.15834549913E+02 -0.19582372525E+02  0.13563342452E+02  0.28603610666E+02  0.00000000000E+00 0.  1.
</event>
<event>
 5    1  0.9034917E-005  0.9118800E+02  0.7818608E-02  0.1130116E+00
         25   -1    0    0    0    0  0.00000000000E+00  0.00000000000E+00  0.99999998245E-14  0.12500000000E+03  0.12500000000E+03 0.  0.
        -13    1    3    3    0    0 -0.40391256179E+02 -0.54632161173E+01  0.63590834170E+01  0.41252265538E+02  0.10566000000E+00 0.  1.
         23    2    1    0    0    0  0.10701893739E+02 -0.17410800688E+02  0.20968356184E+02  0.95719657255E+02  0.91131302601E+02 0.  0.
         13    1    3    3    0    0  0.51093149918E+02 -0.11947584571E+02  0.14609272767E+02  0.54467391717E+02  0.10566000000E+00 0. -1.
         22    1    1    0    0    0 -0.10701893739E+02  0.17410800688E+02 -0.20968356184E+02  0.29280342745E+02  0.00000000000E+00 0. -1.
</event>
<event>
 5    1  0.9034917E-005  0.9118800E+02  0.7818608E-02  0.1130116E+00
         25   -1    0    0    0    0  0.00000000000E+00  0.00000000000E+00  0.99999998245E-14  0.12500000000E+03  0.12500000000E+03 0.  0.
        -13    1    3    3    0    0 -0.51563832785E+02  0.62238052115E+01 -0.65861171029E+01  0.52354108772E+02  0.10566000000E+00 0. -1.
         23    2    1    0    0    0 -0.13430268534E+02 -0.17717438613E+01 -0.25847304862E+02  0.95817910325E+02  0.91265971650E+02 0.  0.
         13    1    3    3    0    0  0.38133564251E+02 -0.79955490728E+01 -0.19261187759E+02  0.43463801553E+02  0.10566000000E+00 0.  1.
         22    1    1    0    0    0  0.13430268534E+02  0.17717438613E+01  0.25847304862E+02  0.29182089675E+02  0.00000000000E+00 0. -1.
</event>
<event>
 5    1  0.9034917E-005  0.9118800E+02  0.7818608E-02  0.1130116E+00
         25   -1    0    0    0    0  0.00000000000E+00  0.00000000000E+00  0.99999998245E-14  0.12500000000E+03  0.12500000000E+03 0.  0.
        -13    1    3    3    0    0 -0.11753224016E+02 -0.33367938471E+02  0.17757367999E+01  0.35422055245E+02  0.10566000000E+00 0.  1.
         23    2    1    0    0    0 -0.11001418786E+01  0.25848747360E+02  0.12048220237E+02  0.96460068972E+02  0.92141289567E+02 0.  0.
         13    1    3    3    0    0  0.10653082137E+02  0.59216685830E+02  0.10272483437E+02  0.61038013727E+02  0.10566000000E+00 0. -1.
         22    1    1    0    0    0  0.11001418786E+01 -0.25848747360E+02 -0.12048220237E+02  0.28539931028E+02  0.00000000000E+00 0. -1.
</event>
<event>
 5    1  0.9034917E-005  0.9118800E+02  0.7818608E-02  0.1130116E+00
         25   -1    0    0    0    0  0.00000000000E+00  0.00000000000E+00  0.99999998245E-14  0.12500000000E+03  0.12500000000E+03 0.  0.
        -13    1    3    3    0    0 -0.17476081076E+02  0.11024843419E+02 -0.29274313466E+02  0.35832348167E+02  0.10566000000E+00 0. -1.
         23    2    1    0    0    0  0.24858738016E+01  0.16776972086E+02  0.25477914741E+02  0.94393293211E+02  0.89293467301E+02 0.  0.
         13    1    3    3    0    0  0.19961954878E+02  0.57521286667E+01  0.54752228207E+02  0.58560945044E+02  0.10566000000E+00 0.  1.
         22    1    1    0    0    0 -0.24858738016E+01 -0.16776972086E+02 -0.25477914741E+02  0.30606706789E+02  0.00000000000E+00 0.  1.
</event>
<event>
 5    1  0.9034917E-005  0.9118800E+02  0.7818608E-02  0.1130116E+00
         25   -1    0    0    0    0  0.00000000000E+00  0.00000000000E+00  0.99999998245E-14  0.12500000000E+03  0.12500000000E+03 0.  0.
        -13    1    3    3    0    0  0.30128883442E+02  0.16473939222E+02  0.24953761486E+02  0.42448105579E+02  0.10566000000E+00 0.  1.
         23    2    1    0    0    0 -0.26821594772E+01 -0.90790470573E+01 -0.19500701104E+02  0.10332281341E+03  0.10102328124E+03 0.  0.
         13    1    3    3    0    0 -0.32811042919E+02 -0.25552986279E+02 -0.44454462590E+02  0.60874707830E+02  0.10566000000E+00 0. -1.
         22    1    1    0    0    0  0.26821594772E+01  0.90790470573E+01  0.19500701104E+02  0.21677186591E+02  0.00000000000E+00 0. -1.
</event>
<event>
 5    1  0.9034917E-005  0.9118800E+02  0.7818608E-02  0.1130116E+00
         25   -1    0    0    0    0  0.00000000000E+00  0.00000000000E+00  0.99999998245E-14  0.12500000000E+03  0.12500000000E+03 0.  0.
        -13    1    3    3    0    0  0.53580090449E+01 -0.99784582606E+01 -0.32794491107E+02  0.34695355614E+02  0.10566000000E+00 0. -1.
         23    2    1    0    0    0 -0.13525337418E+02  0.28850320381E+02  0.58067015949E+01  0.92611830528E+02  0.86763803697E+02 0.  0.
         13    1    3    3    0    0 -0.18883346462E+02  0.38828778641E+02  0.38601192702E+02  0.57916474914E+02  0.10566000000E+00 0.  1.
         22    1    1    0    0    0  0.13525337418E+02 -0.28850320381E+02 -0.58067015949E+01  0.32388169472E+02  0.00000000000E+00 0.  1.
</event>
<event>
 5    1  0.9034917E-005  0.9118800E+02  0.7818608E-02  0.1130116E+00
         25   -1    0    0    0    0  0.00000000000E+00  0.00000000000E+00  0.99999998245E-14  0.12500000000E+03  0.12500000000E+03 0.  0.
        -13    1    3    3    0    0  0.13007101761E+02 -0.55274228402E+02 -0.24783366883E+01  0.56838176769E+02  0.10566000000E+00 0.  1.
         23    2    1    0    0    0  0.37400313017E+00 -0.26261526324E+02 -0.19045908996E+02  0.92556906856E+02  0.86684639436E+02 0.  0.
         13    1    3    3    0    0 -0.12633098630E+02  0.29012702078E+02 -0.16567572308E+02  0.35718730087E+02  0.10566000000E+00 0. -1.
         22    1    1    0    0    0 -0.37400313017E+00  0.26261526324E+02  0.19045908996E+02  0.32443093144E+02  0.00000000000E+00 0.  1.
</event>
<event>
 5    1  0.9034917E-005  0.9118800E+02  0.7818608E-02  0.1130116E+00
         25   -1    0    0    0    0  0.00000000000E+00  0.00000000000E+00  0.99999998245E-14  0.12500000000E+03  0.12500000000E+03 0.  0.
        -13    1    3    3    0    0  0.46154645937E+02  0.23355819518E+02 -0.21459725774E+02  0.56002469956E+02  0.10566000000E+00 0. -1.
         23    2    1    0    0    0  0.17990830973E+02 -0.59849140607E+01 -0.21043051621E+02  0.96675113117E+02  0.92432560709E+02 0.  0.
         13    1    3    3    0    0 -0.28163814964E+02 -0.29340733579E+02  0.41667415229E+00  0.40672643160E+02  0.10566000000E+00 0.  1.
         22    1    1    0    0    0 -0.17990830973E+02  0.59849140607E+01  0.21043051621E+02  0.28324886883E+02  0.00000000000E+00 0. -1.
</event>
<event>
 5    1  0.9034917E-005  0.9118800E+02  0.7818608E-02  0.1130116E+00
         25   -1    0    0    0    0  0.00000000000E+00  0.00000000000E+00  0.99999998245E-14  0.12500000000E+03  0.12500000000E+03 0.  0.
        -13    1    3    3    0    0 -0.95476640624E+01 -0.35789849785E+02  0.20201784821E+02  0.42192351329E+02  0.10566000000E+00 0.  1.
         23    2    1    0    0    0 -0.21195823342E+02  0.15327211881E+02  0.14924416602E+02  0.94884811771E+02  0.89978902764E+02 0.  0.
         13    1    3    3    0    0 -0.11648159279E+02  0.51117061666E+02 -0.52773682193E+01  0.52692460441E+02  0.10566000000E+00 0. -1.
         22    1    1    0    0    0  0.21195823342E+02 -0.15327211881E+02 -0.14924416602E+02  0.30115188229E+02  0.00000000000E+00 0.  1.
</event>
<event>
 5    1  0.9034917E-005  0.9118800E+02  0.7818608E-02  0.1130116E+00
         25   -1    0    0    0    0  0.00000000000E+00  0.00000000000E+00  0.99999998245E-14  0.12500000000E+03  0.12500000000E+03 0.  0.
        -13    1    3    3    0    0 -0.49516724538E+02 -0.56983477200E+01 -0.18344802508E+02  0.53112334903E+02  0.10566000000E+00 0.  1.
         23    2    1    0    0    0 -0.12717615685E+02 -0.24130030482E+02 -0.13536733978E+02  0.94549395957E+02  0.89511725429E+02 0.  0.
         13    1    3    3    0    0  0.36799108853E+02 -0.18431682762E+02  0.48080685294E+01  0.41437061055E+02  0.10566000000E+00 0. -1.
         22    1    1    0    0    0  0.12717615685E+02  0.24130030482E+02  0.13536733978E+02  0.30450604043E+02  0.00000000000E+00 0.  1.
</event>
<event>
 5    1  0.9034917E-005  0.9118800E+02  0.7818608E-02  0.1130116E+00
         25   -1    0    0    0    0  0.00000000000E+00  0.00000000000E+00  0.99999998245E-14  0.12500000000E+03  0.12500000000E+03 0.  0.
        -13    1    3    3    0    0  0.34591586782E+02 -0.74042157679E+01  0.46438883011E+01  0.35678805331E+02  0.10566000000E+00 0.  1.
         23    2    1    0    0    0 -0.21541478257E+02  0.13381879196E+02  0.13633101742E+02  0.96208135882E+02  0.91798877828E+02 0.  0.
         13    1    3    3    0    0 -0.56133065040E+02  0.20786094964E+02  0.89892134405E+01  0.60529330551E+02  0.10566000000E+00 0. -1.
         22    1    1    0    0    0  0.21541478257E+02 -0.13381879196E+02 -0.13633101742E+02  0.28791864118E+02  0.00000000000E+00 0. -1.
</event>
<event>
 5    1  0.9034917E-005  0.9118800E+02  0.7818608E-02  0.1130116E+00
         25   -1    0    0    0    0  0.00000000000E+00  0.00000000000E+00  0.99999998245E-14  0.12500000000E+03  0.12500000000E+03 0.  0.
        -13    1    3    3    0    0  0.49566049057E+01 -0.13962443146E+02  0.29025980063E+01  0.15098145251E+02  0.10566000000E+00 0.  1.
         23    2    1    0    0    0  0.25346503988E+02  0.41870248678E+02 -0.76324030728E+01  0.75463987187E+02  0.56929753176E+02 0.  0.
         13    1    3    3    0    0  0.20389899083E+02  0.55832691824E+02 -0.10535001079E+02  0.60365841936E+02  0.10566000000E+00 0. -1.
         22    1    1    0    0    0 -0.25346503988E+02 -0.41870248678E+02  0.76324030728E+01  0.49536012813E+02  0.00000000000E+00 0. -1.
</event>
<event>
 5    1  0.9034917E-005  0.9118800E+02  0.7818608E-02  0.1130116E+00
         25   -1    0    0    0    0  0.00000000000E+00  0.00000000000E+00  0.99999998245E-14  0.12500000000E+03  0.12500000000E+03 0.  0.
        -13    1    3    3    0    0 -0.39842457925E+02 -0.12769021248E+02  0.92258475627E+01  0.42843865190E+02  0.10566000000E+00 0.  1.
         23    2    1    0    0    0  0.13765304598E+01 -0.19749899157E+02 -0.22281769169E+02  0.95193447195E+02  0.90406646872E+02 0.  0.
         13    1    3    3    0    0  0.41218988385E+02 -0.69808779086E+01 -0.31507616732E+02  0.52349582004E+02  0.10566000000E+00 0. -1.
         22    1    1    0    0    0 -0.13765304598E+01  0.19749899157E+02  0.22281769169E+02  0.29806552805E+02  0.00000000000E+00 0. -1.
</event>
<event>
 5    1  0.9034917E-005  0.9118800E+02  0.7818608E-02  0.1130116E+00
         25   -1    0    0    0    0  0.00000000000E+00  0.00000000000E+00  0.99999998245E-14  0.12500000000E+03  0.12500000000E+03 0.  0.
        -13    1    3    3    0    0  0.27011377106E+02 -0.33752771685E+02  0.72506447917E+01  0.43834314224E+02  0.10566000000E+00 0. -1.
         23    2    1    0    0    0  0.23460648768E+02  0.15274214522E+02 -0.89802532606E+01  0.95600193564E+02  0.90967292974E+02 0.  0.
         13    1    3    3    0    0 -0.35507283385E+01  0.49026986206E+02 -0.16230898052E+02  0.51765879340E+02  0.10566000000E+00 0.  1.
         22    1    1    0    0    0 -0.23460648768E+02 -0.15274214522E+02  0.89802532606E+01  0.29399806436E+02  0.00000000000E+00 0. -1.
</event>
<event>
 5    1  0.9034917E-005  0.9118800E+02  0.7818608E-02  0.1130116E+00
         25   -1    0    0    0    0  0.00000000000E+00  0.00000000000E+00  0.99999998245E-14  0.12500000000E+03  0.12500000000E+03 0.  0.
        -13    1    3    3    0    0 -0.20280583793E+02  0.23839775048E+02 -0.13390019253E+01  0.31327959454E+02  0.10566000000E+00 0.  1.
         23    2    1    0    0    0 -0.10215687427E+02 -0.33056912847E+02  0.69788949073E+01  0.89703757555E+02  0.82467808197E+02 0.  0.
         13    1    3    3    0    0  0.10064896366E+02 -0.56896687895E+02  0.83178968325E+01  0.58375798102E+02  0.10566000000E+00 0. -1.
         22    1    1    0    0    0  0.10215687427E+02  0.33056912847E+02 -0.69788949073E+01  0.35296242445E+02  0.00000000000E+00 0. -1.
</event>
<event>
 5    1  0.9034917E-005  0.9118800E+02  0.7818608E-02  0.1130116E+00
         25   -1    0    0    0    0  0.00000000000E+00  0.00000000000E+00  0.99999998245E-14  0.12500000000E+03  0.12500000000E+03 0.  0.
        -13    1    3    3    0    0  0.27421873520E+02 -0.29228301993E+02  0.56490109618E+01  0.40474377990E+02  0.10566000000E+00 0.  1.
         23    2    1    0    0    0 -0.22516742597E+01  0.44772135608E+01 -0.27978575849E+02  0.96576133536E+02  0.92298609870E+02 0.  0.
         13    1    3    3    0    0 -0.29673547780E+02  0.33705515554E+02 -0.33627586811E+02  0.56101755546E+02  0.10566000000E+00 0. -1.
         22    1    1    0    0    0  0.22516742597E+01 -0.44772135608E+01  0.27978575849E+02  0.28423866464E+02  0.00000000000E+00 0. -1.
</event>
<event>
 5    1  0.9034917E-005  0.9118800E+02  0.7818608E-02  0.1130116E+00
         25   -1    0    0    0    0  0.00000000000E+00  0.00000000000E+00  0.99999998245E-14  0.12500000000E+03  0.12500000000E+03 0.  0.
        -13    1    3    3    0    0 -0.55625446037E-01  0.42052867778E+02  0.44392580465E+02  0.61148664310E+02  0.10566000000E+00 0.  1.
         23    2    1    0    0    0 -0.71224128060E+01  0.14858414926E+02  0.24089625714E+02  0.95814193084E+02  0.91260880289E+02 0.  0.
         13    1    3    3    0    0 -0.70667873600E+01 -0.27194452852E+02 -0.20302954751E+02  0.34665528774E+02  0.10566000000E+00 0. -1.
         22    1    1    0    0    0  0.71224128060E+01 -0.14858414926E+02 -0.24089625714E+02  0.29185806916E+02  0.00000000000E+00 0.  1.
</event>
<event>
 5    1  0.9034917E-005  0.9118800E+02  0.7818608E-02  0.1130116E+00
         25   -1    0    0    0    0  0.00000000000E+00  0.00000000000E+00  0.99999998245E-14  0.12500000000E+03  0.12500000000E+03 0.  0.
        -13    1    3    3    0    0 -0.32025684235E+02 -0.39743950230E+02 -0.68134227816E+00  0.51046071562E+02  0.10566000000E+00 0.  1.
         23    2    1    0    0    0 -0.15430867258E+02 -0.29727073368E+01 -0.22994919413E+02  0.97148339869E+02  0.93070322699E+02 0.  0.
         13    1    3    3    0    0  0.16594816978E+02  0.36771242893E+02 -0.22313577135E+02  0.46102268307E+02  0.10566000000E+00 0. -1.
         22    1    1    0    0    0  0.15430867258E+02  0.29727073368E+01  0.22994919413E+02  0.27851660131E+02  0.00000000000E+00 0. -1.
</event>
<event>
 5    1  0.9034917E-005  0.9118800E+02  0.7818608E-02  0.1130116E+00
         25   -1    0    0    0    0  0.00000000000E+00  0.00000000000E+00  0.99999998245E-14  0.12500000000E+03  0.12500000000E+03 0.  0.
        -13    1    3    3    0    0 -0.24515540337E+02 -0.61223062213E+01 -0.25311501498E+02  0.35765592733E+02  0.10566000000E+00 0. -1.
         23    2    1    0    0    0  0.24026983398E+02 -0.11225416403E+02  0.10679730879E+02  0.96410446728E+02  0.92073946815E+02 0.  0.
         13    1    3    3    0    0  0.48542523735E+02 -0.51031101814E+01  0.35991232377E+02  0.60644853995E+02  0.10566000000E+00 0.  1.
         22    1    1    0    0    0 -0.24026983398E+02  0.11225416403E+02 -0.10679730879E+02  0.28589553272E+02  0.00000000000E+00 0.  1.
</event>
<event>
 5    1  0.9034917E-005  0.9118800E+02  0.7818608E-02  0.1130116E+00
         25   -1    0    0    0    0  0.00000000000E+00  0.00000000000E+00  0.99999998245E-14  0.12500000000E+03  0.12500000000E+03 0.  0.
        -13    1    3    3    0    0 -0.16197764670E+02  0.48019219234E+02 -0.32562350158E+02  0.60237287522E+02  0.10566000000E+00 0.  1.
         23    2    1    0    0    0  0.34183225104E+01  0.20013719408E+02 -0.19527439623E+02  0.96829895429E+02  0.92641642134E+02 0.  0.
         13    1    3    3    0    0  0.19616087180E+02 -0.28005499826E+02  0.13034910534E+02  0.36592607907E+02  0.10566000000E+00 0. -1.
         22    1    1    0    0    0 -0.34183225104E+01 -0.20013719408E+02  0.19527439623E+02  0.28170104571E+02  0.00000000000E+00 0.  1.
</event>
<event>
 5    1  0.9034917E-005  0.9118800E+02  0.7818608E-02  0.1130116E+00
         25   -1    0    0    0    0  0.00000000000E+00  0.00000000000E+00  0.99999998245E-14  0.12500000000E+03  0.12500000000E+03 0.  0.
        -13    1    3    3    0    0  0.23835675586E+02 -0.29108961810E+02  0.54519595642E+01  0.38015866627E+02  0.10566000000E+00 0.  1.
         23    2    1    0    0    0 -0.22400860148E+02  0.53061609259E+01 -0.13032760577E+02  0.98546139650E+02  0.94929104666E+02 0.  0.
         13    1    3    3    0    0 -0.46236535734E+02  0.34415122736E+02 -0.18484720142E+02  0.60530273023E+02  0.10566000000E+00 0. -1.
         22    1    1    0    0    0  0.22400860148E+02 -0.53061609259E+01  0.13032760577E+02  0.26453860350E+02  0.00000000000E+00 0. -1.
</event>
<event>
 5    1  0.9034917E-005  0.9118800E+02  0.7818608E-02  0.1130116E+00
         25   -1    0    0    0    0  0.00000000000E+00  0.00000000000E+00  0.99999998245E-14  0.12500000000E+03  0.12500000000E+03 0.  0.
        -13    1    3    3    0    0 -0.61096917170E+01 -0.16508627956E+02  0.38896528838E+02  0.42694428788E+02  0.10566000000E+00 0.  1.
         23    2    1    0    0    0 -0.26852655154E+02 -0.11414660427E+02 -0.84390950450E+01  0.94626032747E+02  0.89618682130E+02 0.  0.
         13    1    3    3    0    0 -0.20742963437E+02  0.50939675285E+01 -0.47335623883E+02  0.51931603959E+02  0.10566000000E+00 0. -1.
         22    1    1    0    0    0  0.26852655154E+02  0.11414660427E+02  0.84390950450E+01  0.30373967253E+02  0.00000000000E+00 0.  1.
</event>
<event>
 5    1  0.9034917E-005  0.9118800E+02  0.7818608E-02  0.1130116E+00
         25   -1    0    0    0    0  0.00000000000E+00  0.00000000000E+00  0.99999998245E-14  0.12500000000E+03  0.12500000000E+03 0.  0.
        -13    1    3    3    0    0 -0.28600193542E+01  0.28633230141E+02  0.78227916982E+01  0.29820275200E+02  0.10566000000E+00 0.  1.
         23    2    1    0    0    0  0.53831583617E+01 -0.10638708382E+02 -0.34712588549E+02  0.88296807853E+02  0.80306923508E+02 0.  0.
         13    1    3    3    0    0  0.82431777159E+01 -0.39271938523E+02 -0.42535380248E+02  0.58476532653E+02  0.10566000000E+00 0. -1.
         22    1    1    0    0    0 -0.53831583617E+01  0.10638708382E+02  0.34712588549E+02  0.36703192147E+02  0.00000000000E+00 0. -1.
</event>
<event>
 5    1  0.9034917E-005  0.9118800E+02  0.7818608E-02  0.1130116E+00
         25   -1    0    0    0    0  0.00000000000E+00  0.00000000000E+00  0.99999998245E-14  0.12500000000E+03  0.12500000000E+03 0.  0.
        -13    1    3    3    0    0  0.18959274512E+02  0.51462402002E+02 -0.23669468643E+02  0.59733473193E+02  0.10566000000E+00 0.  1.
         23    2    1    0    0    0  0.41165386702E+00  0.37370179024E+02 -0.12289236388E+02  0.85658862877E+02  0.76090181490E+02 0.  0.
         13    1    3    3    0    0 -0.18547620645E+02 -0.14092222979E+02  0.11380232254E+02  0.25925389684E+02  0.10566000000E+00 0. -1.
         22    1    1    0    0    0 -0.41165386702E+00 -0.37370179024E+02  0.12289236388E+02  0.39341137123E+02  0.00000000000E+00 0.  1.
</event>
<event>
 5    1  0.9034917E-005  0.9118800E+02  0.7818608E-02  0.1130116E+00
         25   -1    0    0    0    0  0.00000000000E+00  0.00000000000E+00  0.99999998245E-14  0.12500000000E+03  0.12500000000E+03 0.  0.
        -13    1    3    3    0    0  0.60099999003E+01 -0.95839704541E+01  0.45693204404E+02  0.47072844414E+02  0.10566000000E+00 0.  1.
         23    2    1    0    0    0  0.25607307689E+02  0.13039830382E+02  0.80657635889E+01  0.95153259379E+02  0.90351064436E+02 0.  0.
         13    1    3    3    0    0  0.19597307788E+02  0.22623800836E+02 -0.37627440815E+02  0.48080414965E+02  0.10566000000E+00 0. -1.
         22    1    1    0    0    0 -0.25607307689E+02 -0.13039830382E+02 -0.80657635889E+01  0.29846740621E+02  0.00000000000E+00 0. -1.
</event>
<event>
 5    1  0.9034917E-005  0.9118800E+02  0.7818608E-02  0.1130116E+00
         25   -1    0    0    0    0  0.00000000000E+00  0.00000000000E+00  0.99999998245E-14  0.12500000000E+03  0.12500000000E+03 0.  0.
        -13    1    3    3    0    0  0.33007838234E+02 -0.41213148398E+02 -0.33326947993E+02  0.62439871976E+02  0.10566000000E+00 0.  1.
         23    2    1    0    0    0  0.14387044376E+02 -0.18732072929E+02 -0.17119481012E+02  0.95828880168E+02  0.91280994967E+02 0.  0.
         13    1    3    3    0    0 -0.18620793858E+02  0.22481075469E+02  0.16207466981E+02  0.33389008193E+02  0.10566000000E+00 0. -1.
         22    1    1    0    0    0 -0.14387044376E+02  0.18732072929E+02  0.17119481012E+02  0.29171119832E+02  0.00000000000E+00 0.  1.
</event>
<event>
 5    1  0.9034917E-005  0.9118800E+02  0.7818608E-02  0.1130116E+00
         25   -1    0    0    0    0  0.00000000000E+00  0.00000000000E+00  0.99999998245E-14  0.12500000000E+03  0.12500000000E+03 0.  0.
        -13    1    3    3    0    0 -0.17407484467E-01  0.36378810289E+01  0.45895426040E+02  0.46039502352E+02  0.10566000000E+00 0.  1.
         23    2    1    0    0    0  0.13776042908E+02  0.25479795115E+02  0.33123077811E+01  0.95845743019E+02  0.91304083998E+02 0.  0.
         13    1    3    3    0    0  0.13793450393E+02  0.21841914086E+02 -0.42583118259E+02  0.49806240667E+02  0.10566000000E+00 0. -1.
         22    1    1    0    0    0 -0.13776042908E+02 -0.25479795115E+02 -0.33123077811E+01  0.29154256981E+02  0.00000000000E+00 0.  1.
</event>
<event>
 5    1  0.9034917E-005  0.9118800E+02  0.7818608E-02  0.1130116E+00
         25   -1    0    0    0    0  0.00000000000E+00  0.00000000000E+00  0.99999998245E-14  0.12500000000E+03  0.12500000000E+03 0.  0.
        -13    1    3    3    0    0 -0.37898844009E+02  0.33279872225E+02 -0.98338946879E+01  0.51386660928E+02  0.10566000000E+00 0.  1.
         23    2    1    0    0    0 -0.21577708616E+02  0.24392818717E+01  0.18607742191E+02  0.96402872966E+02  0.92063664067E+02 0.  0.
         13    1    3    3    0    0  0.16321135393E+02 -0.30840590353E+02  0.28441636879E+02  0.45016212038E+02  0.10566000000E+00 0. -1.
         22    1    1    0    0    0  0.21577708616E+02 -0.24392818717E+01 -0.18607742191E+02  0.28597127034E+02  0.00000000000E+00 0.  1.
</event>
<event>
 5    1  0.9034917E-005  0.9118800E+02  0.7818608E-02  0.1130116E+00
         25   -1    0    0    0    0  0.00000000000E+00  0.00000000000E+00  0.99999998245E-14  0.12500000000E+03  0.12500000000E+03 0.  0.
        -13    1    3    3    0    0  0.16061321816E+02  0.47828471782E+01  0.23838053938E+02  0.29139417722E+02  0.10566000000E+00 0.  1.
         23    2    1    0    0    0 -0.27569238759E+02  0.31354284312E+02  0.11525856805E+02  0.81687190745E+02  0.69258917738E+02 0.  0.
         13    1    3    3    0    0 -0.43630560575E+02  0.26571437134E+02 -0.12312197132E+02  0.52547773023E+02  0.10566000000E+00 0. -1.
         22    1    1    0    0    0  0.27569238759E+02 -0.31354284312E+02 -0.11525856805E+02  0.43312809255E+02  0.00000000000E+00 0. -1.
</event>
<event>
 5    1  0.9034917E-005  0.9118800E+02  0.7818608E-02  0.1130116E+00
         25   -1    0    0    0    0  0.00000000000E+00  0.00000000000E+00  0.99999998245E-14  0.12500000000E+03  0.12500000000E+03 0.  0.
        -13    1    3    3    0    0  0.54881386827E+02  0.14407959337E+02 -0.23295023787E+02  0.61336980766E+02  0.10566000000E+00 0.  1.
         23    2    1    0    0    0  0.22213509038E+02  0.13698554621E+02 -0.14360406059E+02  0.95212223234E+02  0.90432603681E+02 0.  0.
         13    1    3    3    0    0 -0.32667877789E+02 -0.70940471590E+00  0.89346177281E+01  0.33875242468E+02  0.10566000000E+00 0. -1.
         22    1    1    0    0    0 -0.22213509038E+02 -0.13698554621E+02  0.14360406059E+02  0.29787776766E+02  0.00000000000E+00 0.  1.
</event>
<event>
 5    1  0.9034917E-005  0.9118800E+02  0.7818608E-02  0.1130116E+00
         25   -1    0    0    0    0  0.00000000000E+00  0.00000000000E+00  0.99999998245E-14  0.12500000000E+03  0.12500000000E+03 0.  0.
        -13    1    3    3    0    0  0.30609770553E+02 -0.20978271820E+02  0.10516071294E+02  0.38569999499E+02  0.10566000000E+00 0. -1.
         23    2    1    0    0    0  0.20668030788E+00  0.27913715161E+02  0.68302721351E+01  0.96262031591E+02  0.91872236816E+02 0.  0.
         13    1    3    3    0    0 -0.30403090245E+02  0.48891986981E+02 -0.36857991585E+01  0.57692032092E+02  0.10566000000E+00 0.  1.
         22    1    1    0    0    0 -0.20668030788E+00 -0.27913715161E+02 -0.68302721351E+01  0.28737968409E+02  0.00000000000E+00 0.  1.
</event>
<event>
 5    1  0.9034917E-005  0.9118800E+02  0.7818608E-02  0.1130116E+00
         25   -1    0    0    0    0  0.00000000000E+00  0.00000000000E+00  0.99999998245E-14  0.12500000000E+03  0.12500000000E+03 0.  0.
        -13    1    3    3    0    0  0.40420460458E+02  0.51268082767E+01 -0.16904858218E+02  0.44112165920E+02  0.10566000000E+00 0.  1.
         23    2    1    0    0    0  0.25212239688E+02  0.84982737979E+01  0.24797932943E+02  0.88629473940E+02  0.80823069015E+02 0.  0.
         13    1    3    3    0    0 -0.15208220770E+02  0.33714655212E+01  0.41702791161E+02  0.44517308020E+02  0.10566000000E+00 0. -1.
         22    1    1    0    0    0 -0.25212239688E+02 -0.84982737979E+01 -0.24797932943E+02  0.36370526060E+02  0.00000000000E+00 0. -1.
</event>
<event>
 5    1  0.9034917E-005  0.9118800E+02  0.7818608E-02  0.1130116E+00
         25   -1    0    0    0    0  0.00000000000E+00  0.00000000000E+00  0.99999998245E-14  0.12500000000E+03  0.12500000000E+03 0.  0.
        -13    1    3    3    0    0  0.47916970463E+02 -0.29500470018E+02 -0.25851131917E+02  0.61924195393E+02  0.10566000000E+00 0.  1.
         23    2    1    0    0    0  0.23124553561E+02 -0.99781500799E+01 -0.16701049528E+02  0.94780246332E+02  0.89833521489E+02 0.  0.
         13    1    3    3    0    0 -0.24792416901E+02  0.19522319938E+02  0.91500823897E+01  0.32856050940E+02  0.10566000000E+00 0. -1.
         22    1    1    0    0    0 -0.23124553561E+02  0.99781500799E+01  0.16701049528E+02  0.30219753668E+02  0.00000000000E+00 0.  1.
</event>
<event>
 5    1  0.9034917E-005  0.9118800E+02  0.7818608E-02  0.1130116E+00
         25   -1    0    0    0    0  0.00000000000E+00  0.00000000000E+00  0.99999998245E-14  0.12500000000E+03  0.12500000000E+03 0.  0.
        -13    1    3    3    0    0  0.22451853176E+02  0.22761959376E+02  0.28673707882E+01  0.32100241197E+02  0.10566000000E+00 0. -1.
         23    2    1    0    0    0 -0.24807567774E+02 -0.15881693613E+02  0.10727341758E+02  0.93651643232E+02  0.88249140551E+02 0.  0.
         13    1    3    3    0    0 -0.47259420950E+02 -0.38643652988E+02  0.78599709696E+01  0.61551402035E+02  0.10566000000E+00 0.  1.
         22    1    1    0    0    0  0.24807567774E+02  0.15881693613E+02 -0.10727341758E+02  0.31348356768E+02  0.00000000000E+00 0.  1.
</event>
<event>
 5    1  0.9034917E-005  0.9118800E+02  0.7818608E-02  0.1130116E+00
         25   -1    0    0    0    0  0.00000000000E+00  0.00000000000E+00  0.99999998245E-14  0.12500000000E+03  0.12500000000E+03 0.  0.
        -13    1    3    3    0    0  0.41912608346E+01 -0.13024707983E+02 -0.39312559990E+02  0.41625691855E+02  0.10566000000E+00 0.  1.
         23    2    1    0    0    0  0.11610092957E+02  0.28783290022E+02 -0.15502872120E+02  0.90306901451E+02  0.83377007399E+02 0.  0.
         13    1    3    3    0    0  0.74188321221E+01  0.41807998005E+02  0.23809687870E+02  0.48681209596E+02  0.10566000000E+00 0. -1.
         22    1    1    0    0    0 -0.11610092957E+02 -0.28783290022E+02  0.15502872120E+02  0.34693098549E+02  0.00000000000E+00 0. -1.
</event>
<event>
 5    1  0.9034917E-005  0.9118800E+02  0.7818608E-02  0.1130116E+00
         25   -1    0    0    0    0  0.00000000000E+00  0.00000000000E+00  0.99999998245E-14  0.12500000000E+03  0.12500000000E+03 0.  0.
        -13    1    3    3    0    0 -0.87743157421E+01 -0.31107628774E+02 -0.21879179838E+02  0.39030537520E+02  0.10566000000E+00 0.  1.
         23    2    1    0    0    0  0.25426373411E+02 -0.37989044509E+01  0.14092417753E+02  0.95682285595E+02  0.91080027441E+02 0.  0.
         13    1    3    3    0    0  0.34200689153E+02  0.27308724323E+02  0.35971597591E+02  0.56651748075E+02  0.10566000000E+00 0. -1.
         22    1    1    0    0    0 -0.25426373411E+02  0.37989044509E+01 -0.14092417753E+02  0.29317714405E+02  0.00000000000E+00 0. -1.
</event>
<event>
 5    1  0.9034917E-005  0.9118800E+02  0.7818608E-02  0.1130116E+00
         25   -1    0    0    0    0  0.00000000000E+00  0.00000000000E+00  0.99999998245E-14  0.12500000000E+03  0.12500000000E+03 0.  0.
        -13    1    3    3    0    0  0.44544517425E+02 -0.19233850022E+02  0.18635965157E+02  0.51975622946E+02  0.10566000000E+00 0.  1.
         23    2    1    0    0    0  0.22052918712E+02  0.11825232933E+02 -0.80714105558E+01  0.98707129749E+02  0.95140855774E+02 0.  0.
         13    1    3    3    0    0 -0.22491598713E+02  0.31059082955E+02 -0.26707375712E+02  0.46731506803E+02  0.10566000000E+00 0. -1.
         22    1    1    0    0    0 -0.22052918712E+02 -0.11825232933E+02  0.80714105558E+01  0.26292870251E+02  0.00000000000E+00 0.  1.
</event>
<event>
 5    1  0.9034917E-005  0.9118800E+02  0.7818608E-02  0.1130116E+00
         25   -1    0    0    0    0  0.00000000000E+00  0.00000000000E+00  0.99999998245E-14  0.12500000000E+03  0.12500000000E+03 0.  0.
        -13    1    3    3    0    0 -0.17199168912E+02  0.35106748913E+02 -0.21400917607E+01  0.39152093013E+02  0.10566000000E+00 0.  1.
         23    2    1    0    0    0 -0.17076878705E+02 -0.19539973102E+02  0.13163908388E+02  0.95901566723E+02  0.91380477569E+02 0.  0.
         13    1    3    3    0    0  0.12229020766E+00 -0.54646722014E+02  0.15304000149E+02  0.56749473710E+02  0.10566000000E+00 0. -1.
         22    1    1    0    0    0  0.17076878705E+02  0.19539973102E+02 -0.13163908388E+02  0.29098433277E+02  0.00000000000E+00 0. -1.
</event>
<event>
 5    1  0.9034917E-005  0.9118800E+02  0.7818608E-02  0.1130116E+00
         25   -1    0    0    0    0  0.00000000000E+00  0.00000000000E+00  0.99999998245E-14  0.12500000000E+03  0.12500000000E+03 0.  0.
        -13    1    3    3    0    0  0.37391471337E+01 -0.43306970468E+02 -0.63725144015E+01  0.43932846667E+02  0.10566000000E+00 0.  1.
         23    2    1    0    0    0  0.49118834388E+01 -0.98094342772E+00 -0.31456284011E+02  0.93147423139E+02  0.87532027194E+02 0.  0.
         13    1    3    3    0    0  0.11727363052E+01  0.42326027041E+02 -0.25083769609E+02  0.49214576472E+02  0.10566000000E+00 0. -1.
         22    1    1    0    0    0 -0.49118834388E+01  0.98094342772E+00  0.31456284011E+02  0.31852576861E+02  0.00000000000E+00 0.  1.
</event>
<event>
 5    1  0.9034917E-005  0.9118800E+02  0.7818608E-02  0.1130116E+00
         25   -1    0    0    0    0  0.00000000000E+00  0.00000000000E+00  0.99999998245E-14  0.12500000000E+03  0.12500000000E+03 0.  0.
        -13    1    3    3    0    0  0.35624672257E+02 -0.21376004314E+02 -0.16611701165E+02  0.44743833245E+02  0.10566000000E+00 0. -1.
         23    2    1    0    0    0 -0.62410780496E+01  0.61747736161E+01 -0.27587287276E+02  0.96049398906E+02  0.91582474997E+02 0.  0.
         13    1    3    3    0    0 -0.41865750306E+02  0.27550777930E+02 -0.10975586111E+02  0.51305565661E+02  0.10566000000E+00 0.  1.
         22    1    1    0    0    0  0.62410780496E+01 -0.61747736161E+01  0.27587287276E+02  0.28950601094E+02  0.00000000000E+00 0. -1.
</event>
<event>
 5    1  0.9034917E-005  0.9118800E+02  0.7818608E-02  0.1130116E+00
         25   -1    0    0    0    0  0.00000000000E+00  0.00000000000E+00  0.99999998245E-14  0.12500000000E+03  0.12500000000E+03 0.  0.
        -13    1    3    3    0    0  0.41188914526E+02  0.18762198253E+02  0.15426986209E+01  0.45287281285E+02  0.10566000000E+00 0. -1.
         23    2    1    0    0    0 -0.18659419940E+01 -0.84399099398E+01  0.22907962663E+02  0.10051554426E+03  0.97487876507E+02 0.  0.
         13    1    3    3    0    0 -0.43054856520E+02 -0.27202108192E+02  0.21365264043E+02  0.55228262979E+02  0.10566000000E+00 0.  1.
         22    1    1    0    0    0  0.18659419940E+01  0.84399099398E+01 -0.22907962663E+02  0.24484455736E+02  0.00000000000E+00 0.  1.
</event>
<event>
 5    1  0.9034917E-005  0.9118800E+02  0.7818608E-02  0.1130116E+00
         25   -1    0    0    0    0  0.00000000000E+00  0.00000000000E+00  0.99999998245E-14  0.12500000000E+03  0.12500000000E+03 0.  0.
        -13    1    3    3    0    0  0.32592745647E+02 -0.35789810400E+02 -0.10078677953E+02  0.49444802665E+02  0.10566000000E+00 0.  1.
         23    2    1    0    0    0 -0.81586913624E+01 -0.17661320143E+02 -0.22019290697E+02  0.95617426309E+02  0.90990969756E+02 0.  0.
         13    1    3    3    0    0 -0.40751437010E+02  0.18128490257E+02 -0.11940612744E+02  0.46172623643E+02  0.10566000000E+00 0. -1.
         22    1    1    0    0    0  0.81586913624E+01  0.17661320143E+02  0.22019290697E+02  0.29382573691E+02  0.00000000000E+00 0.  1.
</event>
<event>
 5    1  0.9034917E-005  0.9118800E+02  0.7818608E-02  0.1130116E+00
         25   -1    0    0    0    0  0.00000000000E+00  0.00000000000E+00  0.99999998245E-14  0.12500000000E+03  0.12500000000E+03 0.  0.
        -13    1    3    3    0    0 -0.48690179753E+02  0.20814385448E+02 -0.70785923953E+00  0.52957383572E+02  0.10566000000E+00 0.  1.
         23    2    1    0    0    0 -0.10073714787E+02  0.25885891758E+02 -0.13716966584E+02  0.94020744134E+02  0.88770411926E+02 0.  0.
         13    1    3    3    0    0  0.38616464967E+02  0.50715063100E+01 -0.13009107344E+02  0.41063360563E+02  0.10566000000E+00 0. -1.
         22    1    1    0    0    0  0.10073714787E+02 -0.25885891758E+02  0.13716966584E+02  0.30979255866E+02  0.00000000000E+00 0.  1.
</event>
<event>
 5    1  0.9034917E-005  0.9118800E+02  0.7818608E-02  0.1130116E+00
         25   -1    0    0    0    0  0.00000000000E+00  0.00000000000E+00  0.99999998245E-14  0.12500000000E+03  0.12500000000E+03 0.  0.
        -13    1    3    3    0    0  0.28147198688E+01 -0.32583539478E+02 -0.29912786051E+02  0.44321502978E+02  0.10566000000E+00 0.  1.
         23    2    1    0    0    0  0.20549965567E+02 -0.16430891334E+02  0.14616677981E+02  0.94901452692E+02  0.90002017606E+02 0.  0.
         13    1    3    3    0    0  0.17735245698E+02  0.16152648144E+02  0.44529464033E+02  0.50579949714E+02  0.10566000000E+00 0. -1.
         22    1    1    0    0    0 -0.20549965567E+02  0.16430891334E+02 -0.14616677981E+02  0.30098547308E+02  0.00000000000E+00 0. -1.
</event>
<event>
 5    1  0.9034917E-005  0.9118800E+02  0.7818608E-02  0.1130116E+00
         25   -1    0    0    0    0  0.00000000000E+00  0.00000000000E+00  0.99999998245E-14  0.12500000000E+03  0.12500000000E+03 0.  0.
        -13    1    3    3    0    0 -0.26491386738E+02  0.13454776144E+02 -0.15571150337E+02  0.33545438725E+02  0.10566000000E+00 0. -1.
         23    2    1    0    0    0  0.26229418780E+02 -0.96682803927E+01  0.82581093727E+01  0.95851167679E+02  0.91311510335E+02 0.  0.
         13    1    3    3    0    0  0.52720805518E+02 -0.23123056537E+02  0.23829259710E+02  0.62305728954E+02  0.10566000000E+00 0.  1.
         22    1    1    0    0    0 -0.26229418780E+02  0.96682803927E+01 -0.82581093727E+01  0.29148832321E+02  0.00000000000E+00 0.  1.
</event>
<event>
 5    1  0.9034917E-005  0.9118800E+02  0.7818608E-02  0.1130116E+00
         25   -1    0    0    0    0  0.00000000000E+00  0.00000000000E+00  0.99999998245E-14  0.12500000000E+03  0.12500000000E+03 0.  0.
        -13    1    3    3    0    0 -0.37935437470E+02  0.15219548699E+02 -0.39167783303E+02  0.56611469611E+02  0.10566000000E+00 0.  1.
         23    2    1    0    0    0 -0.27385023462E+01  0.16959668970E+02 -0.25161848948E+02  0.94532830634E+02  0.89488589544E+02 0.  0.
         13    1    3    3    0    0  0.35196935124E+02  0.17401202710E+01  0.14005934355E+02  0.37921361023E+02  0.10566000000E+00 0. -1.
         22    1    1    0    0    0  0.27385023462E+01 -0.16959668970E+02  0.25161848948E+02  0.30467169366E+02  0.00000000000E+00 0.  1.
</event>
<event>
 5    1  0.9034917E-005  0.9118800E+02  0.7818608E-02  0.1130116E+00
         25   -1    0    0    0    0  0.00000000000E+00  0.00000000000E+00  0.99999998245E-14  0.12500000000E+03  0.12500000000E+03 0.  0.
        -13    1    3    3    0    0 -0.68553039486E+01  0.42514522722E+02  0.68991828996E+01  0.43612953617E+02  0.10566000000E+00 0. -1.
         23    2    1    0    0    0  0.15153202748E+02  0.40066847761E+01 -0.23046113946E+02  0.97128931768E+02  0.93044252600E+02 0.  0.
         13    1    3    3    0    0  0.22008506696E+02 -0.38507837946E+02 -0.29945296845E+02  0.53515978151E+02  0.10566000000E+00 0.  1.
         22    1    1    0    0    0 -0.15153202748E+02 -0.40066847761E+01  0.23046113946E+02  0.27871068232E+02  0.00000000000E+00 0.  1.
</event>
<event>
 5    1  0.9034917E-005  0.9118800E+02  0.7818608E-02  0.1130116E+00
         25   -1    0    0    0    0  0.00000000000E+00  0.00000000000E+00  0.99999998245E-14  0.12500000000E+03  0.12500000000E+03 0.  0.
        -13    1    3    3    0    0  0.18567538534E+02 -0.12221088997E+02  0.21014431114E+02  0.30589638484E+02  0.10566000000E+00 0. -1.
         23    2    1    0    0    0 -0.19737012352E+02  0.99517249900E+01 -0.23064162725E+02  0.93054075548E+02  0.87398620624E+02 0.  0.
         13    1    3    3    0    0 -0.38304550887E+02  0.22172813987E+02 -0.44078593840E+02  0.62464437064E+02  0.10566000000E+00 0.  1.
         22    1    1    0    0    0  0.19737012352E+02 -0.99517249900E+01  0.23064162725E+02  0.31945924452E+02  0.00000000000E+00 0.  1.
</event>
<event>
 5    1  0.9034917E-005  0.9118800E+02  0.7818608E-02  0.1130116E+00
         25   -1    0    0    0    0  0.00000000000E+00  0.00000000000E+00  0.99999998245E-14  0.12500000000E+03  0.12500000000E+03 0.  0.
        -13    1    3    3    0    0  0.11430120251E+02 -0.53473640458E+02  0.15779795520E+02  0.56913012427E+02  0.10566000000E+00 0. -1.
         23    2    1    0    0    0  0.28236461035E+01 -0.26532500894E+02 -0.11257538599E+02  0.96040049096E+02  0.91569712646E+02 0.  0.
         13    1    3    3    0    0 -0.86064741470E+01  0.26941139564E+02 -0.27037334119E+02  0.39127036670E+02  0.10566000000E+00 0.  1.
         22    1    1    0    0    0 -0.28236461035E+01  0.26532500894E+02  0.11257538599E+02  0.28959950904E+02  0.00000000000E+00 0. -1.
</event>
<event>
 5    1  0.9034917E-005  0.9118800E+02  0.7818608E-02  0.1130116E+00
         25   -1    0    0    0    0  0.00000000000E+00  0.00000000000E+00  0.99999998245E-14  0.12500000000E+03  0.12500000000E+03 0.  0.
        -13    1    3    3    0    0 -0.53423692047E+02  0.95611928965E+01 -0.23797414533E+02  0.59260740663E+02  0.10566000000E+00 0.  1.
         23    2    1    0    0    0 -0.16603717472E+02  0.69712566427E+01 -0.22481767991E+02  0.96195282590E+02  0.91781374186E+02 0.  0.
         13    1    3    3    0    0  0.36819974575E+02 -0.25899362539E+01  0.13156465419E+01  0.36934541927E+02  0.10566000000E+00 0. -1.
         22    1    1    0    0    0  0.16603717472E+02 -0.69712566427E+01  0.22481767991E+02  0.28804717410E+02  0.00000000000E+00 0.  1.
</event>
<event>
 5    1  0.9034917E-005  0.9118800E+02  0.7818608E-02  0.1130116E+00
         25   -1    0    0    0    0  0.00000000000E+00  0.00000000000E+00  0.99999998245E-14  0.12500000000E+03  0.12500000000E+03 0.  0.
        -13    1    3    3    0    0  0.34888826174E+02  0.49389394602E+02 -0.14810570490E+02  0.62256779977E+02  0.10566000000E+00 0.  1.
         23    2    1    0    0    0  0.12833638459E+02  0.24667051445E+02 -0.77976452213E+01  0.96121479019E+02  0.91680803632E+02 0.  0.
         13    1    3    3    0    0 -0.22055187714E+02 -0.24722343157E+02  0.70129252691E+01  0.33864699041E+02  0.10566000000E+00 0. -1.
         22    1    1    0    0    0 -0.12833638459E+02 -0.24667051445E+02  0.77976452213E+01  0.28878520981E+02  0.00000000000E+00 0.  1.
</event>
<event>
 5    1  0.9034917E-005  0.9118800E+02  0.7818608E-02  0.1130116E+00
         25   -1    0    0    0    0  0.00000000000E+00  0.00000000000E+00  0.99999998245E-14  0.12500000000E+03  0.12500000000E+03 0.  0.
        -13    1    3    3    0    0 -0.23335215406E+02  0.24157994461E+02  0.41306475360E+02  0.53238867805E+02  0.10566000000E+00 0.  1.
         23    2    1    0    0    0 -0.54269001788E+01 -0.13667080959E+02  0.19928837952E+02  0.10023310820E+03  0.97125058812E+02 0.  0.
         13    1    3    3    0    0  0.17908315228E+02 -0.37825075420E+02 -0.21377637408E+02  0.46994240392E+02  0.10566000000E+00 0. -1.
         22    1    1    0    0    0  0.54269001788E+01  0.13667080959E+02 -0.19928837952E+02  0.24766891803E+02  0.00000000000E+00 0.  1.
</event>
<event>
 5    1  0.9034917E-005  0.9118800E+02  0.7818608E-02  0.1130116E+00
         25   -1    0    0    0    0  0.00000000000E+00  0.00000000000E+00  0.99999998245E-14  0.12500000000E+03  0.12500000000E+03 0.  0.
        -13    1    3    3    0    0  0.42477186163E+02 -0.15034111125E+02 -0.24947319625E+02  0.51504521764E+02  0.10566000000E+00 0.  1.
         23    2    1    0    0    0  0.23854865464E+02  0.16561773926E+02  0.17442797305E+00  0.95959039496E+02  0.91459061191E+02 0.  0.
         13    1    3    3    0    0 -0.18622320699E+02  0.31595885051E+02  0.25121747598E+02  0.44454517732E+02  0.10566000000E+00 0. -1.
         22    1    1    0    0    0 -0.23854865464E+02 -0.16561773926E+02 -0.17442797305E+00  0.29040960504E+02  0.00000000000E+00 0.  1.
</event>
<event>
 5    1  0.9034917E-005  0.9118800E+02  0.7818608E-02  0.1130116E+00
         25   -1    0    0    0    0  0.00000000000E+00  0.00000000000E+00  0.99999998245E-14  0.12500000000E+03  0.12500000000E+03 0.  0.
        -13    1    3    3    0    0  0.14714646844E+02  0.25321541500E+02  0.39241419132E+00  0.29289357259E+02  0.10566000000E+00 0.  1.
         23    2    1    0    0    0 -0.10863232436E+02 -0.31340932542E+02  0.41513173277E+01  0.91571010977E+02  0.85251115794E+02 0.  0.
         13    1    3    3    0    0 -0.25577879279E+02 -0.56662474042E+02  0.37589031363E+01  0.62281653718E+02  0.10566000000E+00 0. -1.
         22    1    1    0    0    0  0.10863232436E+02  0.31340932542E+02 -0.41513173277E+01  0.33428989023E+02  0.00000000000E+00 0. -1.
</event>
<event>
 5    1  0.9034917E-005  0.9118800E+02  0.7818608E-02  0.1130116E+00
         25   -1    0    0    0    0  0.00000000000E+00  0.00000000000E+00  0.99999998245E-14  0.12500000000E+03  0.12500000000E+03 0.  0.
        -13    1    3    3    0    0  0.10195584131E+02  0.49176453801E+02 -0.36436204577E+02  0.62047415032E+02  0.10566000000E+00 0.  1.
         23    2    1    0    0    0  0.98489246089E+01  0.21479403964E+02 -0.17301622827E+02  0.95713274969E+02  0.91122547935E+02 0.  0.
         13    1    3    3    0    0 -0.34665952250E+00 -0.27697049836E+02  0.19134581750E+02  0.33665859936E+02  0.10566000000E+00 0. -1.
         22    1    1    0    0    0 -0.98489246089E+01 -0.21479403964E+02  0.17301622827E+02  0.29286725031E+02  0.00000000000E+00 0.  1.
</event>
<event>
 5    1  0.9034917E-005  0.9118800E+02  0.7818608E-02  0.1130116E+00
         25   -1    0    0    0    0  0.00000000000E+00  0.00000000000E+00  0.99999998245E-14  0.12500000000E+03  0.12500000000E+03 0.  0.
        -13    1    3    3    0    0 -0.27894026539E+02 -0.40438672563E+02 -0.13289081372E+02  0.50891785221E+02  0.10566000000E+00 0.  1.
         23    2    1    0    0    0 -0.16393972261E+02 -0.11260746380E+02  0.20115726112E+02  0.96712031311E+02  0.92482473084E+02 0.  0.
         13    1    3    3    0    0  0.11500054278E+02  0.29177926182E+02  0.33404807484E+02  0.45820246091E+02  0.10566000000E+00 0. -1.
         22    1    1    0    0    0  0.16393972261E+02  0.11260746380E+02 -0.20115726112E+02  0.28287968689E+02  0.00000000000E+00 0.  1.
</event>
<event>
 5    1  0.9034917E-005  0.9118800E+02  0.7818608E-02  0.1130116E+00
         25   -1    0    0    0    0  0.00000000000E+00  0.00000000000E+00  0.99999998245E-14  0.12500000000E+03  0.12500000000E+03 0.  0.
        -13    1    3    3    0    0 -0.12996730434E+02 -0.17520195233E+02 -0.30544011434E+02  0.37534251578E+02  0.10566000000E+00 0.  1.
         23    2    1    0    0    0  0.96580199000E+01 -0.11767490028E+02  0.23831758811E+02  0.96720963631E+02  0.92494545286E+02 0.  0.
         13    1    3    3    0    0  0.22654750334E+02  0.57527052052E+01  0.54375770245E+02  0.59186712053E+02  0.10566000000E+00 0. -1.
         22    1    1    0    0    0 -0.96580199000E+01  0.11767490028E+02 -0.23831758811E+02  0.28279036369E+02  0.00000000000E+00 0.  1.
</event>
<event>
 5    1  0.9034917E-005  0.9118800E+02  0.7818608E-02  0.1130116E+00
         25   -1    0    0    0    0  0.00000000000E+00  0.00000000000E+00  0.99999998245E-14  0.12500000000E+03  0.12500000000E+03 0.  0.
        -13    1    3    3    0    0  0.27835012737E+01  0.35501038774E+02 -0.49720953485E+01  0.35955591075E+02  0.10566000000E+00 0.  1.
         23    2    1    0    0    0 -0.13120556190E+02 -0.23420264860E+02  0.46977650446E+01  0.97746985538E+02  0.93870902758E+02 0.  0.
         13    1    3    3    0    0 -0.15904057463E+02 -0.58921303634E+02  0.96698603932E+01  0.61791394463E+02  0.10566000000E+00 0. -1.
         22    1    1    0    0    0  0.13120556190E+02  0.23420264860E+02 -0.46977650446E+01  0.27253014462E+02  0.00000000000E+00 0. -1.
</event>
<event>
 5    1  0.9034917E-005  0.9118800E+02  0.7818608E-02  0.1130116E+00
         25   -1    0    0    0    0  0.00000000000E+00  0.00000000000E+00  0.99999998245E-14  0.12500000000E+03  0.12500000000E+03 0.  0.
        -13    1    3    3    0    0  0.15082685857E+02 -0.23750481709E+01  0.31980588715E+02  0.35438643951E+02  0.10566000000E+00 0. -1.
         23    2    1    0    0    0 -0.16921699362E+02  0.24838965984E+02 -0.84866687535E+01  0.93769539116E+02  0.88415975814E+02 0.  0.
         13    1    3    3    0    0 -0.32004385219E+02  0.27214014155E+02 -0.40467257469E+02  0.58330895165E+02  0.10566000000E+00 0.  1.
         22    1    1    0    0    0  0.16921699362E+02 -0.24838965984E+02  0.84866687535E+01  0.31230460884E+02  0.00000000000E+00 0.  1.
</event>
<event>
 5    1  0.9034917E-005  0.9118800E+02  0.7818608E-02  0.1130116E+00
         25   -1    0    0    0    0  0.00000000000E+00  0.00000000000E+00  0.99999998245E-14  0.12500000000E+03  0.12500000000E+03 0.  0.
        -13    1    3    3    0    0 -0.23131658479E+02 -0.40406598833E+02  0.10532296656E+02  0.47735807212E+02  0.10566000000E+00 0. -1.
         23    2    1    0    0    0  0.19144569884E+02 -0.12788934903E+02  0.13482149353E+02  0.98319674605E+02  0.94630431951E+02 0.  0.
         13    1    3    3    0    0  0.42276228363E+02  0.27617663930E+02  0.29498526974E+01  0.50583867394E+02  0.10566000000E+00 0.  1.
         22    1    1    0    0    0 -0.19144569884E+02  0.12788934903E+02 -0.13482149353E+02  0.26680325395E+02  0.00000000000E+00 0.  1.
</event>
<event>
 5    1  0.9034917E-005  0.9118800E+02  0.7818608E-02  0.1130116E+00
         25   -1    0    0    0    0  0.00000000000E+00  0.00000000000E+00  0.99999998245E-14  0.12500000000E+03  0.12500000000E+03 0.  0.
        -13    1    3    3    0    0  0.15550014578E+02 -0.15158839765E+02 -0.38159543746E+02  0.43906210487E+02  0.10566000000E+00 0.  1.
         23    2    1    0    0    0  0.28994123503E+02  0.98451740469E+01  0.33520318433E+01  0.94197033143E+02  0.89018303094E+02 0.  0.
         13    1    3    3    0    0  0.13444108925E+02  0.25004013812E+02  0.41511575589E+02  0.50290822656E+02  0.10566000000E+00 0. -1.
         22    1    1    0    0    0 -0.28994123503E+02 -0.98451740469E+01 -0.33520318433E+01  0.30802966857E+02  0.00000000000E+00 0. -1.
</event>
<event>
 5    1  0.9034917E-005  0.9118800E+02  0.7818608E-02  0.1130116E+00
         25   -1    0    0    0    0  0.00000000000E+00  0.00000000000E+00  0.99999998245E-14  0.12500000000E+03  0.12500000000E+03 0.  0.
        -13    1    3    3    0    0  0.28406565995E+02 -0.22733130035E+02  0.11228694543E+02  0.38076540520E+02  0.10566000000E+00 0. -1.
         23    2    1    0    0    0 -0.26424759998E+02 -0.11534786897E+02  0.11278841404E+02  0.94039839904E+02  0.88797297122E+02 0.  0.
         13    1    3    3    0    0 -0.54831325993E+02  0.11198343138E+02  0.50146861326E-01  0.55963299384E+02  0.10566000000E+00 0.  1.
         22    1    1    0    0    0  0.26424759998E+02  0.11534786897E+02 -0.11278841404E+02  0.30960160096E+02  0.00000000000E+00 0.  1.
</event>
<event>
 5    1  0.9034917E-005  0.9118800E+02  0.7818608E-02  0.1130116E+00
         25   -1    0    0    0    0  0.00000000000E+00  0.00000000000E+00  0.99999998245E-14  0.12500000000E+03  0.12500000000E+03 0.  0.
        -13    1    3    3    0    0 -0.28811543663E+02  0.17909073377E+02 -0.12628190247E+02  0.36198374417E+02  0.10566000000E+00 0.  1.
         23    2    1    0    0    0  0.82697451307E+01 -0.21156783470E+02  0.16018019316E+02  0.97204764543E+02  0.93146074183E+02 0.  0.
         13    1    3    3    0    0  0.37081288794E+02 -0.39065856847E+02  0.28646209563E+02  0.61006390126E+02  0.10566000000E+00 0. -1.
         22    1    1    0    0    0 -0.82697451307E+01  0.21156783470E+02 -0.16018019316E+02  0.27795235457E+02  0.00000000000E+00 0. -1.
</event>
<event>
 5    1  0.9034917E-005  0.9118800E+02  0.7818608E-02  0.1130116E+00
         25   -1    0    0    0    0  0.00000000000E+00  0.00000000000E+00  0.99999998245E-14  0.12500000000E+03  0.12500000000E+03 0.  0.
        -13    1    3    3    0    0  0.20616182442E+02  0.32196800361E+02 -0.87408850367E+01  0.39218301432E+02  0.10566000000E+00 0.  1.
         23    2    1    0    0    0  0.21509051911E+02 -0.10109754253E+02 -0.30123343961E+02  0.86629929678E+02  0.77669057026E+02 0.  0.
         13    1    3    3    0    0  0.89286946909E+00 -0.42306554614E+02 -0.21382458924E+02  0.47411628245E+02  0.10566000000E+00 0. -1.
         22    1    1    0    0    0 -0.21509051911E+02  0.10109754253E+02  0.30123343961E+02  0.38370070322E+02  0.00000000000E+00 0.  1.
</event>
<event>
 5    1  0.9034917E-005  0.9118800E+02  0.7818608E-02  0.1130116E+00
         25   -1    0    0    0    0  0.00000000000E+00  0.00000000000E+00  0.99999998245E-14  0.12500000000E+03  0.12500000000E+03 0.  0.
        -13    1    3    3    0    0  0.29698206742E+02 -0.22125255422E+02  0.34825276525E+02  0.50836221931E+02  0.10566000000E+00 0. -1.
         23    2    1    0    0    0  0.22077244467E+02 -0.15566096885E+02 -0.95591182971E+01  0.96345422039E+02  0.91985626648E+02 0.  0.
         13    1    3    3    0    0 -0.76209622749E+01  0.65591585367E+01 -0.44384394822E+02  0.45509200108E+02  0.10566000000E+00 0.  1.
         22    1    1    0    0    0 -0.22077244467E+02  0.15566096885E+02  0.95591182971E+01  0.28654577961E+02  0.00000000000E+00 0. -1.
</event>
<event>
 5    1  0.9034917E-005  0.9118800E+02  0.7818608E-02  0.1130116E+00
         25   -1    0    0    0    0  0.00000000000E+00  0.00000000000E+00  0.99999998245E-14  0.12500000000E+03  0.12500000000E+03 0.  0.
        -13    1    3    3    0    0  0.18533726534E+02  0.13649249635E+02  0.50717039166E+02  0.55695872923E+02  0.10566000000E+00 0. -1.
         23    2    1    0    0    0 -0.10769062731E+02  0.13616810586E+02  0.24208596266E+02  0.95209961803E+02  0.90429477775E+02 0.  0.
         13    1    3    3    0    0 -0.29302789264E+02 -0.32439049518E-01 -0.26508442900E+02  0.39514088880E+02  0.10566000000E+00 0.  1.
         22    1    1    0    0    0  0.10769062731E+02 -0.13616810586E+02 -0.24208596266E+02  0.29790038197E+02  0.00000000000E+00 0. -1.
</event>
<event>
 5    1  0.9034917E-005  0.9118800E+02  0.7818608E-02  0.1130116E+00
         25   -1    0    0    0    0  0.00000000000E+00  0.00000000000E+00  0.99999998245E-14  0.12500000000E+03  0.12500000000E+03 0.  0.
        -13    1    3    3    0    0  0.13433337262E+02  0.25590736485E+02  0.17942459896E+02  0.34018867926E+02  0.10566000000E+00 0.  1.
         23    2    1    0    0    0 -0.10881749194E+02 -0.96720945538E+01 -0.25885127889E+02  0.95301486158E+02  0.90555902842E+02 0.  0.
         13    1    3    3    0    0 -0.24315086456E+02 -0.35262831039E+02 -0.43827587785E+02  0.61282618232E+02  0.10566000000E+00 0. -1.
         22    1    1    0    0    0  0.10881749194E+02  0.96720945538E+01  0.25885127889E+02  0.29698513842E+02  0.00000000000E+00 0. -1.
</event>
<event>
 5    1  0.9034917E-005  0.9118800E+02  0.7818608E-02  0.1130116E+00
         25   -1    0    0    0    0  0.00000000000E+00  0.00000000000E+00  0.99999998245E-14  0.12500000000E+03  0.12500000000E+03 0.  0.
        -13    1    3    3    0    0 -0.21802907467E+02 -0.36716285618E+01  0.40308147904E+02  0.45973966348E+02  0.10566000000E+00 0.  1.
         23    2    1    0    0    0 -0.10237901509E+01 -0.29098094649E+02  0.29156511061E+01  0.95738279616E+02  0.91156842332E+02 0.  0.
         13    1    3    3    0    0  0.20779117316E+02 -0.25426466087E+02 -0.37392496798E+02  0.49764313267E+02  0.10566000000E+00 0. -1.
         22    1    1    0    0    0  0.10237901509E+01  0.29098094649E+02 -0.29156511061E+01  0.29261720384E+02  0.00000000000E+00 0. -1.
</event>
<event>
 5    1  0.9034917E-005  0.9118800E+02  0.7818608E-02  0.1130116E+00
         25   -1    0    0    0    0  0.00000000000E+00  0.00000000000E+00  0.99999998245E-14  0.12500000000E+03  0.12500000000E+03 0.  0.
        -13    1    3    3    0    0 -0.65432717225E+01 -0.28197363824E+02 -0.19726932553E+02  0.35029541297E+02  0.10566000000E+00 0. -1.
         23    2    1    0    0    0  0.10968245316E+02  0.12506747386E+02  0.23019758875E+02  0.96598759990E+02  0.92329247790E+02 0.  0.
         13    1    3    3    0    0  0.17511517038E+02  0.40704111210E+02  0.42746691428E+02  0.61569218693E+02  0.10566000000E+00 0.  1.
         22    1    1    0    0    0 -0.10968245316E+02 -0.12506747386E+02 -0.23019758875E+02  0.28401240010E+02  0.00000000000E+00 0.  1.
</event>
<event>
 5    1  0.9034917E-005  0.9118800E+02  0.7818608E-02  0.1130116E+00
         25   -1    0    0    0    0  0.00000000000E+00  0.00000000000E+00  0.99999998245E-14  0.12500000000E+03  0.12500000000E+03 0.  0.
        -13    1    3    3    0    0  0.12016059444E+02  0.25758360753E+02 -0.14430572033E+02  0.31876816128E+02  0.10566000000E+00 0.  1.
         23    2    1    0    0    0 -0.26187909702E+00 -0.30365085496E+02  0.80749089257E+01  0.93578492207E+02  0.88145465293E+02 0.  0.
         13    1    3    3    0    0 -0.12277938541E+02 -0.56123446249E+02  0.22505480959E+02  0.61701676078E+02  0.10566000000E+00 0. -1.
         22    1    1    0    0    0  0.26187909702E+00  0.30365085496E+02 -0.80749089257E+01  0.31421507793E+02  0.00000000000E+00 0. -1.
</event>
<event>
 5    1  0.9034917E-005  0.9118800E+02  0.7818608E-02  0.1130116E+00
         25   -1    0    0    0    0  0.00000000000E+00  0.00000000000E+00  0.99999998245E-14  0.12500000000E+03  0.12500000000E+03 0.  0.
        -13    1    3    3    0    0  0.95696322315E+01  0.15399520500E+02  0.41504315906E+02  0.45291748647E+02  0.10566000000E+00 0.  1.
         23    2    1    0    0    0 -0.47123122644E+01  0.20903210025E+02 -0.11652832665E+02  0.10060863707E+03  0.97607168121E+02 0.  0.
         13    1    3    3    0    0 -0.14281944496E+02  0.55036895257E+01 -0.53157148571E+02  0.55316888427E+02  0.10566000000E+00 0. -1.
         22    1    1    0    0    0  0.47123122644E+01 -0.20903210025E+02  0.11652832665E+02  0.24391362926E+02  0.00000000000E+00 0. -1.
</event>
<event>
 5    1  0.9034917E-005  0.9118800E+02  0.7818608E-02  0.1130116E+00
         25   -1    0    0    0    0  0.00000000000E+00  0.00000000000E+00  0.99999998245E-14  0.12500000000E+03  0.12500000000E+03 0.  0.
        -13    1    3    3    0    0  0.58570852179E+01 -0.42843880624E+02 -0.68080293692E+01  0.43775152565E+02  0.10566000000E+00 0. -1.
         23    2    1    0    0    0  0.23795993988E+02  0.11992821196E+01 -0.20826385119E+02  0.93354685583E+02  0.87827509333E+02 0.  0.
         13    1    3    3    0    0  0.17938908770E+02  0.44043162743E+02 -0.14018355749E+02  0.49579533018E+02  0.10566000000E+00 0.  1.
         22    1    1    0    0    0 -0.23795993988E+02 -0.11992821196E+01  0.20826385119E+02  0.31645314417E+02  0.00000000000E+00 0. -1.
</event>
<event>
 5    1  0.9034917E-005  0.9118800E+02  0.7818608E-02  0.1130116E+00
         25   -1    0    0    0    0  0.00000000000E+00  0.00000000000E+00  0.99999998245E-14  0.12500000000E+03  0.12500000000E+03 0.  0.
        -13    1    3    3    0    0 -0.50401022014E+02  0.23930664807E+02 -0.17425888598E+02  0.58451796342E+02  0.10566000000E+00 0.  1.
         23    2    1    0    0    0 -0.20126959688E+02  0.40065529154E+01 -0.21921374612E+02  0.94971785976E+02  0.90099647580E+02 0.  0.
         13    1    3    3    0    0  0.30274062325E+02 -0.19924111892E+02 -0.44954860145E+01  0.36519989635E+02  0.10566000000E+00 0. -1.
         22    1    1    0    0    0  0.20126959688E+02 -0.40065529154E+01  0.21921374612E+02  0.30028214024E+02  0.00000000000E+00 0.  1.
</event>
<event>
 5    1  0.9034917E-005  0.9118800E+02  0.7818608E-02  0.1130116E+00
         25   -1    0    0    0    0  0.00000000000E+00  0.00000000000E+00  0.99999998245E-14  0.12500000000E+03  0.12500000000E+03 0.  0.
        -13    1    3    3    0    0 -0.17165870389E+02  0.39215544635E+02 -0.29241567037E+02  0.51842130108E+02  0.10566000000E+00 0.  1.
         23    2    1    0    0    0 -0.11986534954E+02 -0.50015714195E+01 -0.25331267951E+02  0.96533074053E+02  0.92240275982E+02 0.  0.
         13    1    3    3    0    0  0.51793354351E+01 -0.44217116055E+02  0.39102990862E+01  0.44690943945E+02  0.10566000000E+00 0. -1.
         22    1    1    0    0    0  0.11986534954E+02  0.50015714195E+01  0.25331267951E+02  0.28466925947E+02  0.00000000000E+00 0. -1.
</event>
<event>
 5    1  0.9034917E-005  0.9118800E+02  0.7818608E-02  0.1130116E+00
         25   -1    0    0    0    0  0.00000000000E+00  0.00000000000E+00  0.99999998245E-14  0.12500000000E+03  0.12500000000E+03 0.  0.
        -13    1    3    3    0    0  0.29688522158E+02 -0.39157034135E+02  0.15519547574E+01  0.49164025443E+02  0.10566000000E+00 0.  1.
         23    2    1    0    0    0  0.54952320916E+01 -0.80435858445E+01  0.27146724555E+02  0.96158337374E+02  0.91731043510E+02 0.  0.
         13    1    3    3    0    0 -0.24193290067E+02  0.31113448291E+02  0.25594769798E+02  0.46994311930E+02  0.10566000000E+00 0. -1.
         22    1    1    0    0    0 -0.54952320916E+01  0.80435858445E+01 -0.27146724555E+02  0.28841662626E+02  0.00000000000E+00 0. -1.
</event>
<event>
 5    1  0.9034917E-005  0.9118800E+02  0.7818608E-02  0.1130116E+00
         25   -1    0    0    0    0  0.00000000000E+00  0.00000000000E+00  0.99999998245E-14  0.12500000000E+03  0.12500000000E+03 0.  0.
        -13    1    3    3    0    0  0.36940883772E+02 -0.40645546705E+01 -0.38447179940E+01  0.37362314155E+02  0.10566000000E+00 0. -1.
         23    2    1    0    0    0 -0.14065388562E+02 -0.90034403965E-01 -0.27792610827E+02  0.93850802929E+02  0.88530789741E+02 0.  0.
         13    1    3    3    0    0 -0.51006272334E+02  0.39745202666E+01 -0.23947892833E+02  0.56488488774E+02  0.10566000000E+00 0.  1.
         22    1    1    0    0    0  0.14065388562E+02  0.90034403965E-01  0.27792610827E+02  0.31149197071E+02  0.00000000000E+00 0.  1.
</event>
<event>
 5    1  0.9034917E-005  0.9118800E+02  0.7818608E-02  0.1130116E+00
         25   -1    0    0    0    0  0.00000000000E+00  0.00000000000E+00  0.99999998245E-14  0.12500000000E+03  0.12500000000E+03 0.  0.
        -13    1    3    3    0    0 -0.26821108455E+01  0.23141794115E+02 -0.26732248580E+02  0.35459281318E+02  0.10566000000E+00 0.  1.
         23    2    1    0    0    0  0.16095899051E+01 -0.28567132409E+02  0.45224288134E+01  0.96032359501E+02  0.91559215130E+02 0.  0.
         13    1    3    3    0    0  0.42917007506E+01 -0.51708926524E+02  0.31254677393E+02  0.60573078183E+02  0.10566000000E+00 0. -1.
         22    1    1    0    0    0 -0.16095899051E+01  0.28567132409E+02 -0.45224288134E+01  0.28967640499E+02  0.00000000000E+00 0. -1.
</event>
<event>
 5    1  0.9034917E-005  0.9118800E+02  0.7818608E-02  0.1130116E+00
         25   -1    0    0    0    0  0.00000000000E+00  0.00000000000E+00  0.99999998245E-14  0.12500000000E+03  0.12500000000E+03 0.  0.
        -13    1    3    3    0    0 -0.28391783831E+02 -0.33457130203E+02 -0.72901545510E+00  0.43886393997E+02  0.10566000000E+00 0.  1.
         23    2    1    0    0    0  0.14371697883E+02 -0.16117889244E+02 -0.21532707170E+02  0.94504270270E+02  0.89448686784E+02 0.  0.
         13    1    3    3    0    0  0.42763481714E+02  0.17339240958E+02 -0.20803691715E+02  0.50617876272E+02  0.10566000000E+00 0. -1.
         22    1    1    0    0    0 -0.14371697883E+02  0.16117889244E+02  0.21532707170E+02  0.30495729730E+02  0.00000000000E+00 0.  1.
</event>
<event>
 5    1  0.9034917E-005  0.9118800E+02  0.7818608E-02  0.1130116E+00
         25   -1    0    0    0    0  0.00000000000E+00  0.00000000000E+00  0.99999998245E-14  0.12500000000E+03  0.12500000000E+03 0.  0.
        -13    1    3    3    0    0  0.25355966036E+02  0.52058425918E+01  0.12843353538E+02  0.28896171110E+02  0.10566000000E+00 0. -1.
         23    2    1    0    0    0  0.39383514842E+01  0.32971290678E+02 -0.27166052847E+02  0.82097656840E+02  0.69995815660E+02 0.  0.
         13    1    3    3    0    0 -0.21417614552E+02  0.27765448086E+02 -0.40009406385E+02  0.53201485729E+02  0.10566000000E+00 0.  1.
         22    1    1    0    0    0 -0.39383514842E+01 -0.32971290678E+02  0.27166052847E+02  0.42902343160E+02  0.00000000000E+00 0.  1.
</event>
<event>
 5    1  0.9034917E-005  0.9118800E+02  0.7818608E-02  0.1130116E+00
         25   -1    0    0    0    0  0.00000000000E+00  0.00000000000E+00  0.99999998245E-14  0.12500000000E+03  0.12500000000E+03 0.  0.
        -13    1    3    3    0    0 -0.27455797842E+02 -0.20175273572E+02  0.44723922693E+02  0.56223686502E+02  0.10566000000E+00 0. -1.
         23    2    1    0    0    0 -0.94528182279E+01 -0.28247136768E+02  0.15671965392E+02  0.91341910226E+02  0.84914530891E+02 0.  0.
         13    1    3    3    0    0  0.18002979614E+02 -0.80718631961E+01 -0.29051957301E+02  0.35118223723E+02  0.10566000000E+00 0.  1.
         22    1    1    0    0    0  0.94528182279E+01  0.28247136768E+02 -0.15671965392E+02  0.33658089774E+02  0.00000000000E+00 0. -1.
</event>
<event>
 5    1  0.9034917E-005  0.9118800E+02  0.7818608E-02  0.1130116E+00
         25   -1    0    0    0    0  0.00000000000E+00  0.00000000000E+00  0.99999998245E-14  0.12500000000E+03  0.12500000000E+03 0.  0.
        -13    1    3    3    0    0 -0.20678235890E+02  0.35797020378E+02 -0.87789456433E+00  0.41349703389E+02  0.10566000000E+00 0. -1.
         23    2    1    0    0    0 -0.88286948098E+01 -0.11438956328E+02  0.24719602256E+02  0.96366901851E+02  0.92014811105E+02 0.  0.
         13    1    3    3    0    0  0.11849541080E+02 -0.47235976706E+02  0.25597496820E+02  0.55017198462E+02  0.10566000000E+00 0.  1.
         22    1    1    0    0    0  0.88286948098E+01  0.11438956328E+02 -0.24719602256E+02  0.28633098149E+02  0.00000000000E+00 0.  1.
</event>
<event>
 5    1  0.9034917E-005  0.9118800E+02  0.7818608E-02  0.1130116E+00
         25   -1    0    0    0    0  0.00000000000E+00  0.00000000000E+00  0.99999998245E-14  0.12500000000E+03  0.12500000000E+03 0.  0.
        -13    1    3    3    0    0  0.57313827224E+01  0.48559944923E+02 -0.23731005472E+02  0.54351529726E+02  0.10566000000E+00 0.  1.
         23    2    1    0    0    0 -0.19506885261E+02  0.21276807841E+02 -0.60596121234E+01  0.95505254306E+02  0.90836741336E+02 0.  0.
         13    1    3    3    0    0 -0.25238267984E+02 -0.27283137082E+02  0.17671393349E+02  0.41153724580E+02  0.10566000000E+00 0. -1.
         22    1    1    0    0    0  0.19506885261E+02 -0.21276807841E+02  0.60596121234E+01  0.29494745694E+02  0.00000000000E+00 0.  1.
</event>
<event>
 5    1  0.9034917E-005  0.9118800E+02  0.7818608E-02  0.1130116E+00
         25   -1    0    0    0    0  0.00000000000E+00  0.00000000000E+00  0.99999998245E-14  0.12500000000E+03  0.12500000000E+03 0.  0.
        -13    1    3    3    0    0  0.74097007648E+01 -0.46717606049E+02  0.35597702000E+02  0.59200050102E+02  0.10566000000E+00 0.  1.
         23    2    1    0    0    0  0.35431233306E+00 -0.36028354449E+02  0.10346689358E+02  0.87513711278E+02  0.79078617966E+02 0.  0.
         13    1    3    3    0    0 -0.70553884317E+01  0.10689251600E+02 -0.25251012642E+02  0.28313661176E+02  0.10566000000E+00 0. -1.
         22    1    1    0    0    0 -0.35431233306E+00  0.36028354449E+02 -0.10346689358E+02  0.37486288722E+02  0.00000000000E+00 0.  1.
</event>
<event>
 5    1  0.9034917E-005  0.9118800E+02  0.7818608E-02  0.1130116E+00
         25   -1    0    0    0    0  0.00000000000E+00  0.00000000000E+00  0.99999998245E-14  0.12500000000E+03  0.12500000000E+03 0.  0.
        -13    1    3    3    0    0  0.29632546804E+02 -0.32881903900E+01  0.38735539832E+02  0.48881010999E+02  0.10566000000E+00 0. -1.
         23    2    1    0    0    0  0.27334028364E+02 -0.62954930098E+01 -0.80488521347E+01  0.95818390046E+02  0.91266628685E+02 0.  0.
         13    1    3    3    0    0 -0.22985184402E+01 -0.30073026198E+01 -0.46784391967E+02  0.46937379047E+02  0.10566000000E+00 0.  1.
         22    1    1    0    0    0 -0.27334028364E+02  0.62954930098E+01  0.80488521347E+01  0.29181609954E+02  0.00000000000E+00 0.  1.
</event>
<event>
 5    1  0.9034917E-005  0.9118800E+02  0.7818608E-02  0.1130116E+00
         25   -1    0    0    0    0  0.00000000000E+00  0.00000000000E+00  0.99999998245E-14  0.12500000000E+03  0.12500000000E+03 0.  0.
        -13    1    3    3    0    0  0.70283194527E+01  0.51338779520E+02  0.26645553685E+01  0.51886207958E+02  0.10566000000E+00 0. -1.
         23    2    1    0    0    0  0.18477663466E+02  0.17276445112E+02  0.20902968832E+02  0.92184855496E+02  0.86146467565E+02 0.  0.
         13    1    3    3    0    0  0.11449344013E+02 -0.34062334408E+02  0.18238413463E+02  0.40298647538E+02  0.10566000000E+00 0.  1.
         22    1    1    0    0    0 -0.18477663466E+02 -0.17276445112E+02 -0.20902968832E+02  0.32815144504E+02  0.00000000000E+00 0. -1.
</event>
<event>
 5    1  0.9034917E-005  0.9118800E+02  0.7818608E-02  0.1130116E+00
         25   -1    0    0    0    0  0.00000000000E+00  0.00000000000E+00  0.99999998245E-14  0.12500000000E+03  0.12500000000E+03 0.  0.
        -13    1    3    3    0    0 -0.70004255594E+01 -0.17353836347E+02  0.32837429848E+02  0.37795099643E+02  0.10566000000E+00 0. -1.
         23    2    1    0    0    0 -0.19613457647E+02  0.24496668991E+02 -0.18029397650E+01  0.93567133374E+02  0.88129355742E+02 0.  0.
         13    1    3    3    0    0 -0.12613032088E+02  0.41850505338E+02 -0.34640369613E+02  0.55772033731E+02  0.10566000000E+00 0.  1.
         22    1    1    0    0    0  0.19613457647E+02 -0.24496668991E+02  0.18029397650E+01  0.31432866626E+02  0.00000000000E+00 0.  1.
</event>
<event>
 5    1  0.9034917E-005  0.9118800E+02  0.7818608E-02  0.1130116E+00
         25   -1    0    0    0    0  0.00000000000E+00  0.00000000000E+00  0.99999998245E-14  0.12500000000E+03  0.12500000000E+03 0.  0.
        -13    1    3    3    0    0 -0.13443016982E+02 -0.39582145059E+02  0.37060588738E+02  0.55865546759E+02  0.10566000000E+00 0. -1.
         23    2    1    0    0    0 -0.23854635517E+02 -0.16655381276E+02  0.70054656477E+01  0.95074727904E+02  0.90242351344E+02 0.  0.
         13    1    3    3    0    0 -0.10411618535E+02  0.22926763783E+02 -0.30055123090E+02  0.39209181145E+02  0.10566000000E+00 0.  1.
         22    1    1    0    0    0  0.23854635517E+02  0.16655381276E+02 -0.70054656477E+01  0.29925272096E+02  0.00000000000E+00 0. -1.
</event>
<event>
 5    1  0.9034917E-005  0.9118800E+02  0.7818608E-02  0.1130116E+00
         25   -1    0    0    0    0  0.00000000000E+00  0.00000000000E+00  0.99999998245E-14  0.12500000000E+03  0.12500000000E+03 0.  0.
        -13    1    3    3    0    0  0.48841948044E+01 -0.26176283802E+02  0.20089426499E+02  0.33356399891E+02  0.10566000000E+00 0. -1.
         23    2    1    0    0    0 -0.55732040082E+01  0.17430127265E+02 -0.23042020322E+02  0.95575441551E+02  0.90933274370E+02 0.  0.
         13    1    3    3    0    0 -0.10457398813E+02  0.43606411068E+02 -0.43131446821E+02  0.62219041660E+02  0.10566000000E+00 0.  1.
         22    1    1    0    0    0  0.55732040082E+01 -0.17430127265E+02  0.23042020322E+02  0.29424558449E+02  0.00000000000E+00 0.  1.
</event>
<event>
 5    1  0.9034917E-005  0.9118800E+02  0.7818608E-02  0.1130116E+00
         25   -1    0    0    0    0  0.00000000000E+00  0.00000000000E+00  0.99999998245E-14  0.12500000000E+03  0.12500000000E+03 0.  0.
        -13    1    3    3    0    0  0.64874718068E+01 -0.12975237589E+02 -0.55152320392E+02  0.57028358644E+02  0.10566000000E+00 0.  1.
         23    2    1    0    0    0  0.69983343510E+01 -0.22905778203E+02 -0.19281086998E+02  0.94252452544E+02  0.89096089341E+02 0.  0.
         13    1    3    3    0    0  0.51086254423E+00 -0.99305406137E+01  0.35871233394E+02  0.37224093900E+02  0.10566000000E+00 0. -1.
         22    1    1    0    0    0 -0.69983343510E+01  0.22905778203E+02  0.19281086998E+02  0.30747547456E+02  0.00000000000E+00 0.  1.
</event>
<event>
 4    1  0.9034917E-005  0.9118800E+02  0.7818608E-02  0.1130116E+00
         25   -1    0    0    0    0  0.00000000000E+00  0.00000000000E+00  0.99999998245E-14  0.12500000000E+03  0.12500000000E+03 0.  0.
        -13    1    1    0    0    0 -0.22096628266E+01 -0.39855004280E+02  0.14805095204E+01  0.39943798623E+02  0.10566000000E+00 0. -1.
         13    1    1    0    0    0 -0.15243673463E+02 -0.27304692909E+01  0.26861537711E+02  0.31006102874E+02  0.10566000000E+00 0.  1.
         22    1    1    0    0    0  0.17453336289E+02  0.42585473571E+02 -0.28342047231E+02  0.54050098503E+02  0.00000000000E+00 0.  1.
</event>
<event>
 5    1  0.9034917E-005  0.9118800E+02  0.7818608E-02  0.1130116E+00
         25   -1    0    0    0    0  0.00000000000E+00  0.00000000000E+00  0.99999998245E-14  0.12500000000E+03  0.12500000000E+03 0.  0.
        -13    1    3    3    0    0 -0.29090778840E+02 -0.39016966470E+02 -0.23472272886E+01  0.48724918943E+02  0.10566000000E+00 0.  1.
         23    2    1    0    0    0 -0.29037122946E+02  0.71208394715E+01  0.17964140716E+01  0.95048573201E+02  0.90206115648E+02 0.  0.
         13    1    3    3    0    0  0.53655893614E-01  0.46137805941E+02  0.41436413602E+01  0.46323654258E+02  0.10566000000E+00 0. -1.
         22    1    1    0    0    0  0.29037122946E+02 -0.71208394715E+01 -0.17964140716E+01  0.29951426799E+02  0.00000000000E+00 0.  1.
</event>
<event>
 5    1  0.9034917E-005  0.9118800E+02  0.7818608E-02  0.1130116E+00
         25   -1    0    0    0    0  0.00000000000E+00  0.00000000000E+00  0.99999998245E-14  0.12500000000E+03  0.12500000000E+03 0.  0.
        -13    1    3    3    0    0  0.40439450888E+02 -0.18823524609E+02  0.37488205419E+02  0.58267065967E+02  0.10566000000E+00 0.  1.
         23    2    1    0    0    0  0.58385986221E+01 -0.74378221303E+01  0.27326087641E+02  0.96084165277E+02  0.91629914981E+02 0.  0.
         13    1    3    3    0    0 -0.34600852266E+02  0.11385702479E+02 -0.10162117778E+02  0.37817099310E+02  0.10566000000E+00 0. -1.
         22    1    1    0    0    0 -0.58385986221E+01  0.74378221303E+01 -0.27326087641E+02  0.28915834723E+02  0.00000000000E+00 0.  1.
</event>
<event>
 5    1  0.9034917E-005  0.9118800E+02  0.7818608E-02  0.1130116E+00
         25   -1    0    0    0    0  0.00000000000E+00  0.00000000000E+00  0.99999998245E-14  0.12500000000E+03  0.12500000000E+03 0.  0.
        -13    1    3    3    0    0  0.41256405871E+02  0.32167180764E+02  0.29445016311E+02  0.60031980588E+02  0.10566000000E+00 0. -1.
         23    2    1    0    0    0  0.72717062773E+01  0.12064610889E+02  0.19838417520E+02  0.10066904528E+03  0.97684498867E+02 0.  0.
         13    1    3    3    0    0 -0.33984699594E+02 -0.20102569875E+02 -0.96065987908E+01  0.40637064688E+02  0.10566000000E+00 0.  1.
         22    1    1    0    0    0 -0.72717062773E+01 -0.12064610889E+02 -0.19838417520E+02  0.24330954724E+02  0.00000000000E+00 0. -1.
</event>
<event>
 5    1  0.9034917E-005  0.9118800E+02  0.7818608E-02  0.1130116E+00
         25   -1    0    0    0    0  0.00000000000E+00  0.00000000000E+00  0.99999998245E-14  0.12500000000E+03  0.12500000000E+03 0.  0.
        -13    1    3    3    0    0  0.15436834842E+02 -0.70518516414E+01 -0.73325199674E+01  0.18487874259E+02  0.10566000000E+00 0.  1.
         23    2    1    0    0    0 -0.39262325579E+02 -0.10354010562E+02 -0.26466703805E+02  0.76531224950E+02  0.59226735833E+02 0.  0.
         13    1    3    3    0    0 -0.54699160421E+02 -0.33021589206E+01 -0.19134183838E+02  0.58043350691E+02  0.10566000000E+00 0. -1.
         22    1    1    0    0    0  0.39262325579E+02  0.10354010562E+02  0.26466703805E+02  0.48468775050E+02  0.00000000000E+00 0. -1.
</event>
<event>
 5    1  0.9034917E-005  0.9118800E+02  0.7818608E-02  0.1130116E+00
         25   -1    0    0    0    0  0.00000000000E+00  0.00000000000E+00  0.99999998245E-14  0.12500000000E+03  0.12500000000E+03 0.  0.
        -13    1    3    3    0    0  0.52416406223E+02  0.27832363135E+02 -0.17668118758E+02  0.61921673616E+02  0.10566000000E+00 0. -1.
         23    2    1    0    0    0  0.22602561190E+02  0.11287993511E+02 -0.13731608708E+02  0.96244971786E+02  0.91849022567E+02 0.  0.
         13    1    3    3    0    0 -0.29813845032E+02 -0.16544369624E+02  0.39365100503E+01  0.34323298170E+02  0.10566000000E+00 0.  1.
         22    1    1    0    0    0 -0.22602561190E+02 -0.11287993511E+02  0.13731608708E+02  0.28755028214E+02  0.00000000000E+00 0. -1.
</event>
<event>
 5    1  0.9034917E-005  0.9118800E+02  0.7818608E-02  0.1130116E+00
         25   -1    0    0    0    0  0.00000000000E+00  0.00000000000E+00  0.99999998245E-14  0.12500000000E+03  0.12500000000E+03 0.  0.
        -13    1    3    3    0    0 -0.48238775416E+02 -0.26884756031E+01 -0.96604624585E+01  0.49270103041E+02  0.10566000000E+00 0. -1.
         23    2    1    0    0    0 -0.15957097336E+02 -0.19061376297E+01  0.24129538204E+02  0.96008674918E+02  0.91526874357E+02 0.  0.
         13    1    3    3    0    0  0.32281678079E+02  0.78233797341E+00  0.33790000663E+02  0.46738571877E+02  0.10566000000E+00 0.  1.
         22    1    1    0    0    0  0.15957097336E+02  0.19061376297E+01 -0.24129538204E+02  0.28991325082E+02  0.00000000000E+00 0.  1.
</event>
<event>
 5    1  0.9034917E-005  0.9118800E+02  0.7818608E-02  0.1130116E+00
         25   -1    0    0    0    0  0.00000000000E+00  0.00000000000E+00  0.99999998245E-14  0.12500000000E+03  0.12500000000E+03 0.  0.
        -13    1    3    3    0    0 -0.22700951292E+02  0.63596347374E+01 -0.25679544121E+02  0.34860124697E+02  0.10566000000E+00 0. -1.
         23    2    1    0    0    0  0.19352850255E+02  0.13306550190E+02  0.17635304573E+02  0.95629929208E+02  0.91008144152E+02 0.  0.
         13    1    3    3    0    0  0.42053801547E+02  0.69469154530E+01  0.43314848694E+02  0.60769804511E+02  0.10566000000E+00 0.  1.
         22    1    1    0    0    0 -0.19352850255E+02 -0.13306550190E+02 -0.17635304573E+02  0.29370070792E+02  0.00000000000E+00 0.  1.
</event>
<event>
 5    1  0.9034917E-005  0.9118800E+02  0.7818608E-02  0.1130116E+00
         25   -1    0    0    0    0  0.00000000000E+00  0.00000000000E+00  0.99999998245E-14  0.12500000000E+03  0.12500000000E+03 0.  0.
        -13    1    3    3    0    0 -0.30802799505E+02  0.36676534402E+02 -0.19244474525E+02  0.51617260649E+02  0.10566000000E+00 0.  1.
         23    2    1    0    0    0  0.87745566766E+01  0.15358132808E+02 -0.22137217631E+02  0.96664130635E+02  0.92417707496E+02 0.  0.
         13    1    3    3    0    0  0.39577356182E+02 -0.21318401593E+02 -0.28927431057E+01  0.45046869986E+02  0.10566000000E+00 0. -1.
         22    1    1    0    0    0 -0.87745566766E+01 -0.15358132808E+02  0.22137217631E+02  0.28335869365E+02  0.00000000000E+00 0.  1.
</event>
<event>
 5    1  0.9034917E-005  0.9118800E+02  0.7818608E-02  0.1130116E+00
         25   -1    0    0    0    0  0.00000000000E+00  0.00000000000E+00  0.99999998245E-14  0.12500000000E+03  0.12500000000E+03 0.  0.
        -13    1    3    3    0    0  0.73286730608E+01 -0.58556992200E+02  0.11249952450E+02  0.60076645866E+02  0.10566000000E+00 0. -1.
         23    2    1    0    0    0 -0.49422161169E+01 -0.25509134406E+02  0.14087527038E+02  0.95443277308E+02  0.90751415013E+02 0.  0.
         13    1    3    3    0    0 -0.12270889178E+02  0.33047857794E+02  0.28375745875E+01  0.35366631442E+02  0.10566000000E+00 0.  1.
         22    1    1    0    0    0  0.49422161169E+01  0.25509134406E+02 -0.14087527038E+02  0.29556722692E+02  0.00000000000E+00 0. -1.
</event>
<event>
 5    1  0.9034917E-005  0.9118800E+02  0.7818608E-02  0.1130116E+00
         25   -1    0    0    0    0  0.00000000000E+00  0.00000000000E+00  0.99999998245E-14  0.12500000000E+03  0.12500000000E+03 0.  0.
        -13    1    3    3    0    0  0.43193171308E+01  0.41281488290E+02 -0.12325637889E+02  0.43298386683E+02  0.10566000000E+00 0. -1.
         23    2    1    0    0    0  0.18127722229E+02  0.35624828386E+01  0.22096956268E+02  0.96197550911E+02  0.91784463434E+02 0.  0.
         13    1    3    3    0    0  0.13808405099E+02 -0.37719005451E+02  0.34422594157E+02  0.52899164229E+02  0.10566000000E+00 0.  1.
         22    1    1    0    0    0 -0.18127722229E+02 -0.35624828386E+01 -0.22096956268E+02  0.28802449089E+02  0.00000000000E+00 0.  1.
</event>
<event>
 5    1  0.9034917E-005  0.9118800E+02  0.7818608E-02  0.1130116E+00
         25   -1    0    0    0    0  0.00000000000E+00  0.00000000000E+00  0.99999998245E-14  0.12500000000E+03  0.12500000000E+03 0.  0.
        -13    1    3    3    0    0 -0.30459619845E+02 -0.22886888283E+02  0.22073567706E+02  0.44032393209E+02  0.10566000000E+00 0. -1.
         23    2    1    0    0    0  0.44763577385E+01 -0.23701232035E+02 -0.16265373686E+02  0.95907929607E+02  0.91389180989E+02 0.  0.
         13    1    3    3    0    0  0.34935977584E+02 -0.81434375170E+00 -0.38338941392E+02  0.51875536398E+02  0.10566000000E+00 0.  1.
         22    1    1    0    0    0 -0.44763577385E+01  0.23701232035E+02  0.16265373686E+02  0.29092070393E+02  0.00000000000E+00 0.  1.
</event>
<event>
 5    1  0.9034917E-005  0.9118800E+02  0.7818608E-02  0.1130116E+00
         25   -1    0    0    0    0  0.00000000000E+00  0.00000000000E+00  0.99999998245E-14  0.12500000000E+03  0.12500000000E+03 0.  0.
        -13    1    3    3    0    0  0.19304383311E+02 -0.27502126211E+02  0.29885865580E+02  0.44968903552E+02  0.10566000000E+00 0.  1.
         23    2    1    0    0    0  0.16237153142E+02  0.19941103997E+02  0.16813066837E+02  0.94275872881E+02  0.89128941541E+02 0.  0.
         13    1    3    3    0    0 -0.30672301694E+01  0.47443230208E+02 -0.13072798743E+02  0.49306969329E+02  0.10566000000E+00 0. -1.
         22    1    1    0    0    0 -0.16237153142E+02 -0.19941103997E+02 -0.16813066837E+02  0.30724127119E+02  0.00000000000E+00 0. -1.
</event>
<event>
 5    1  0.9034917E-005  0.9118800E+02  0.7818608E-02  0.1130116E+00
         25   -1    0    0    0    0  0.00000000000E+00  0.00000000000E+00  0.99999998245E-14  0.12500000000E+03  0.12500000000E+03 0.  0.
        -13    1    3    3    0    0 -0.26579340172E+02  0.10411930972E+02 -0.18626389170E+02  0.34085527253E+02  0.10566000000E+00 0.  1.
         23    2    1    0    0    0  0.36094866140E+01 -0.24513412475E+01  0.31062606059E+02  0.93632453671E+02  0.88221955418E+02 0.  0.
         13    1    3    3    0    0  0.30188826786E+02 -0.12863272219E+02  0.49688995229E+02  0.59546926418E+02  0.10566000000E+00 0. -1.
         22    1    1    0    0    0 -0.36094866140E+01  0.24513412475E+01 -0.31062606059E+02  0.31367546329E+02  0.00000000000E+00 0. -1.
</event>
<event>
 5    1  0.9034917E-005  0.9118800E+02  0.7818608E-02  0.1130116E+00
         25   -1    0    0    0    0  0.00000000000E+00  0.00000000000E+00  0.99999998245E-14  0.12500000000E+03  0.12500000000E+03 0.  0.
        -13    1    3    3    0    0  0.24477530255E+02  0.47502097690E+02 -0.14380363359E+02  0.55338998786E+02  0.10566000000E+00 0.  1.
         23    2    1    0    0    0  0.16350402864E+01  0.13852734636E+02 -0.24099782487E+02  0.97154513300E+02  0.93078613683E+02 0.  0.
         13    1    3    3    0    0 -0.22842489968E+02 -0.33649363053E+02 -0.97194191271E+01  0.41815514514E+02  0.10566000000E+00 0. -1.
         22    1    1    0    0    0 -0.16350402864E+01 -0.13852734636E+02  0.24099782487E+02  0.27845486700E+02  0.00000000000E+00 0. -1.
</event>
<event>
 5    1  0.9034917E-005  0.9118800E+02  0.7818608E-02  0.1130116E+00
         25   -1    0    0    0    0  0.00000000000E+00  0.00000000000E+00  0.99999998245E-14  0.12500000000E+03  0.12500000000E+03 0.  0.
        -13    1    3    3    0    0  0.66626289584E+01 -0.30597191676E+02  0.45095413266E+02  0.54901604937E+02  0.10566000000E+00 0.  1.
         23    2    1    0    0    0 -0.16655920135E+01 -0.28610270014E+02  0.49909854766E+01  0.95909938414E+02  0.91391928547E+02 0.  0.
         13    1    3    3    0    0 -0.83282209719E+01  0.19869216616E+01 -0.40104427789E+02  0.41008333477E+02  0.10566000000E+00 0. -1.
         22    1    1    0    0    0  0.16655920135E+01  0.28610270014E+02 -0.49909854766E+01  0.29090061586E+02  0.00000000000E+00 0.  1.
</event>
<event>
 5    1  0.9034917E-005  0.9118800E+02  0.7818608E-02  0.1130116E+00
         25   -1    0    0    0    0  0.00000000000E+00  0.00000000000E+00  0.99999998245E-14  0.12500000000E+03  0.12500000000E+03 0.  0.
        -13    1    3    3    0    0 -0.71579864548E+01  0.14747629970E+02  0.43451044990E+02  0.46440648516E+02  0.10566000000E+00 0. -1.
         23    2    1    0    0    0  0.28115515294E+02  0.34501877305E+01  0.16865965948E+02  0.92032640339E+02  0.85925316903E+02 0.  0.
         13    1    3    3    0    0  0.35273501749E+02 -0.11297442240E+02 -0.26585079041E+02  0.45591991824E+02  0.10566000000E+00 0.  1.
         22    1    1    0    0    0 -0.28115515294E+02 -0.34501877305E+01 -0.16865965948E+02  0.32967359661E+02  0.00000000000E+00 0. -1.
</event>
<event>
 5    1  0.9034917E-005  0.9118800E+02  0.7818608E-02  0.1130116E+00
         25   -1    0    0    0    0  0.00000000000E+00  0.00000000000E+00  0.99999998245E-14  0.12500000000E+03  0.12500000000E+03 0.  0.
        -13    1    3    3    0    0  0.32305899468E+02  0.23121281668E+02 -0.18837813549E+02  0.43967478774E+02  0.10566000000E+00 0.  1.
         23    2    1    0    0    0  0.90140019486E+01 -0.22951916745E+02 -0.15863909239E+02  0.95679250867E+02  0.91075862426E+02 0.  0.
         13    1    3    3    0    0 -0.23291897519E+02 -0.46073198413E+02  0.29739043105E+01  0.51711772093E+02  0.10566000000E+00 0. -1.
         22    1    1    0    0    0 -0.90140019486E+01  0.22951916745E+02  0.15863909239E+02  0.29320749133E+02  0.00000000000E+00 0. -1.
</event>
<event>
 5    1  0.9034917E-005  0.9118800E+02  0.7818608E-02  0.1130116E+00
         25   -1    0    0    0    0  0.00000000000E+00  0.00000000000E+00  0.99999998245E-14  0.12500000000E+03  0.12500000000E+03 0.  0.
        -13    1    3    3    0    0 -0.34397750330E+02  0.11267803160E+02  0.22576828059E+02  0.42660203294E+02  0.10566000000E+00 0. -1.
         23    2    1    0    0    0 -0.12265739503E+02 -0.10606097587E+02 -0.22396682949E+02  0.97349519377E+02  0.93340129870E+02 0.  0.
         13    1    3    3    0    0  0.22132010827E+02 -0.21873900747E+02 -0.44973511008E+02  0.54689316083E+02  0.10566000000E+00 0.  1.
         22    1    1    0    0    0  0.12265739503E+02  0.10606097587E+02  0.22396682949E+02  0.27650480623E+02  0.00000000000E+00 0.  1.
</event>
<event>
 5    1  0.9034917E-005  0.9118800E+02  0.7818608E-02  0.1130116E+00
         25   -1    0    0    0    0  0.00000000000E+00  0.00000000000E+00  0.99999998245E-14  0.12500000000E+03  0.12500000000E+03 0.  0.
        -13    1    3    3    0    0  0.17440168173E+01 -0.32982996624E+02  0.37814064175E+02  0.50207910477E+02  0.10566000000E+00 0. -1.
         23    2    1    0    0    0 -0.10788360192E+02  0.94270485190E+01  0.24890593665E+02  0.96280675280E+02  0.91897599642E+02 0.  0.
         13    1    3    3    0    0 -0.12532377010E+02  0.42410045143E+02 -0.12923470511E+02  0.46072764803E+02  0.10566000000E+00 0.  1.
         22    1    1    0    0    0  0.10788360192E+02 -0.94270485190E+01 -0.24890593665E+02  0.28719324720E+02  0.00000000000E+00 0.  1.
</event>
<event>
 5    1  0.9034917E-005  0.9118800E+02  0.7818608E-02  0.1130116E+00
         25   -1    0    0    0    0  0.00000000000E+00  0.00000000000E+00  0.99999998245E-14  0.12500000000E+03  0.12500000000E+03 0.  0.
        -13    1    3    3    0    0 -0.96129405939E+01  0.25156797268E+02  0.19231733412E+02  0.33092957101E+02  0.10566000000E+00 0. -1.
         23    2    1    0    0    0 -0.37594221156E+01 -0.21764500924E+02 -0.20508418263E+02  0.94859960605E+02  0.89944372537E+02 0.  0.
         13    1    3    3    0    0  0.58535184782E+01 -0.46921298192E+02 -0.39740151675E+02  0.61767003503E+02  0.10566000000E+00 0.  1.
         22    1    1    0    0    0  0.37594221156E+01  0.21764500924E+02  0.20508418263E+02  0.30140039395E+02  0.00000000000E+00 0.  1.
</event>
<event>
 5    1  0.9034917E-005  0.9118800E+02  0.7818608E-02  0.1130116E+00
         25   -1    0    0    0    0  0.00000000000E+00  0.00000000000E+00  0.99999998245E-14  0.12500000000E+03  0.12500000000E+03 0.  0.
        -13    1    3    3    0    0 -0.14072159758E+01  0.18649042739E+02  0.35686043230E+02  0.40289848564E+02  0.10566000000E+00 0.  1.
         23    2    1    0    0    0  0.19594424100E+02  0.17575625338E+02 -0.14673912586E+02  0.94864177920E+02  0.89950233352E+02 0.  0.
         13    1    3    3    0    0  0.21001640076E+02 -0.10734174006E+01 -0.50359955816E+02  0.54574329356E+02  0.10566000000E+00 0. -1.
         22    1    1    0    0    0 -0.19594424100E+02 -0.17575625338E+02  0.14673912586E+02  0.30135822080E+02  0.00000000000E+00 0. -1.
</event>
<event>
 5    1  0.9034917E-005  0.9118800E+02  0.7818608E-02  0.1130116E+00
         25   -1    0    0    0    0  0.00000000000E+00  0.00000000000E+00  0.99999998245E-14  0.12500000000E+03  0.12500000000E+03 0.  0.
        -13    1    3    3    0    0  0.15559579632E+02 -0.26673864845E+02 -0.19645858060E+02  0.36600088621E+02  0.10566000000E+00 0.  1.
         23    2    1    0    0    0  0.87035577284E+01  0.18935696662E+02  0.19019716338E+02  0.96785426908E+02  0.92581621972E+02 0.  0.
         13    1    3    3    0    0 -0.68560219039E+01  0.45609561507E+02  0.38665574398E+02  0.60185338287E+02  0.10566000000E+00 0. -1.
         22    1    1    0    0    0 -0.87035577284E+01 -0.18935696662E+02 -0.19019716338E+02  0.28214573092E+02  0.00000000000E+00 0. -1.
</event>
<event>
 5    1  0.9034917E-005  0.9118800E+02  0.7818608E-02  0.1130116E+00
         25   -1    0    0    0    0  0.00000000000E+00  0.00000000000E+00  0.99999998245E-14  0.12500000000E+03  0.12500000000E+03 0.  0.
        -13    1    3    3    0    0 -0.13182669642E+02 -0.30612040987E+02  0.10353352209E+02  0.34901044373E+02  0.10566000000E+00 0.  1.
         23    2    1    0    0    0  0.24891694179E+02  0.93723000068E+01 -0.13648475241E+02  0.95104894666E+02  0.90284127434E+02 0.  0.
         13    1    3    3    0    0  0.38074363822E+02  0.39984340994E+02 -0.24001827450E+02  0.60203850293E+02  0.10566000000E+00 0. -1.
         22    1    1    0    0    0 -0.24891694179E+02 -0.93723000068E+01  0.13648475241E+02  0.29895105334E+02  0.00000000000E+00 0. -1.
</event>
<event>
 5    1  0.9034917E-005  0.9118800E+02  0.7818608E-02  0.1130116E+00
         25   -1    0    0    0    0  0.00000000000E+00  0.00000000000E+00  0.99999998245E-14  0.12500000000E+03  0.12500000000E+03 0.  0.
        -13    1    3    3    0    0 -0.26348465693E+02  0.13191556976E+02  0.19245855409E+02  0.35194785612E+02  0.10566000000E+00 0. -1.
         23    2    1    0    0    0  0.19348526962E+02  0.71842043482E+01 -0.20392595462E+02  0.95985585696E+02  0.91495335532E+02 0.  0.
         13    1    3    3    0    0  0.45696992655E+02 -0.60073526275E+01 -0.39638450871E+02  0.60790800084E+02  0.10566000000E+00 0.  1.
         22    1    1    0    0    0 -0.19348526962E+02 -0.71842043482E+01  0.20392595462E+02  0.29014414304E+02  0.00000000000E+00 0.  1.
</event>
<event>
 5    1  0.9034917E-005  0.9118800E+02  0.7818608E-02  0.1130116E+00
         25   -1    0    0    0    0  0.00000000000E+00  0.00000000000E+00  0.99999998245E-14  0.12500000000E+03  0.12500000000E+03 0.  0.
        -13    1    3    3    0    0 -0.29564115163E+02  0.85192051451E+01  0.12436181682E+02  0.33185592364E+02  0.10566000000E+00 0.  1.
         23    2    1    0    0    0  0.21267950475E+02 -0.77854094447E+01 -0.19260333973E+02  0.95269564713E+02  0.90511828940E+02 0.  0.
         13    1    3    3    0    0  0.50832065638E+02 -0.16304614590E+02 -0.31696515655E+02  0.62083972349E+02  0.10566000000E+00 0. -1.
         22    1    1    0    0    0 -0.21267950475E+02  0.77854094447E+01  0.19260333973E+02  0.29730435287E+02  0.00000000000E+00 0. -1.
</event>
<event>
 5    1  0.9034917E-005  0.9118800E+02  0.7818608E-02  0.1130116E+00
         25   -1    0    0    0    0  0.00000000000E+00  0.00000000000E+00  0.99999998245E-14  0.12500000000E+03  0.12500000000E+03 0.  0.
        -13    1    3    3    0    0 -0.37413917462E+02  0.10544592393E+02  0.42234342237E+02  0.57399829937E+02  0.10566000000E+00 0. -1.
         23    2    1    0    0    0 -0.17690086442E+02 -0.13047127162E+02  0.19079143883E+02  0.95893636146E+02  0.91369628633E+02 0.  0.
         13    1    3    3    0    0  0.19723831020E+02 -0.23591719555E+02 -0.23155198354E+02  0.38493806209E+02  0.10566000000E+00 0.  1.
         22    1    1    0    0    0  0.17690086442E+02  0.13047127162E+02 -0.19079143883E+02  0.29106363854E+02  0.00000000000E+00 0. -1.
</event>
<event>
 5    1  0.9034917E-005  0.9118800E+02  0.7818608E-02  0.1130116E+00
         25   -1    0    0    0    0  0.00000000000E+00  0.00000000000E+00  0.99999998245E-14  0.12500000000E+03  0.12500000000E+03 0.  0.
        -13    1    3    3    0    0 -0.71780158753E+01  0.38111569606E+02 -0.26952103686E+02  0.47227562999E+02  0.10566000000E+00 0.  1.
         23    2    1    0    0    0 -0.22247373984E+02 -0.27694187906E+01 -0.25810124396E+02  0.90812606842E+02  0.84131752095E+02 0.  0.
         13    1    3    3    0    0 -0.15069358109E+02 -0.40880988396E+02  0.11419792899E+01  0.43585043843E+02  0.10566000000E+00 0. -1.
         22    1    1    0    0    0  0.22247373984E+02  0.27694187906E+01  0.25810124396E+02  0.34187393158E+02  0.00000000000E+00 0.  1.
</event>
<event>
 5    1  0.9034917E-005  0.9118800E+02  0.7818608E-02  0.1130116E+00
         25   -1    0    0    0    0  0.00000000000E+00  0.00000000000E+00  0.99999998245E-14  0.12500000000E+03  0.12500000000E+03 0.  0.
        -13    1    3    3    0    0  0.23046764151E+02  0.44376687860E+02 -0.22222614915E+02  0.54720193174E+02  0.10566000000E+00 0.  1.
         23    2    1    0    0    0 -0.90282685283E+01  0.18324052170E+02 -0.20471747164E+02  0.96079886714E+02  0.91624078049E+02 0.  0.
         13    1    3    3    0    0 -0.32075032680E+02 -0.26052635690E+02  0.17508677506E+01  0.41359693540E+02  0.10566000000E+00 0. -1.
         22    1    1    0    0    0  0.90282685283E+01 -0.18324052170E+02  0.20471747164E+02  0.28920113286E+02  0.00000000000E+00 0.  1.
</event>
<event>
 5    1  0.9034917E-005  0.9118800E+02  0.7818608E-02  0.1130116E+00
         25   -1    0    0    0    0  0.00000000000E+00  0.00000000000E+00  0.99999998245E-14  0.12500000000E+03  0.12500000000E+03 0.  0.
        -13    1    3    3    0    0  0.44487928719E+01  0.23727153309E+02  0.26679964746E+02  0.35980567603E+02  0.10566000000E+00 0. -1.
         23    2    1    0    0    0 -0.45230060907E+01 -0.24260631156E+02 -0.11322904469E+02  0.97847763006E+02  0.94005003864E+02 0.  0.
         13    1    3    3    0    0 -0.89717989626E+01 -0.47987784465E+02 -0.38002869214E+02  0.61867195403E+02  0.10566000000E+00 0.  1.
         22    1    1    0    0    0  0.45230060907E+01  0.24260631156E+02  0.11322904469E+02  0.27152236994E+02  0.00000000000E+00 0.  1.
</event>
<event>
 5    1  0.9034917E-005  0.9118800E+02  0.7818608E-02  0.1130116E+00
         25   -1    0    0    0    0  0.00000000000E+00  0.00000000000E+00  0.99999998245E-14  0.12500000000E+03  0.12500000000E+03 0.  0.
        -13    1    3    3    0    0  0.11761347992E+02  0.28497190937E+02  0.52314458199E+02  0.60722589689E+02  0.10566000000E+00 0.  1.
         23    2    1    0    0    0 -0.13762229389E+01  0.20810591225E+02  0.21756833796E+02  0.94861411553E+02  0.89946388968E+02 0.  0.
         13    1    3    3    0    0 -0.13137570931E+02 -0.76865997112E+01 -0.30557624403E+02  0.34138821864E+02  0.10566000000E+00 0. -1.
         22    1    1    0    0    0  0.13762229389E+01 -0.20810591225E+02 -0.21756833796E+02  0.30138588447E+02  0.00000000000E+00 0.  1.
</event>
<event>
 5    1  0.9034917E-005  0.9118800E+02  0.7818608E-02  0.1130116E+00
         25   -1    0    0    0    0  0.00000000000E+00  0.00000000000E+00  0.99999998245E-14  0.12500000000E+03  0.12500000000E+03 0.  0.
        -13    1    3    3    0    0  0.55351722765E+01  0.27448208460E+02  0.27148518885E+02  0.39001224616E+02  0.10566000000E+00 0. -1.
         23    2    1    0    0    0  0.25971291340E+02 -0.12984178590E+02 -0.62669599607E+01  0.95295258718E+02  0.90547306307E+02 0.  0.
         13    1    3    3    0    0  0.20436119063E+02 -0.40432387050E+02 -0.33415478846E+02  0.56294034102E+02  0.10566000000E+00 0.  1.
         22    1    1    0    0    0 -0.25971291340E+02  0.12984178590E+02  0.62669599607E+01  0.29704741282E+02  0.00000000000E+00 0.  1.
</event>
<event>
 5    1  0.9034917E-005  0.9118800E+02  0.7818608E-02  0.1130116E+00
         25   -1    0    0    0    0  0.00000000000E+00  0.00000000000E+00  0.99999998245E-14  0.12500000000E+03  0.12500000000E+03 0.  0.
        -13    1    3    3    0    0 -0.31885995622E+02  0.12274652549E+00 -0.10941805420E+02  0.33711512179E+02  0.10566000000E+00 0.  1.
         23    2    1    0    0    0  0.22266775143E+02  0.27065625668E+01  0.18963794541E+02  0.95627219070E+02  0.91004421692E+02 0.  0.
         13    1    3    3    0    0  0.54152770764E+02  0.25838160413E+01  0.29905599961E+02  0.61915706891E+02  0.10566000000E+00 0. -1.
         22    1    1    0    0    0 -0.22266775143E+02 -0.27065625668E+01 -0.18963794541E+02  0.29372780930E+02  0.00000000000E+00 0. -1.
</event>
<event>
 5    1  0.9034917E-005  0.9118800E+02  0.7818608E-02  0.1130116E+00
         25   -1    0    0    0    0  0.00000000000E+00  0.00000000000E+00  0.99999998245E-14  0.12500000000E+03  0.12500000000E+03 0.  0.
        -13    1    3    3    0    0 -0.47027957088E+01 -0.34381070261E+02 -0.26372137864E+01  0.34801441642E+02  0.10566000000E+00 0.  1.
         23    2    1    0    0    0 -0.13212761716E+02  0.25918306331E+02  0.17445714634E+01  0.95855889020E+02  0.91317973341E+02 0.  0.
         13    1    3    3    0    0 -0.85099660068E+01  0.60299376591E+02  0.43817852499E+01  0.61054447379E+02  0.10566000000E+00 0. -1.
         22    1    1    0    0    0  0.13212761716E+02 -0.25918306331E+02 -0.17445714634E+01  0.29144110980E+02  0.00000000000E+00 0. -1.
</event>
<event>
 5    1  0.9034917E-005  0.9118800E+02  0.7818608E-02  0.1130116E+00
         25   -1    0    0    0    0  0.00000000000E+00  0.00000000000E+00  0.99999998245E-14  0.12500000000E+03  0.12500000000E+03 0.  0.
        -13    1    3    3    0    0 -0.53250460992E+02  0.19323456383E+02 -0.42476131980E+01  0.56807226164E+02  0.10566000000E+00 0.  1.
         23    2    1    0    0    0 -0.20513586452E+02  0.19446740616E+02 -0.17085001294E+02  0.91971524120E+02  0.85836361934E+02 0.  0.
         13    1    3    3    0    0  0.32736874540E+02  0.12328423244E+00 -0.12837388096E+02  0.35164297957E+02  0.10566000000E+00 0. -1.
         22    1    1    0    0    0  0.20513586452E+02 -0.19446740616E+02  0.17085001294E+02  0.33028475880E+02  0.00000000000E+00 0.  1.
</event>
<event>
 5    1  0.9034917E-005  0.9118800E+02  0.7818608E-02  0.1130116E+00
         25   -1    0    0    0    0  0.00000000000E+00  0.00000000000E+00  0.99999998245E-14  0.12500000000E+03  0.12500000000E+03 0.  0.
        -13    1    3    3    0    0 -0.34452610821E+01  0.37259168425E+02 -0.10374331471E+01  0.37432644674E+02  0.10566000000E+00 0.  1.
         23    2    1    0    0    0 -0.18427184693E+02 -0.17653216628E+02  0.13431555651E+02  0.96162457105E+02  0.91736657211E+02 0.  0.
         13    1    3    3    0    0 -0.14981923610E+02 -0.54912385054E+02  0.14468988798E+02  0.58729812431E+02  0.10566000000E+00 0. -1.
         22    1    1    0    0    0  0.18427184693E+02  0.17653216628E+02 -0.13431555651E+02  0.28837542895E+02  0.00000000000E+00 0. -1.
</event>
<event>
 5    1  0.9034917E-005  0.9118800E+02  0.7818608E-02  0.1130116E+00
         25   -1    0    0    0    0  0.00000000000E+00  0.00000000000E+00  0.99999998245E-14  0.12500000000E+03  0.12500000000E+03 0.  0.
        -13    1    3    3    0    0  0.18892914147E+02 -0.31074791800E+02 -0.18254485277E+02  0.40691796313E+02  0.10566000000E+00 0. -1.
         23    2    1    0    0    0  0.21381749129E+02  0.87533449061E+01  0.18849552454E+02  0.95182121629E+02  0.90390986316E+02 0.  0.
         13    1    3    3    0    0  0.24888349816E+01  0.39828136706E+02  0.37104037731E+02  0.54490325316E+02  0.10566000000E+00 0.  1.
         22    1    1    0    0    0 -0.21381749129E+02 -0.87533449061E+01 -0.18849552454E+02  0.29817878371E+02  0.00000000000E+00 0.  1.
</event>
<event>
 5    1  0.9034917E-005  0.9118800E+02  0.7818608E-02  0.1130116E+00
         25   -1    0    0    0    0  0.00000000000E+00  0.00000000000E+00  0.99999998245E-14  0.12500000000E+03  0.12500000000E+03 0.  0.
        -13    1    3    3    0    0 -0.17994360452E+02  0.25287194931E+02 -0.13495953524E+02  0.33843628073E+02  0.10566000000E+00 0.  1.
         23    2    1    0    0    0  0.27345318356E+02 -0.84922992314E+01  0.94282770678E+01  0.94854055153E+02  0.89936165075E+02 0.  0.
         13    1    3    3    0    0  0.45339678808E+02 -0.33779494162E+02  0.22924230592E+02  0.61010427081E+02  0.10566000000E+00 0. -1.
         22    1    1    0    0    0 -0.27345318356E+02  0.84922992314E+01 -0.94282770678E+01  0.30145944847E+02  0.00000000000E+00 0. -1.
</event>
<event>
 5    1  0.9034917E-005  0.9118800E+02  0.7818608E-02  0.1130116E+00
         25   -1    0    0    0    0  0.00000000000E+00  0.00000000000E+00  0.99999998245E-14  0.12500000000E+03  0.12500000000E+03 0.  0.
        -13    1    3    3    0    0 -0.22308286694E+02  0.13642520912E+02 -0.26810787986E+02  0.37451402491E+02  0.10566000000E+00 0.  1.
         23    2    1    0    0    0  0.38517935276E+01 -0.27339457062E+02  0.68094740764E+01  0.96563207582E+02  0.92281102591E+02 0.  0.
         13    1    3    3    0    0  0.26160080221E+02 -0.40981977974E+02  0.33620262063E+02  0.59111805091E+02  0.10566000000E+00 0. -1.
         22    1    1    0    0    0 -0.38517935276E+01  0.27339457062E+02 -0.68094740764E+01  0.28436792418E+02  0.00000000000E+00 0. -1.
</event>
<event>
 5    1  0.9034917E-005  0.9118800E+02  0.7818608E-02  0.1130116E+00
         25   -1    0    0    0    0  0.00000000000E+00  0.00000000000E+00  0.99999998245E-14  0.12500000000E+03  0.12500000000E+03 0.  0.
        -13    1    3    3    0    0 -0.23037883738E+02 -0.18318921356E+02  0.96103629026E+01  0.30962835883E+02  0.10566000000E+00 0. -1.
         23    2    1    0    0    0  0.28634688096E+02  0.11246372859E+02 -0.83079920611E+01  0.93133889523E+02  0.87512698397E+02 0.  0.
         13    1    3    3    0    0  0.51672571834E+02  0.29565294215E+02 -0.17918354964E+02  0.62171053639E+02  0.10566000000E+00 0.  1.
         22    1    1    0    0    0 -0.28634688096E+02 -0.11246372859E+02  0.83079920611E+01  0.31866110477E+02  0.00000000000E+00 0.  1.
</event>
<event>
 5    1  0.9034917E-005  0.9118800E+02  0.7818608E-02  0.1130116E+00
         25   -1    0    0    0    0  0.00000000000E+00  0.00000000000E+00  0.99999998245E-14  0.12500000000E+03  0.12500000000E+03 0.  0.
        -13    1    3    3    0    0 -0.36368862875E+02 -0.11310872143E+02  0.15679550372E+02  0.41188462940E+02  0.10566000000E+00 0.  1.
         23    2    1    0    0    0 -0.36785998986E+01  0.27470300330E+02 -0.64767759818E+01  0.96537777238E+02  0.92246649313E+02 0.  0.
         13    1    3    3    0    0  0.32690262976E+02  0.38781172473E+02 -0.22156326353E+02  0.55349314299E+02  0.10566000000E+00 0. -1.
         22    1    1    0    0    0  0.36785998986E+01 -0.27470300330E+02  0.64767759818E+01  0.28462222762E+02  0.00000000000E+00 0. -1.
</event>
<event>
 5    1  0.9034917E-005  0.9118800E+02  0.7818608E-02  0.1130116E+00
         25   -1    0    0    0    0  0.00000000000E+00  0.00000000000E+00  0.99999998245E-14  0.12500000000E+03  0.12500000000E+03 0.  0.
        -13    1    3    3    0    0  0.28294428923E+02 -0.84215699270E+01 -0.20881750612E+02  0.36160146858E+02  0.10566000000E+00 0.  1.
         23    2    1    0    0    0 -0.65779110196E+01  0.16295492995E+02  0.22091584862E+02  0.96771466084E+02  0.92562770707E+02 0.  0.
         13    1    3    3    0    0 -0.34872339943E+02  0.24717062922E+02  0.42973335474E+02  0.60611319226E+02  0.10566000000E+00 0. -1.
         22    1    1    0    0    0  0.65779110196E+01 -0.16295492995E+02 -0.22091584862E+02  0.28228533916E+02  0.00000000000E+00 0. -1.
</event>
<event>
 5    1  0.9034917E-005  0.9118800E+02  0.7818608E-02  0.1130116E+00
         25   -1    0    0    0    0  0.00000000000E+00  0.00000000000E+00  0.99999998245E-14  0.12500000000E+03  0.12500000000E+03 0.  0.
        -13    1    3    3    0    0  0.39187476819E+02  0.22096821544E+02  0.57516272151E+01  0.45354385030E+02  0.10566000000E+00 0.  1.
         23    2    1    0    0    0 -0.96521544033E+01  0.23284280861E+02  0.15827895595E+02  0.95236866785E+02  0.90466660689E+02 0.  0.
         13    1    3    3    0    0 -0.48839631222E+02  0.11874593162E+01  0.10076268379E+02  0.49882481755E+02  0.10566000000E+00 0. -1.
         22    1    1    0    0    0  0.96521544033E+01 -0.23284280861E+02 -0.15827895595E+02  0.29763133215E+02  0.00000000000E+00 0. -1.
</event>
<event>
 5    1  0.9034917E-005  0.9118800E+02  0.7818608E-02  0.1130116E+00
         25   -1    0    0    0    0  0.00000000000E+00  0.00000000000E+00  0.99999998245E-14  0.12500000000E+03  0.12500000000E+03 0.  0.
        -13    1    3    3    0    0  0.23427867824E+02 -0.33710855276E+02 -0.14117651789E+02  0.43412049137E+02  0.10566000000E+00 0. -1.
         23    2    1    0    0    0 -0.19372487138E+02 -0.51170603870E+01 -0.21726619239E+02  0.95444568207E+02  0.90753193067E+02 0.  0.
         13    1    3    3    0    0 -0.42800354962E+02  0.28593794889E+02 -0.76089674502E+01  0.52032519070E+02  0.10566000000E+00 0.  1.
         22    1    1    0    0    0  0.19372487138E+02  0.51170603870E+01  0.21726619239E+02  0.29555431793E+02  0.00000000000E+00 0. -1.
</event>
<event>
 5    1  0.9034917E-005  0.9118800E+02  0.7818608E-02  0.1130116E+00
         25   -1    0    0    0    0  0.00000000000E+00  0.00000000000E+00  0.99999998245E-14  0.12500000000E+03  0.12500000000E+03 0.  0.
        -13    1    3    3    0    0 -0.45009025650E+02 -0.45046859927E+01  0.39509654589E+02  0.60059375252E+02  0.10566000000E+00 0. -1.
         23    2    1    0    0    0 -0.27780777754E+02  0.15959903863E+01  0.87662736986E+01  0.95825244603E+02  0.91276016295E+02 0.  0.
         13    1    3    3    0    0  0.17228247896E+02  0.61006763790E+01 -0.30743380890E+02  0.35765869351E+02  0.10566000000E+00 0.  1.
         22    1    1    0    0    0  0.27780777754E+02 -0.15959903863E+01 -0.87662736986E+01  0.29174755397E+02  0.00000000000E+00 0. -1.
</event>
<event>
 5    1  0.9034917E-005  0.9118800E+02  0.7818608E-02  0.1130116E+00
         25   -1    0    0    0    0  0.00000000000E+00  0.00000000000E+00  0.99999998245E-14  0.12500000000E+03  0.12500000000E+03 0.  0.
        -13    1    3    3    0    0 -0.63988278712E+01 -0.38336221449E+02  0.41212048600E+02  0.56648521490E+02  0.10566000000E+00 0.  1.
         23    2    1    0    0    0 -0.14960054179E+02 -0.20006990723E+02  0.30609697548E+01  0.99831519023E+02  0.96606830793E+02 0.  0.
         13    1    3    3    0    0 -0.85612263083E+01  0.18329230726E+02 -0.38151078845E+02  0.43182997534E+02  0.10566000000E+00 0. -1.
         22    1    1    0    0    0  0.14960054179E+02  0.20006990723E+02 -0.30609697548E+01  0.25168480977E+02  0.00000000000E+00 0.  1.
</event>
<event>
 5    1  0.9034917E-005  0.9118800E+02  0.7818608E-02  0.1130116E+00
         25   -1    0    0    0    0  0.00000000000E+00  0.00000000000E+00  0.99999998245E-14  0.12500000000E+03  0.12500000000E+03 0.  0.
        -13    1    3    3    0    0 -0.33348997170E+02  0.39583472777E+02 -0.35018747873E+02  0.62492645935E+02  0.10566000000E+00 0.  1.
         23    2    1    0    0    0 -0.14834016236E+02  0.17437947724E+02 -0.14690212154E+02  0.97798301677E+02  0.93939211298E+02 0.  0.
         13    1    3    3    0    0  0.18514980934E+02 -0.22145525053E+02  0.20328535719E+02  0.35305655742E+02  0.10566000000E+00 0. -1.
         22    1    1    0    0    0  0.14834016236E+02 -0.17437947724E+02  0.14690212154E+02  0.27201698323E+02  0.00000000000E+00 0.  1.
</event>
<event>
 5    1  0.9034917E-005  0.9118800E+02  0.7818608E-02  0.1130116E+00
         25   -1    0    0    0    0  0.00000000000E+00  0.00000000000E+00  0.99999998245E-14  0.12500000000E+03  0.12500000000E+03 0.  0.
        -13    1    3    3    0    0 -0.20170835102E+01 -0.28013666782E+02 -0.40065571225E+02  0.48929493295E+02  0.10566000000E+00 0. -1.
         23    2    1    0    0    0 -0.26737226080E+02 -0.34318197551E+00 -0.10901529320E+02  0.96123705677E+02  0.91683839466E+02 0.  0.
         13    1    3    3    0    0 -0.24720142570E+02  0.27670484806E+02  0.29164041905E+02  0.47194212382E+02  0.10566000000E+00 0.  1.
         22    1    1    0    0    0  0.26737226080E+02  0.34318197551E+00  0.10901529320E+02  0.28876294323E+02  0.00000000000E+00 0. -1.
</event>
<event>
 5    1  0.9034917E-005  0.9118800E+02  0.7818608E-02  0.1130116E+00
         25   -1    0    0    0    0  0.00000000000E+00  0.00000000000E+00  0.99999998245E-14  0.12500000000E+03  0.12500000000E+03 0.  0.
        -13    1    3    3    0    0 -0.16665480915E+01 -0.19686343319E+02  0.18036731161E+02  0.26751903312E+02  0.10566000000E+00 0.  1.
         23    2    1    0    0    0 -0.41953916886E+02  0.78769869227E+01 -0.72099892788E+01  0.81708407161E+02  0.69297199008E+02 0.  0.
         13    1    3    3    0    0 -0.40287368795E+02  0.27563330241E+02 -0.25246720439E+02  0.54956503850E+02  0.10566000000E+00 0. -1.
         22    1    1    0    0    0  0.41953916886E+02 -0.78769869227E+01  0.72099892788E+01  0.43291592839E+02  0.00000000000E+00 0. -1.
</event>
<event>
 5    1  0.9034917E-005  0.9118800E+02  0.7818608E-02  0.1130116E+00
         25   -1    0    0    0    0  0.00000000000E+00  0.00000000000E+00  0.99999998245E-14  0.12500000000E+03  0.12500000000E+03 0.  0.
        -13    1    3    3    0    0 -0.12666749846E+02  0.28070693113E+02 -0.13941086756E+02  0.33804961581E+02  0.10566000000E+00 0.  1.
         23    2    1    0    0    0  0.18869131865E+02 -0.21197422091E+02  0.67072776560E+01  0.95839025836E+02  0.91294887365E+02 0.  0.
         13    1    3    3    0    0  0.31535881711E+02 -0.49268115204E+02  0.20648364412E+02  0.62034064255E+02  0.10566000000E+00 0. -1.
         22    1    1    0    0    0 -0.18869131865E+02  0.21197422091E+02 -0.67072776560E+01  0.29160974164E+02  0.00000000000E+00 0. -1.
</event>
<event>
 5    1  0.9034917E-005  0.9118800E+02  0.7818608E-02  0.1130116E+00
         25   -1    0    0    0    0  0.00000000000E+00  0.00000000000E+00  0.99999998245E-14  0.12500000000E+03  0.12500000000E+03 0.  0.
        -13    1    3    3    0    0 -0.23090574766E+02 -0.31851235021E+02  0.30255385728E+02  0.49629379857E+02  0.10566000000E+00 0. -1.
         23    2    1    0    0    0 -0.77987259148E+01 -0.26758614608E+02 -0.11849470465E+02  0.94713806249E+02  0.89741024967E+02 0.  0.
         13    1    3    3    0    0  0.15291848852E+02  0.50926204124E+01 -0.42104856193E+02  0.45084426391E+02  0.10566000000E+00 0.  1.
         22    1    1    0    0    0  0.77987259148E+01  0.26758614608E+02  0.11849470465E+02  0.30286193751E+02  0.00000000000E+00 0. -1.
</event>
<event>
 5    1  0.9034917E-005  0.9118800E+02  0.7818608E-02  0.1130116E+00
         25   -1    0    0    0    0  0.00000000000E+00  0.00000000000E+00  0.99999998245E-14  0.12500000000E+03  0.12500000000E+03 0.  0.
        -13    1    3    3    0    0 -0.31271252277E+02 -0.21263669132E+02 -0.12915046981E+02  0.39960536114E+02  0.10566000000E+00 0.  1.
         23    2    1    0    0    0  0.10313301822E+02  0.99799835482E+00  0.23347166859E+02  0.99456891427E+02  0.96120876280E+02 0.  0.
         13    1    3    3    0    0  0.41584554100E+02  0.22261667487E+02  0.36262213840E+02  0.59496355314E+02  0.10566000000E+00 0. -1.
         22    1    1    0    0    0 -0.10313301822E+02 -0.99799835482E+00 -0.23347166859E+02  0.25543108573E+02  0.00000000000E+00 0. -1.
</event>
<event>
 5    1  0.9034917E-005  0.9118800E+02  0.7818608E-02  0.1130116E+00
         25   -1    0    0    0    0  0.00000000000E+00  0.00000000000E+00  0.99999998245E-14  0.12500000000E+03  0.12500000000E+03 0.  0.
        -13    1    3    3    0    0 -0.34386851268E+02  0.30770795487E+02 -0.28906635814E+02  0.54450915081E+02  0.10566000000E+00 0. -1.
         23    2    1    0    0    0 -0.30629096538E+02  0.15115476402E+01 -0.21817692429E+01  0.94256115274E+02  0.89101227929E+02 0.  0.
         13    1    3    3    0    0  0.37577547293E+01 -0.29259247847E+02  0.26724866571E+02  0.39805200193E+02  0.10566000000E+00 0.  1.
         22    1    1    0    0    0  0.30629096538E+02 -0.15115476402E+01  0.21817692429E+01  0.30743884726E+02  0.00000000000E+00 0. -1.
</event>
<event>
 5    1  0.9034917E-005  0.9118800E+02  0.7818608E-02  0.1130116E+00
         25   -1    0    0    0    0  0.00000000000E+00  0.00000000000E+00  0.99999998245E-14  0.12500000000E+03  0.12500000000E+03 0.  0.
        -13    1    3    3    0    0 -0.55449598461E+01 -0.42751417316E+02 -0.10452943234E+02  0.44358826050E+02  0.10566000000E+00 0. -1.
         23    2    1    0    0    0  0.27442014138E+02 -0.34064276270E+01 -0.96598543203E+01  0.95708692849E+02  0.91116262063E+02 0.  0.
         13    1    3    3    0    0  0.32986973984E+02  0.39344989689E+02  0.79308891355E+00  0.51349866799E+02  0.10566000000E+00 0.  1.
         22    1    1    0    0    0 -0.27442014138E+02  0.34064276270E+01  0.96598543203E+01  0.29291307151E+02  0.00000000000E+00 0. -1.
</event>
<event>
 5    1  0.9034917E-005  0.9118800E+02  0.7818608E-02  0.1130116E+00
         25   -1    0    0    0    0  0.00000000000E+00  0.00000000000E+00  0.99999998245E-14  0.12500000000E+03  0.12500000000E+03 0.  0.
        -13    1    3    3    0    0 -0.15149113483E+02 -0.80377126944E+01  0.37696637559E+02  0.41414346693E+02  0.10566000000E+00 0.  1.
         23    2    1    0    0    0  0.26418714684E+02 -0.12757636932E+02  0.34870597760E+01  0.95455704924E+02  0.90768531061E+02 0.  0.
         13    1    3    3    0    0  0.41567828167E+02 -0.47199242380E+01 -0.34209577783E+02  0.54041358231E+02  0.10566000000E+00 0. -1.
         22    1    1    0    0    0 -0.26418714684E+02  0.12757636932E+02 -0.34870597760E+01  0.29544295076E+02  0.00000000000E+00 0. -1.
</event>
<event>
 5    1  0.9034917E-005  0.9118800E+02  0.7818608E-02  0.1130116E+00
         25   -1    0    0    0    0  0.00000000000E+00  0.00000000000E+00  0.99999998245E-14  0.12500000000E+03  0.12500000000E+03 0.  0.
        -13    1    3    3    0    0 -0.20802669360E+02  0.12787229747E+02  0.51865144644E+02  0.57325986168E+02  0.10566000000E+00 0.  1.
         23    2    1    0    0    0 -0.59261072050E+01  0.22572649942E+02  0.18221163935E+02  0.95391655109E+02  0.90680283289E+02 0.  0.
         13    1    3    3    0    0  0.14876562155E+02  0.97854201952E+01 -0.33643980709E+02  0.38065668942E+02  0.10566000000E+00 0. -1.
         22    1    1    0    0    0  0.59261072050E+01 -0.22572649942E+02 -0.18221163935E+02  0.29608344891E+02  0.00000000000E+00 0.  1.
</event>
<event>
 5    1  0.9034917E-005  0.9118800E+02  0.7818608E-02  0.1130116E+00
         25   -1    0    0    0    0  0.00000000000E+00  0.00000000000E+00  0.99999998245E-14  0.12500000000E+03  0.12500000000E+03 0.  0.
        -13    1    3    3    0    0  0.15775487110E+01  0.29516887534E+02 -0.21471733261E+02  0.36534665770E+02  0.10566000000E+00 0.  1.
         23    2    1    0    0    0  0.33852258310E+02  0.13388736722E+01  0.99772904191E+01  0.89682662904E+02  0.82435827928E+02 0.  0.
         13    1    3    3    0    0  0.32274709599E+02 -0.28178013862E+02  0.31449023680E+02  0.53147997134E+02  0.10566000000E+00 0. -1.
         22    1    1    0    0    0 -0.33852258310E+02 -0.13388736722E+01 -0.99772904191E+01  0.35317337096E+02  0.00000000000E+00 0. -1.
</event>
<event>
 5    1  0.9034917E-005  0.9118800E+02  0.7818608E-02  0.1130116E+00
         25   -1    0    0    0    0  0.00000000000E+00  0.00000000000E+00  0.99999998245E-14  0.12500000000E+03  0.12500000000E+03 0.  0.
        -13    1    3    3    0    0 -0.45751714169E+01  0.34338717059E+02  0.22254223488E+02  0.41174522582E+02  0.10566000000E+00 0. -1.
         23    2    1    0    0    0  0.15395272023E+02  0.77777457194E+01 -0.22332019868E+02  0.96782508252E+02  0.92577681236E+02 0.  0.
         13    1    3    3    0    0  0.19970443440E+02 -0.26560971340E+02 -0.44586243356E+02  0.55607985670E+02  0.10566000000E+00 0.  1.
         22    1    1    0    0    0 -0.15395272023E+02 -0.77777457194E+01  0.22332019868E+02  0.28217491748E+02  0.00000000000E+00 0.  1.
</event>
<event>
 5    1  0.9034917E-005  0.9118800E+02  0.7818608E-02  0.1130116E+00
         25   -1    0    0    0    0  0.00000000000E+00  0.00000000000E+00  0.99999998245E-14  0.12500000000E+03  0.12500000000E+03 0.  0.
        -13    1    3    3    0    0  0.17147744486E+02  0.47259432322E+02  0.28927323753E+02  0.58002588803E+02  0.10566000000E+00 0. -1.
         23    2    1    0    0    0 -0.53656488359E+01  0.28469433614E+02  0.55555939030E+01  0.95501466793E+02  0.90831529208E+02 0.  0.
         13    1    3    3    0    0 -0.22513393321E+02 -0.18789998708E+02 -0.23371729850E+02  0.37498877990E+02  0.10566000000E+00 0.  1.
         22    1    1    0    0    0  0.53656488359E+01 -0.28469433614E+02 -0.55555939030E+01  0.29498533207E+02  0.00000000000E+00 0.  1.
</event>
<event>
 5    1  0.9034917E-005  0.9118800E+02  0.7818608E-02  0.1130116E+00
         25   -1    0    0    0    0  0.00000000000E+00  0.00000000000E+00  0.99999998245E-14  0.12500000000E+03  0.12500000000E+03 0.  0.
        -13    1    3    3    0    0 -0.34219343420E+02 -0.31492439449E+01  0.83449840263E+01  0.35362849489E+02  0.10566000000E+00 0. -1.
         23    2    1    0    0    0  0.25900310755E+02 -0.53772712758E+00  0.13550849362E+02  0.95764050107E+02  0.91192173605E+02 0.  0.
         13    1    3    3    0    0  0.60119654175E+02  0.26115168173E+01  0.52058653360E+01  0.60401200619E+02  0.10566000000E+00 0.  1.
         22    1    1    0    0    0 -0.25900310755E+02  0.53772712758E+00 -0.13550849362E+02  0.29235949893E+02  0.00000000000E+00 0.  1.
</event>
<event>
 5    1  0.9034917E-005  0.9118800E+02  0.7818608E-02  0.1130116E+00
         25   -1    0    0    0    0  0.00000000000E+00  0.00000000000E+00  0.99999998245E-14  0.12500000000E+03  0.12500000000E+03 0.  0.
        -13    1    3    3    0    0 -0.30001434928E+02  0.31188491824E+02  0.12835136629E+02  0.45139340007E+02  0.10566000000E+00 0. -1.
         23    2    1    0    0    0  0.12489008004E+02  0.27435533933E+02 -0.96368848466E+01  0.93352671635E+02  0.87824642947E+02 0.  0.
         13    1    3    3    0    0  0.42490442931E+02 -0.37529578905E+01 -0.22472021476E+02  0.48213331628E+02  0.10566000000E+00 0.  1.
         22    1    1    0    0    0 -0.12489008004E+02 -0.27435533933E+02  0.96368848466E+01  0.31647328365E+02  0.00000000000E+00 0.  1.
</event>
<event>
 5    1  0.9034917E-005  0.9118800E+02  0.7818608E-02  0.1130116E+00
         25   -1    0    0    0    0  0.00000000000E+00  0.00000000000E+00  0.99999998245E-14  0.12500000000E+03  0.12500000000E+03 0.  0.
        -13    1    3    3    0    0 -0.31874646412E+02 -0.15257719363E+02 -0.48445212087E+02  0.59964496348E+02  0.10566000000E+00 0.  1.
         23    2    1    0    0    0 -0.19720085994E+02 -0.10724528476E+02 -0.10212015077E+02  0.10033864248E+03  0.97260786655E+02 0.  0.
         13    1    3    3    0    0  0.12154560418E+02  0.45331908872E+01  0.38233197010E+02  0.40374146136E+02  0.10566000000E+00 0. -1.
         22    1    1    0    0    0  0.19720085994E+02  0.10724528476E+02  0.10212015077E+02  0.24661357517E+02  0.00000000000E+00 0.  1.
</event>
<event>
 5    1  0.9034917E-005  0.9118800E+02  0.7818608E-02  0.1130116E+00
         25   -1    0    0    0    0  0.00000000000E+00  0.00000000000E+00  0.99999998245E-14  0.12500000000E+03  0.12500000000E+03 0.  0.
        -13    1    3    3    0    0  0.25749745315E+02  0.25934282645E+02  0.13748728620E+02  0.39047088275E+02  0.10566000000E+00 0.  1.
         23    2    1    0    0    0  0.55502600289E+01 -0.24954417411E+02  0.17646343285E+02  0.93936810112E+02  0.88652143392E+02 0.  0.
         13    1    3    3    0    0 -0.20199485286E+02 -0.50888700056E+02  0.38976146650E+01  0.54889721836E+02  0.10566000000E+00 0. -1.
         22    1    1    0    0    0 -0.55502600289E+01  0.24954417411E+02 -0.17646343285E+02  0.31063189888E+02  0.00000000000E+00 0.  1.
</event>
<event>
 5    1  0.9034917E-005  0.9118800E+02  0.7818608E-02  0.1130116E+00
         25   -1    0    0    0    0  0.00000000000E+00  0.00000000000E+00  0.99999998245E-14  0.12500000000E+03  0.12500000000E+03 0.  0.
        -13    1    3    3    0    0  0.42440310223E+02 -0.41728210051E+02 -0.48524447563E+01  0.59715833998E+02  0.10566000000E+00 0. -1.
         23    2    1    0    0    0  0.24205082094E+02 -0.14974131207E+02 -0.13887102278E+02  0.93330421312E+02  0.87792968557E+02 0.  0.
         13    1    3    3    0    0 -0.18235228129E+02  0.26754078845E+02 -0.90346575220E+01  0.33614587314E+02  0.10566000000E+00 0.  1.
         22    1    1    0    0    0 -0.24205082094E+02  0.14974131207E+02  0.13887102278E+02  0.31669578688E+02  0.00000000000E+00 0. -1.
</event>
<event>
 5    1  0.9034917E-005  0.9118800E+02  0.7818608E-02  0.1130116E+00
         25   -1    0    0    0    0  0.00000000000E+00  0.00000000000E+00  0.99999998245E-14  0.12500000000E+03  0.12500000000E+03 0.  0.
        -13    1    3    3    0    0  0.11246657180E+02 -0.16885845828E+02 -0.41526186785E+02  0.46217468991E+02  0.10566000000E+00 0. -1.
         23    2    1    0    0    0 -0.60974564016E+01  0.21065149933E+02 -0.26582288597E+02  0.90539332808E+02  0.83724746652E+02 0.  0.
         13    1    3    3    0    0 -0.17344113581E+02  0.37950995760E+02  0.14943898187E+02  0.44321863817E+02  0.10566000000E+00 0.  1.
         22    1    1    0    0    0  0.60974564016E+01 -0.21065149933E+02  0.26582288597E+02  0.34460667192E+02  0.00000000000E+00 0.  1.
</event>
<event>
 5    1  0.9034917E-005  0.9118800E+02  0.7818608E-02  0.1130116E+00
         25   -1    0    0    0    0  0.00000000000E+00  0.00000000000E+00  0.99999998245E-14  0.12500000000E+03  0.12500000000E+03 0.  0.
        -13    1    3    3    0    0  0.25610599953E+02 -0.17176848788E+01  0.51975568575E+02  0.57968303098E+02  0.10566000000E+00 0. -1.
         23    2    1    0    0    0 -0.36940058613E+01 -0.55855184086E+01  0.28524352705E+02  0.95700129822E+02  0.91104513915E+02 0.  0.
         13    1    3    3    0    0 -0.29304605814E+02 -0.38678335298E+01 -0.23451215871E+02  0.37731826725E+02  0.10566000000E+00 0.  1.
         22    1    1    0    0    0  0.36940058613E+01  0.55855184086E+01 -0.28524352705E+02  0.29299870178E+02  0.00000000000E+00 0. -1.
</event>
<event>
 5    1  0.9034917E-005  0.9118800E+02  0.7818608E-02  0.1130116E+00
         25   -1    0    0    0    0  0.00000000000E+00  0.00000000000E+00  0.99999998245E-14  0.12500000000E+03  0.12500000000E+03 0.  0.
        -13    1    3    3    0    0 -0.17733348637E+02 -0.30362259936E+02 -0.33467146766E+01  0.35320675892E+02  0.10566000000E+00 0.  1.
         23    2    1    0    0    0  0.23219316291E+01  0.16950551021E+02  0.25530788073E+02  0.94266733235E+02  0.89116122608E+02 0.  0.
         13    1    3    3    0    0  0.20055280266E+02  0.47312810957E+02  0.28877502750E+02  0.58946057343E+02  0.10566000000E+00 0. -1.
         22    1    1    0    0    0 -0.23219316291E+01 -0.16950551021E+02 -0.25530788073E+02  0.30733266765E+02  0.00000000000E+00 0. -1.
</event>
<event>
 5    1  0.9034917E-005  0.9118800E+02  0.7818608E-02  0.1130116E+00
         25   -1    0    0    0    0  0.00000000000E+00  0.00000000000E+00  0.99999998245E-14  0.12500000000E+03  0.12500000000E+03 0.  0.
        -13    1    3    3    0    0 -0.19659594825E+02 -0.21168935495E+02 -0.25549118960E+02  0.38566723251E+02  0.10566000000E+00 0. -1.
         23    2    1    0    0    0  0.29457503868E+02 -0.64849305706E+01 -0.16482372381E+02  0.90627518886E+02  0.83856304006E+02 0.  0.
         13    1    3    3    0    0  0.49117098692E+02  0.14684004925E+02  0.90667465793E+01  0.52060795635E+02  0.10566000000E+00 0.  1.
         22    1    1    0    0    0 -0.29457503868E+02  0.64849305706E+01  0.16482372381E+02  0.34372481114E+02  0.00000000000E+00 0.  1.
</event>
<event>
 5    1  0.9034917E-005  0.9118800E+02  0.7818608E-02  0.1130116E+00
         25   -1    0    0    0    0  0.00000000000E+00  0.00000000000E+00  0.99999998245E-14  0.12500000000E+03  0.12500000000E+03 0.  0.
        -13    1    3    3    0    0  0.10107931269E+02 -0.43952891215E+02 -0.23931759894E+00  0.45100946305E+02  0.10566000000E+00 0.  1.
         23    2    1    0    0    0 -0.26322847341E+02 -0.93235863609E+01  0.78063380853E+01  0.96004130137E+02  0.91520667253E+02 0.  0.
         13    1    3    3    0    0 -0.36430778611E+02  0.34629304854E+02  0.80456556842E+01  0.50903183832E+02  0.10566000000E+00 0. -1.
         22    1    1    0    0    0  0.26322847341E+02  0.93235863609E+01 -0.78063380853E+01  0.28995869863E+02  0.00000000000E+00 0. -1.
</event>
<event>
 5    1  0.9034917E-005  0.9118800E+02  0.7818608E-02  0.1130116E+00
         25   -1    0    0    0    0  0.00000000000E+00  0.00000000000E+00  0.99999998245E-14  0.12500000000E+03  0.12500000000E+03 0.  0.
        -13    1    3    3    0    0  0.56753888855E+02  0.90072452478E+01 -0.23698884171E+02  0.62159332703E+02  0.10566000000E+00 0. -1.
         23    2    1    0    0    0  0.25334605510E+02  0.32796941234E+01 -0.15452536772E+02  0.95144020321E+02  0.90338281367E+02 0.  0.
         13    1    3    3    0    0 -0.31419283345E+02 -0.57275511243E+01  0.82463473983E+01  0.32984687618E+02  0.10566000000E+00 0.  1.
         22    1    1    0    0    0 -0.25334605510E+02 -0.32796941234E+01  0.15452536772E+02  0.29855979679E+02  0.00000000000E+00 0. -1.
</event>
<event>
 5    1  0.9034917E-005  0.9118800E+02  0.7818608E-02  0.1130116E+00
         25   -1    0    0    0    0  0.00000000000E+00  0.00000000000E+00  0.99999998245E-14  0.12500000000E+03  0.12500000000E+03 0.  0.
        -13    1    3    3    0    0 -0.10367081949E+02  0.34023816681E+02 -0.50754852642E+02  0.61977114489E+02  0.10566000000E+00 0.  1.
         23    2    1    0    0    0 -0.19240236061E+01  0.19992707927E+02 -0.20995810705E+02  0.95944289645E+02  0.91438899880E+02 0.  0.
         13    1    3    3    0    0  0.84430583429E+01 -0.14031108754E+02  0.29759041937E+02  0.33967175156E+02  0.10566000000E+00 0. -1.
         22    1    1    0    0    0  0.19240236061E+01 -0.19992707927E+02  0.20995810705E+02  0.29055710355E+02  0.00000000000E+00 0.  1.
</event>
<event>
 5    1  0.9034917E-005  0.9118800E+02  0.7818608E-02  0.1130116E+00
         25   -1    0    0    0    0  0.00000000000E+00  0.00000000000E+00  0.99999998245E-14  0.12500000000E+03  0.12500000000E+03 0.  0.
        -13    1    3    3    0    0  0.43412096183E+02  0.11505142429E+02  0.32613013968E+02  0.55503137221E+02  0.10566000000E+00 0. -1.
         23    2    1    0    0    0  0.85089391266E+01 -0.12088093706E+02  0.21207088247E+02  0.99149184801E+02  0.95719884038E+02 0.  0.
         13    1    3    3    0    0 -0.34903157056E+02 -0.23593236135E+02 -0.11405925721E+02  0.43646047580E+02  0.10566000000E+00 0.  1.
         22    1    1    0    0    0 -0.85089391266E+01  0.12088093706E+02 -0.21207088247E+02  0.25850815199E+02  0.00000000000E+00 0. -1.
</event>
<event>
 5    1  0.9034917E-005  0.9118800E+02  0.7818608E-02  0.1130116E+00
         25   -1    0    0    0    0  0.00000000000E+00  0.00000000000E+00  0.99999998245E-14  0.12500000000E+03  0.12500000000E+03 0.  0.
        -13    1    3    3    0    0  0.11663481382E+02 -0.55362535392E+02 -0.22481231990E+01  0.56622542728E+02  0.10566000000E+00 0.  1.
         23    2    1    0    0    0  0.18103081172E+02 -0.18891642106E+02  0.11884031624E+02  0.96262465363E+02  0.91872826999E+02 0.  0.
         13    1    3    3    0    0  0.64395997898E+01  0.36470893286E+02  0.14132154823E+02  0.39639922635E+02  0.10566000000E+00 0. -1.
         22    1    1    0    0    0 -0.18103081172E+02  0.18891642106E+02 -0.11884031624E+02  0.28737534637E+02  0.00000000000E+00 0.  1.
</event>
<event>
 5    1  0.9034917E-005  0.9118800E+02  0.7818608E-02  0.1130116E+00
         25   -1    0    0    0    0  0.00000000000E+00  0.00000000000E+00  0.99999998245E-14  0.12500000000E+03  0.12500000000E+03 0.  0.
        -13    1    3    3    0    0 -0.17872469586E+02  0.18483205613E+02 -0.26413893313E+02  0.36861348087E+02  0.10566000000E+00 0. -1.
         23    2    1    0    0    0  0.69361297486E+01 -0.29129793817E+02 -0.51070650428E+01  0.94623415316E+02  0.89615031268E+02 0.  0.
         13    1    3    3    0    0  0.24808599335E+02 -0.47612999429E+02  0.21306828270E+02  0.57762067229E+02  0.10566000000E+00 0.  1.
         22    1    1    0    0    0 -0.69361297486E+01  0.29129793817E+02  0.51070650428E+01  0.30376584684E+02  0.00000000000E+00 0.  1.
</event>
<event>
 5    1  0.9034917E-005  0.9118800E+02  0.7818608E-02  0.1130116E+00
         25   -1    0    0    0    0  0.00000000000E+00  0.00000000000E+00  0.99999998245E-14  0.12500000000E+03  0.12500000000E+03 0.  0.
        -13    1    3    3    0    0 -0.21773228877E+02  0.22736384844E+02  0.33528197997E+02  0.45990954725E+02  0.10566000000E+00 0.  1.
         23    2    1    0    0    0 -0.30525043087E+02 -0.99039692182E+01  0.10046805593E+01  0.92892738442E+02  0.87167566276E+02 0.  0.
         13    1    3    3    0    0 -0.87518142101E+01 -0.32640354062E+02 -0.32523517438E+02  0.46901783717E+02  0.10566000000E+00 0. -1.
         22    1    1    0    0    0  0.30525043087E+02  0.99039692182E+01 -0.10046805593E+01  0.32107261558E+02  0.00000000000E+00 0. -1.
</event>
<event>
 5    1  0.9034917E-005  0.9118800E+02  0.7818608E-02  0.1130116E+00
         25   -1    0    0    0    0  0.00000000000E+00  0.00000000000E+00  0.99999998245E-14  0.12500000000E+03  0.12500000000E+03 0.  0.
        -13    1    3    3    0    0 -0.50889302178E+02 -0.16515338437E+02  0.22482330627E+02  0.58033988613E+02  0.10566000000E+00 0. -1.
         23    2    1    0    0    0 -0.30218732568E+02  0.55099955190E+01  0.20008667700E+02  0.88341049773E+02  0.80375757808E+02 0.  0.
         13    1    3    3    0    0  0.20670569610E+02  0.22025333956E+02 -0.24736629266E+01  0.30307061160E+02  0.10566000000E+00 0.  1.
         22    1    1    0    0    0  0.30218732568E+02 -0.55099955190E+01 -0.20008667700E+02  0.36658950227E+02  0.00000000000E+00 0. -1.
</event>
<event>
 5    1  0.9034917E-005  0.9118800E+02  0.7818608E-02  0.1130116E+00
         25   -1    0    0    0    0  0.00000000000E+00  0.00000000000E+00  0.99999998245E-14  0.12500000000E+03  0.12500000000E+03 0.  0.
        -13    1    3    3    0    0  0.23883694235E+01  0.20059580520E+02 -0.28797291512E+02  0.35176501270E+02  0.10566000000E+00 0. -1.
         23    2    1    0    0    0 -0.27585684941E+01 -0.30081904117E+02  0.27934106833E+01  0.94662996215E+02  0.89670223897E+02 0.  0.
         13    1    3    3    0    0 -0.51469379176E+01 -0.50141484637E+02  0.31590702196E+02  0.59486494944E+02  0.10566000000E+00 0.  1.
         22    1    1    0    0    0  0.27585684941E+01  0.30081904117E+02 -0.27934106833E+01  0.30337003785E+02  0.00000000000E+00 0.  1.
</event>
<event>
 5    1  0.9034917E-005  0.9118800E+02  0.7818608E-02  0.1130116E+00
         25   -1    0    0    0    0  0.00000000000E+00  0.00000000000E+00  0.99999998245E-14  0.12500000000E+03  0.12500000000E+03 0.  0.
        -13    1    3    3    0    0  0.13586997704E+02 -0.26368608403E+02 -0.24501252103E+02  0.38473790226E+02  0.10566000000E+00 0. -1.
         23    2    1    0    0    0  0.10765664341E+02  0.13074925310E+02 -0.40476267193E+02  0.81123110794E+02  0.68233259474E+02 0.  0.
         13    1    3    3    0    0 -0.28213333625E+01  0.39443533713E+02 -0.15975015090E+02  0.42649320568E+02  0.10566000000E+00 0.  1.
         22    1    1    0    0    0 -0.10765664341E+02 -0.13074925310E+02  0.40476267193E+02  0.43876889206E+02  0.00000000000E+00 0.  1.
</event>
<event>
 5    1  0.9034917E-005  0.9118800E+02  0.7818608E-02  0.1130116E+00
         25   -1    0    0    0    0  0.00000000000E+00  0.00000000000E+00  0.99999998245E-14  0.12500000000E+03  0.12500000000E+03 0.  0.
        -13    1    3    3    0    0 -0.10524208543E+02 -0.40205816550E+02  0.99895282842E+01  0.42744221706E+02  0.10566000000E+00 0.  1.
         23    2    1    0    0    0 -0.16241133323E+02  0.13691152790E+02  0.17521007403E+02  0.97464427067E+02  0.93493886253E+02 0.  0.
         13    1    3    3    0    0 -0.57169247792E+01  0.53896969340E+02  0.75314791191E+01  0.54720205361E+02  0.10566000000E+00 0. -1.
         22    1    1    0    0    0  0.16241133323E+02 -0.13691152790E+02 -0.17521007403E+02  0.27535572933E+02  0.00000000000E+00 0. -1.
</event>
<event>
 5    1  0.9034917E-005  0.9118800E+02  0.7818608E-02  0.1130116E+00
         25   -1    0    0    0    0  0.00000000000E+00  0.00000000000E+00  0.99999998245E-14  0.12500000000E+03  0.12500000000E+03 0.  0.
        -13    1    3    3    0    0  0.34817945020E+02  0.86807316219E+01  0.17186369417E+02  0.39787270008E+02  0.10566000000E+00 0. -1.
         23    2    1    0    0    0 -0.19696766891E+02  0.15975470546E+02  0.16409019889E+02  0.94793473903E+02  0.89851925276E+02 0.  0.
         13    1    3    3    0    0 -0.54514711911E+02  0.72947389242E+01 -0.77734952875E+00  0.55006203896E+02  0.10566000000E+00 0.  1.
         22    1    1    0    0    0  0.19696766891E+02 -0.15975470546E+02 -0.16409019889E+02  0.30206526097E+02  0.00000000000E+00 0. -1.
</event>
<event>
 5    1  0.9034917E-005  0.9118800E+02  0.7818608E-02  0.1130116E+00
         25   -1    0    0    0    0  0.00000000000E+00  0.00000000000E+00  0.99999998245E-14  0.12500000000E+03  0.12500000000E+03 0.  0.
        -13    1    3    3    0    0  0.29523313127E+02  0.27014081918E+02  0.75195417107E+01  0.40717825475E+02  0.10566000000E+00 0. -1.
         23    2    1    0    0    0 -0.22115187118E+02  0.15290427070E+02 -0.97267298612E+01  0.96408254075E+02  0.92070970012E+02 0.  0.
         13    1    3    3    0    0 -0.51638500245E+02 -0.11723654848E+02 -0.17246271572E+02  0.55690428600E+02  0.10566000000E+00 0.  1.
         22    1    1    0    0    0  0.22115187118E+02 -0.15290427070E+02  0.97267298612E+01  0.28591745925E+02  0.00000000000E+00 0.  1.
</event>
<event>
 5    1  0.9034917E-005  0.9118800E+02  0.7818608E-02  0.1130116E+00
         25   -1    0    0    0    0  0.00000000000E+00  0.00000000000E+00  0.99999998245E-14  0.12500000000E+03  0.12500000000E+03 0.  0.
        -13    1    3    3    0    0  0.31315776648E+02  0.27140052684E+02  0.16029825704E+02  0.44432272088E+02  0.10566000000E+00 0. -1.
         23    2    1    0    0    0 -0.18348941712E+02  0.19873738798E+02  0.13698783374E+02  0.94679943573E+02  0.89693845348E+02 0.  0.
         13    1    3    3    0    0 -0.49664718360E+02 -0.72663138858E+01 -0.23310423297E+01  0.50247671485E+02  0.10566000000E+00 0.  1.
         22    1    1    0    0    0  0.18348941712E+02 -0.19873738798E+02 -0.13698783374E+02  0.30320056427E+02  0.00000000000E+00 0.  1.
</event>
<event>
 5    1  0.9034917E-005  0.9118800E+02  0.7818608E-02  0.1130116E+00
         25   -1    0    0    0    0  0.00000000000E+00  0.00000000000E+00  0.99999998245E-14  0.12500000000E+03  0.12500000000E+03 0.  0.
        -13    1    3    3    0    0  0.44514199874E+02  0.14886297591E+02 -0.26425006684E+02  0.53864719331E+02  0.10566000000E+00 0. -1.
         23    2    1    0    0    0  0.27966778478E+02  0.14026357831E+01  0.93111735973E+01  0.95490577109E+02  0.90816541870E+02 0.  0.
         13    1    3    3    0    0 -0.16547421396E+02 -0.13483661808E+02  0.35736180281E+02  0.41625857778E+02  0.10566000000E+00 0.  1.
         22    1    1    0    0    0 -0.27966778478E+02 -0.14026357831E+01 -0.93111735973E+01  0.29509422891E+02  0.00000000000E+00 0. -1.
</event>
<event>
 5    1  0.9034917E-005  0.9118800E+02  0.7818608E-02  0.1130116E+00
         25   -1    0    0    0    0  0.00000000000E+00  0.00000000000E+00  0.99999998245E-14  0.12500000000E+03  0.12500000000E+03 0.  0.
        -13    1    3    3    0    0  0.30306401613E+02  0.17536478610E+02  0.47408641232E+01  0.35334020680E+02  0.10566000000E+00 0. -1.
         23    2    1    0    0    0 -0.20512339349E+02  0.30767396490E+02  0.34253222979E+01  0.87863473706E+02  0.79629570051E+02 0.  0.
         13    1    3    3    0    0 -0.50818740961E+02  0.13230917881E+02 -0.13155418254E+01  0.52529453026E+02  0.10566000000E+00 0.  1.
         22    1    1    0    0    0  0.20512339349E+02 -0.30767396490E+02 -0.34253222979E+01  0.37136526294E+02  0.00000000000E+00 0.  1.
</event>
<event>
 5    1  0.9034917E-005  0.9118800E+02  0.7818608E-02  0.1130116E+00
         25   -1    0    0    0    0  0.00000000000E+00  0.00000000000E+00  0.99999998245E-14  0.12500000000E+03  0.12500000000E+03 0.  0.
        -13    1    3    3    0    0  0.34268820138E+02  0.40736920925E+02 -0.78938288872E+01  0.53816098508E+02  0.10566000000E+00 0.  1.
         23    2    1    0    0    0  0.92074277349E+01  0.19516321335E+02  0.18989171597E+02  0.96255397691E+02  0.91863210388E+02 0.  0.
         13    1    3    3    0    0 -0.25061392403E+02 -0.21220599589E+02  0.26883000484E+02  0.42439299183E+02  0.10566000000E+00 0. -1.
         22    1    1    0    0    0 -0.92074277349E+01 -0.19516321335E+02 -0.18989171597E+02  0.28744602309E+02  0.00000000000E+00 0.  1.
</event>
<event>
 5    1  0.9034917E-005  0.9118800E+02  0.7818608E-02  0.1130116E+00
         25   -1    0    0    0    0  0.00000000000E+00  0.00000000000E+00  0.99999998245E-14  0.12500000000E+03  0.12500000000E+03 0.  0.
        -13    1    3    3    0    0 -0.35801793404E+02 -0.20554119944E+02 -0.79486098384E+01  0.42040835149E+02  0.10566000000E+00 0. -1.
         23    2    1    0    0    0  0.89662499395E+01  0.20066468703E+01 -0.27618520794E+02  0.95893248885E+02  0.91369098831E+02 0.  0.
         13    1    3    3    0    0  0.44768043344E+02  0.22560766815E+02 -0.19669910955E+02  0.53852413735E+02  0.10566000000E+00 0.  1.
         22    1    1    0    0    0 -0.89662499395E+01 -0.20066468703E+01  0.27618520794E+02  0.29106751115E+02  0.00000000000E+00 0.  1.
</event>
<event>
 5    1  0.9034917E-005  0.9118800E+02  0.7818608E-02  0.1130116E+00
         25   -1    0    0    0    0  0.00000000000E+00  0.00000000000E+00  0.99999998245E-14  0.12500000000E+03  0.12500000000E+03 0.  0.
        -13    1    3    3    0    0 -0.29160595821E+02 -0.48861711420E+02 -0.23604128042E+02  0.61603353936E+02  0.10566000000E+00 0.  1.
         23    2    1    0    0    0 -0.12089401881E+02 -0.22546136633E+02 -0.27524246116E+01  0.99269516986E+02  0.95876896312E+02 0.  0.
         13    1    3    3    0    0  0.17071193940E+02  0.26315574787E+02  0.20851703431E+02  0.37666163050E+02  0.10566000000E+00 0. -1.
         22    1    1    0    0    0  0.12089401881E+02  0.22546136633E+02  0.27524246116E+01  0.25730483014E+02  0.00000000000E+00 0.  1.
</event>
<event>
 5    1  0.9034917E-005  0.9118800E+02  0.7818608E-02  0.1130116E+00
         25   -1    0    0    0    0  0.00000000000E+00  0.00000000000E+00  0.99999998245E-14  0.12500000000E+03  0.12500000000E+03 0.  0.
        -13    1    3    3    0    0 -0.21667211903E+02 -0.41234302217E+02  0.34443360900E+02  0.57931787691E+02  0.10566000000E+00 0. -1.
         23    2    1    0    0    0 -0.28228712482E+01 -0.10327086243E+02  0.28422288019E+02  0.94628240607E+02  0.89621761597E+02 0.  0.
         13    1    3    3    0    0  0.18844340655E+02  0.30907215974E+02 -0.60210728805E+01  0.36696452916E+02  0.10566000000E+00 0.  1.
         22    1    1    0    0    0  0.28228712482E+01  0.10327086243E+02 -0.28422288019E+02  0.30371759393E+02  0.00000000000E+00 0. -1.
</event>
<event>
 5    1  0.9034917E-005  0.9118800E+02  0.7818608E-02  0.1130116E+00
         25   -1    0    0    0    0  0.00000000000E+00  0.00000000000E+00  0.99999998245E-14  0.12500000000E+03  0.12500000000E+03 0.  0.
        -13    1    3    3    0    0 -0.23896369935E+02 -0.53061584297E+01  0.44703653224E+02  0.50966847941E+02  0.10566000000E+00 0. -1.
         23    2    1    0    0    0  0.10111127218E+02 -0.19463872431E+02  0.19971751519E+02  0.95336081136E+02  0.90603643878E+02 0.  0.
         13    1    3    3    0    0  0.34007497153E+02 -0.14157714002E+02 -0.24731901706E+02  0.44369233196E+02  0.10566000000E+00 0.  1.
         22    1    1    0    0    0 -0.10111127218E+02  0.19463872431E+02 -0.19971751519E+02  0.29663918864E+02  0.00000000000E+00 0.  1.
</event>
<event>
 5    1  0.9034917E-005  0.9118800E+02  0.7818608E-02  0.1130116E+00
         25   -1    0    0    0    0  0.00000000000E+00  0.00000000000E+00  0.99999998245E-14  0.12500000000E+03  0.12500000000E+03 0.  0.
        -13    1    3    3    0    0  0.40886637192E+02 -0.10379666729E+02  0.17089894137E+02  0.45514066264E+02  0.10566000000E+00 0.  1.
         23    2    1    0    0    0  0.15932094912E+02  0.55492141537E+01 -0.23695807844E+02  0.95911914202E+02  0.91394630862E+02 0.  0.
         13    1    3    3    0    0 -0.24954542280E+02  0.15928880883E+02 -0.40785701981E+02  0.50397847937E+02  0.10566000000E+00 0. -1.
         22    1    1    0    0    0 -0.15932094912E+02 -0.55492141537E+01  0.23695807844E+02  0.29088085798E+02  0.00000000000E+00 0. -1.
</event>
<event>
 5    1  0.9034917E-005  0.9118800E+02  0.7818608E-02  0.1130116E+00
         25   -1    0    0    0    0  0.00000000000E+00  0.00000000000E+00  0.99999998245E-14  0.12500000000E+03  0.12500000000E+03 0.  0.
        -13    1    3    3    0    0  0.23562512276E+02  0.17350357050E+02  0.13641503818E+02  0.32285115223E+02  0.10566000000E+00 0. -1.
         23    2    1    0    0    0 -0.21640477743E+02 -0.33943308347E+01 -0.22371252962E+02  0.93690181766E+02  0.88303711369E+02 0.  0.
         13    1    3    3    0    0 -0.45202990020E+02 -0.20744687885E+02 -0.36012756780E+02  0.61405066542E+02  0.10566000000E+00 0.  1.
         22    1    1    0    0    0  0.21640477743E+02  0.33943308347E+01  0.22371252962E+02  0.31309818234E+02  0.00000000000E+00 0.  1.
</event>
<event>
 5    1  0.9034917E-005  0.9118800E+02  0.7818608E-02  0.1130116E+00
         25   -1    0    0    0    0  0.00000000000E+00  0.00000000000E+00  0.99999998245E-14  0.12500000000E+03  0.12500000000E+03 0.  0.
        -13    1    3    3    0    0  0.27314864137E+02 -0.21282251532E+02 -0.30902607185E+02  0.46411402995E+02  0.10566000000E+00 0.  1.
         23    2    1    0    0    0  0.10968844483E+01 -0.28650949032E+02  0.92008209563E+01  0.94887956858E+02  0.89983271859E+02 0.  0.
         13    1    3    3    0    0 -0.26217979688E+02 -0.73686975000E+01  0.40103428141E+02  0.48476553864E+02  0.10566000000E+00 0. -1.
         22    1    1    0    0    0 -0.10968844483E+01  0.28650949032E+02 -0.92008209563E+01  0.30112043142E+02  0.00000000000E+00 0. -1.
</event>
<event>
 5    1  0.9034917E-005  0.9118800E+02  0.7818608E-02  0.1130116E+00
         25   -1    0    0    0    0  0.00000000000E+00  0.00000000000E+00  0.99999998245E-14  0.12500000000E+03  0.12500000000E+03 0.  0.
        -13    1    3    3    0    0 -0.56554981004E+01  0.28350745153E+02 -0.49791704652E+02  0.57575814590E+02  0.10566000000E+00 0. -1.
         23    2    1    0    0    0  0.13579411784E+02  0.66838633649E+01 -0.25321661730E+02  0.95499813447E+02  0.90829253888E+02 0.  0.
         13    1    3    3    0    0  0.19234909884E+02 -0.21666881788E+02  0.24470042922E+02  0.37923998857E+02  0.10566000000E+00 0.  1.
         22    1    1    0    0    0 -0.13579411784E+02 -0.66838633649E+01  0.25321661730E+02  0.29500186553E+02  0.00000000000E+00 0. -1.
</event>
<event>
 5    1  0.9034917E-005  0.9118800E+02  0.7818608E-02  0.1130116E+00
         25   -1    0    0    0    0  0.00000000000E+00  0.00000000000E+00  0.99999998245E-14  0.12500000000E+03  0.12500000000E+03 0.  0.
        -13    1    3    3    0    0 -0.29684142977E+02  0.15999946721E+02  0.29180995600E+02  0.44594711656E+02  0.10566000000E+00 0.  1.
         23    2    1    0    0    0  0.69031657105E+01 -0.19701205179E+02  0.19112982744E+02  0.96696337839E+02  0.92461259237E+02 0.  0.
         13    1    3    3    0    0  0.36587308688E+02 -0.35701151900E+02 -0.10068012856E+02  0.52101626183E+02  0.10566000000E+00 0. -1.
         22    1    1    0    0    0 -0.69031657105E+01  0.19701205179E+02 -0.19112982744E+02  0.28303662161E+02  0.00000000000E+00 0.  1.
</event>
<event>
 5    1  0.9034917E-005  0.9118800E+02  0.7818608E-02  0.1130116E+00
         25   -1    0    0    0    0  0.00000000000E+00  0.00000000000E+00  0.99999998245E-14  0.12500000000E+03  0.12500000000E+03 0.  0.
        -13    1    3    3    0    0  0.20435439111E+02 -0.16389640728E+02  0.20476738473E+02  0.33249593642E+02  0.10566000000E+00 0.  1.
         23    2    1    0    0    0 -0.27931159507E+02  0.13552321005E+02 -0.69620645707E+00  0.93946823359E+02  0.88666261000E+02 0.  0.
         13    1    3    3    0    0 -0.48366598618E+02  0.29941961733E+02 -0.21172944930E+02  0.60697229717E+02  0.10566000000E+00 0. -1.
         22    1    1    0    0    0  0.27931159507E+02 -0.13552321005E+02  0.69620645707E+00  0.31053176641E+02  0.00000000000E+00 0. -1.
</event>
<event>
 5    1  0.9034917E-005  0.9118800E+02  0.7818608E-02  0.1130116E+00
         25   -1    0    0    0    0  0.00000000000E+00  0.00000000000E+00  0.99999998245E-14  0.12500000000E+03  0.12500000000E+03 0.  0.
        -13    1    3    3    0    0 -0.26672405833E+02 -0.21594744477E+02 -0.19816432791E+02  0.39628933805E+02  0.10566000000E+00 0. -1.
         23    2    1    0    0    0  0.10935492882E+02 -0.15867052218E+02  0.21726924519E+02  0.95958519326E+02  0.91458350256E+02 0.  0.
         13    1    3    3    0    0  0.37607898715E+02  0.57276922592E+01  0.41543357310E+02  0.56329585521E+02  0.10566000000E+00 0.  1.
         22    1    1    0    0    0 -0.10935492882E+02  0.15867052218E+02 -0.21726924519E+02  0.29041480674E+02  0.00000000000E+00 0.  1.
</event>
<event>
 5    1  0.9034917E-005  0.9118800E+02  0.7818608E-02  0.1130116E+00
         25   -1    0    0    0    0  0.00000000000E+00  0.00000000000E+00  0.99999998245E-14  0.12500000000E+03  0.12500000000E+03 0.  0.
        -13    1    3    3    0    0 -0.13769116989E+02  0.26346081990E+02  0.15468799857E+02  0.33511185475E+02  0.10566000000E+00 0.  1.
         23    2    1    0    0    0  0.26711317188E+02 -0.16347970397E+02  0.44456129760E+01  0.93369096175E+02  0.87848016733E+02 0.  0.
         13    1    3    3    0    0  0.40480434177E+02 -0.42694052387E+02 -0.11023186881E+02  0.59857910701E+02  0.10566000000E+00 0. -1.
         22    1    1    0    0    0 -0.26711317188E+02  0.16347970397E+02 -0.44456129760E+01  0.31630903825E+02  0.00000000000E+00 0. -1.
</event>
<event>
 5    1  0.9034917E-005  0.9118800E+02  0.7818608E-02  0.1130116E+00
         25   -1    0    0    0    0  0.00000000000E+00  0.00000000000E+00  0.99999998245E-14  0.12500000000E+03  0.12500000000E+03 0.  0.
        -13    1    3    3    0    0  0.37190388909E+02 -0.12515152390E+02 -0.47807718359E+02  0.61849358649E+02  0.10566000000E+00 0.  1.
         23    2    1    0    0    0  0.23369147307E+02 -0.48060437019E+01 -0.19901205102E+02  0.93931156017E+02  0.88644170729E+02 0.  0.
         13    1    3    3    0    0 -0.13821241602E+02  0.77091086884E+01  0.27906513257E+02  0.32081797368E+02  0.10566000000E+00 0. -1.
         22    1    1    0    0    0 -0.23369147307E+02  0.48060437019E+01  0.19901205102E+02  0.31068843983E+02  0.00000000000E+00 0.  1.
</event>
<event>
 5    1  0.9034917E-005  0.9118800E+02  0.7818608E-02  0.1130116E+00
         25   -1    0    0    0    0  0.00000000000E+00  0.00000000000E+00  0.99999998245E-14  0.12500000000E+03  0.12500000000E+03 0.  0.
        -13    1    3    3    0    0  0.50308003653E+01  0.45088234378E+02  0.20813898261E+02  0.49914800976E+02  0.10566000000E+00 0.  1.
         23    2    1    0    0    0 -0.24767987301E+02  0.15682525366E+02  0.26024653052E+01  0.95569274177E+02  0.90924796091E+02 0.  0.
         13    1    3    3    0    0 -0.29798787667E+02 -0.29405709012E+02 -0.18211432956E+02  0.45654473201E+02  0.10566000000E+00 0. -1.
         22    1    1    0    0    0  0.24767987301E+02 -0.15682525366E+02 -0.26024653052E+01  0.29430725823E+02  0.00000000000E+00 0.  1.
</event>
<event>
 5    1  0.9034917E-005  0.9118800E+02  0.7818608E-02  0.1130116E+00
         25   -1    0    0    0    0  0.00000000000E+00  0.00000000000E+00  0.99999998245E-14  0.12500000000E+03  0.12500000000E+03 0.  0.
        -13    1    3    3    0    0 -0.39049741551E+02 -0.24645168591E+02 -0.29907965636E+02  0.55016036049E+02  0.10566000000E+00 0.  1.
         23    2    1    0    0    0 -0.29050624765E+02 -0.91891630769E+01  0.46563841907E+01  0.94176933458E+02  0.88990074528E+02 0.  0.
         13    1    3    3    0    0  0.99991167855E+01  0.15456005514E+02  0.34564349826E+02  0.39160897409E+02  0.10566000000E+00 0. -1.
         22    1    1    0    0    0  0.29050624765E+02  0.91891630769E+01 -0.46563841907E+01  0.30823066542E+02  0.00000000000E+00 0.  1.
</event>
<event>
 5    1  0.9034917E-005  0.9118800E+02  0.7818608E-02  0.1130116E+00
         25   -1    0    0    0    0  0.00000000000E+00  0.00000000000E+00  0.99999998245E-14  0.12500000000E+03  0.12500000000E+03 0.  0.
        -13    1    3    3    0    0  0.10376749122E+02  0.82358028919E+01 -0.43371317343E+02  0.45349616357E+02  0.10566000000E+00 0. -1.
         23    2    1    0    0    0  0.40190545883E+01  0.23300607207E+02  0.86056115894E+01  0.99837972124E+02  0.96615180127E+02 0.  0.
         13    1    3    3    0    0 -0.63576945336E+01  0.15064804315E+02  0.51976928933E+02  0.54488355767E+02  0.10566000000E+00 0.  1.
         22    1    1    0    0    0 -0.40190545883E+01 -0.23300607207E+02 -0.86056115894E+01  0.25162027876E+02  0.00000000000E+00 0. -1.
</event>
<event>
 5    1  0.9034917E-005  0.9118800E+02  0.7818608E-02  0.1130116E+00
         25   -1    0    0    0    0  0.00000000000E+00  0.00000000000E+00  0.99999998245E-14  0.12500000000E+03  0.12500000000E+03 0.  0.
        -13    1    3    3    0    0  0.13137546099E+02  0.37765093154E+02 -0.16362555632E+02  0.43203492558E+02  0.10566000000E+00 0. -1.
         23    2    1    0    0    0 -0.12158873176E+02  0.23673618143E+02  0.21441886276E+02  0.90823503983E+02  0.84147941127E+02 0.  0.
         13    1    3    3    0    0 -0.25296419275E+02 -0.14091475011E+02  0.37804441908E+02  0.47620011425E+02  0.10566000000E+00 0.  1.
         22    1    1    0    0    0  0.12158873176E+02 -0.23673618143E+02 -0.21441886276E+02  0.34176496017E+02  0.00000000000E+00 0. -1.
</event>
<event>
 5    1  0.9034917E-005  0.9118800E+02  0.7818608E-02  0.1130116E+00
         25   -1    0    0    0    0  0.00000000000E+00  0.00000000000E+00  0.99999998245E-14  0.12500000000E+03  0.12500000000E+03 0.  0.
        -13    1    3    3    0    0  0.60984367065E+02 -0.67409994613E+01  0.13045137823E+01  0.61369756560E+02  0.10566000000E+00 0.  1.
         23    2    1    0    0    0  0.29235121708E+02 -0.75228947436E+01  0.78768916909E+01  0.93801735476E+02  0.88461482403E+02 0.  0.
         13    1    3    3    0    0 -0.31749245357E+02 -0.78189528230E+00  0.65723779086E+01  0.32431978915E+02  0.10566000000E+00 0. -1.
         22    1    1    0    0    0 -0.29235121708E+02  0.75228947436E+01 -0.78768916909E+01  0.31198264524E+02  0.00000000000E+00 0.  1.
</event>
<event>
 5    1  0.9034917E-005  0.9118800E+02  0.7818608E-02  0.1130116E+00
         25   -1    0    0    0    0  0.00000000000E+00  0.00000000000E+00  0.99999998245E-14  0.12500000000E+03  0.12500000000E+03 0.  0.
        -13    1    3    3    0    0 -0.71805500480E+01 -0.16213033467E+02  0.50334788831E+02  0.53366889397E+02  0.10566000000E+00 0.  1.
         23    2    1    0    0    0 -0.25223933277E+02 -0.53720059119E+01  0.13258915244E+02  0.96001653652E+02  0.91517284777E+02 0.  0.
         13    1    3    3    0    0 -0.18043383229E+02  0.10841027555E+02 -0.37075873587E+02  0.42634764255E+02  0.10566000000E+00 0. -1.
         22    1    1    0    0    0  0.25223933277E+02  0.53720059119E+01 -0.13258915244E+02  0.28998346348E+02  0.00000000000E+00 0.  1.
</event>
<event>
 5    1  0.9034917E-005  0.9118800E+02  0.7818608E-02  0.1130116E+00
         25   -1    0    0    0    0  0.00000000000E+00  0.00000000000E+00  0.99999998245E-14  0.12500000000E+03  0.12500000000E+03 0.  0.
        -13    1    3    3    0    0 -0.26493197855E+02 -0.18585093399E+02 -0.29237433425E+02  0.43613460154E+02  0.10566000000E+00 0. -1.
         23    2    1    0    0    0 -0.47810195976E+01  0.25443041549E+02 -0.16396997921E+02  0.94355782723E+02  0.89240941730E+02 0.  0.
         13    1    3    3    0    0  0.21712178258E+02  0.44028134949E+02  0.12840435505E+02  0.50742322569E+02  0.10566000000E+00 0.  1.
         22    1    1    0    0    0  0.47810195976E+01 -0.25443041549E+02  0.16396997921E+02  0.30644217277E+02  0.00000000000E+00 0. -1.
</event>
<event>
 5    1  0.9034917E-005  0.9118800E+02  0.7818608E-02  0.1130116E+00
         25   -1    0    0    0    0  0.00000000000E+00  0.00000000000E+00  0.99999998245E-14  0.12500000000E+03  0.12500000000E+03 0.  0.
        -13    1    3    3    0    0  0.72414226780E+01  0.36866305255E+02  0.12401935210E+02  0.39564906502E+02  0.10566000000E+00 0. -1.
         23    2    1    0    0    0  0.19462313331E+02 -0.63610816772E+01 -0.21095948171E+02  0.95601292043E+02  0.90968802403E+02 0.  0.
         13    1    3    3    0    0  0.12220890653E+02 -0.43227386932E+02 -0.33497883381E+02  0.56036385540E+02  0.10566000000E+00 0.  1.
         22    1    1    0    0    0 -0.19462313331E+02  0.63610816772E+01  0.21095948171E+02  0.29398707957E+02  0.00000000000E+00 0.  1.
</event>
<event>
 5    1  0.9034917E-005  0.9118800E+02  0.7818608E-02  0.1130116E+00
         25   -1    0    0    0    0  0.00000000000E+00  0.00000000000E+00  0.99999998245E-14  0.12500000000E+03  0.12500000000E+03 0.  0.
        -13    1    3    3    0    0  0.33051081891E+02 -0.52445531731E+01 -0.14234163022E+02  0.36366219395E+02  0.10566000000E+00 0.  1.
         23    2    1    0    0    0 -0.25288953035E+02 -0.11002666144E+02  0.24357828429E+01  0.97313851009E+02  0.93292350985E+02 0.  0.
         13    1    3    3    0    0 -0.58340034926E+02 -0.57581129713E+01  0.16669945865E+02  0.60947631614E+02  0.10566000000E+00 0. -1.
         22    1    1    0    0    0  0.25288953035E+02  0.11002666144E+02 -0.24357828429E+01  0.27686148991E+02  0.00000000000E+00 0. -1.
</event>
<event>
 5    1  0.9034917E-005  0.9118800E+02  0.7818608E-02  0.1130116E+00
         25   -1    0    0    0    0  0.00000000000E+00  0.00000000000E+00  0.99999998245E-14  0.12500000000E+03  0.12500000000E+03 0.  0.
        -13    1    3    3    0    0 -0.38146978429E+02  0.36815636613E+02 -0.31399057371E+02  0.61615704414E+02  0.10566000000E+00 0. -1.
         23    2    1    0    0    0 -0.15101839298E+02  0.15216883247E+02 -0.21308178211E+02  0.94773231324E+02  0.89823759835E+02 0.  0.
         13    1    3    3    0    0  0.23045139131E+02 -0.21598753366E+02  0.10090879161E+02  0.33157526910E+02  0.10566000000E+00 0.  1.
         22    1    1    0    0    0  0.15101839298E+02 -0.15216883247E+02  0.21308178211E+02  0.30226768676E+02  0.00000000000E+00 0. -1.
</event>
<event>
 5    1  0.9034917E-005  0.9118800E+02  0.7818608E-02  0.1130116E+00
         25   -1    0    0    0    0  0.00000000000E+00  0.00000000000E+00  0.99999998245E-14  0.12500000000E+03  0.12500000000E+03 0.  0.
        -13    1    3    3    0    0  0.18802449662E+02 -0.41012915289E+02  0.38123002240E+02  0.59067468183E+02  0.10566000000E+00 0.  1.
         23    2    1    0    0    0  0.16060089939E+02 -0.29913062994E+02  0.97219137363E+01  0.89683807776E+02  0.82437563913E+02 0.  0.
         13    1    3    3    0    0 -0.27423597229E+01  0.11099852296E+02 -0.28401088503E+02  0.30616339592E+02  0.10566000000E+00 0. -1.
         22    1    1    0    0    0 -0.16060089939E+02  0.29913062994E+02 -0.97219137363E+01  0.35316192224E+02  0.00000000000E+00 0.  1.
</event>
<event>
 5    1  0.9034917E-005  0.9118800E+02  0.7818608E-02  0.1130116E+00
         25   -1    0    0    0    0  0.00000000000E+00  0.00000000000E+00  0.99999998245E-14  0.12500000000E+03  0.12500000000E+03 0.  0.
        -13    1    3    3    0    0 -0.24914803622E+02 -0.16022574854E+02 -0.42556455171E+02  0.51851069278E+02  0.10566000000E+00 0. -1.
         23    2    1    0    0    0 -0.13769168442E+02 -0.20826992072E+02  0.37778591425E+01  0.99748746208E+02  0.96499671254E+02 0.  0.
         13    1    3    3    0    0  0.11145635180E+02 -0.48044172183E+01  0.46334314314E+02  0.47897676931E+02  0.10566000000E+00 0.  1.
         22    1    1    0    0    0  0.13769168442E+02  0.20826992072E+02 -0.37778591425E+01  0.25251253792E+02  0.00000000000E+00 0. -1.
</event>
<event>
 5    1  0.9034917E-005  0.9118800E+02  0.7818608E-02  0.1130116E+00
         25   -1    0    0    0    0  0.00000000000E+00  0.00000000000E+00  0.99999998245E-14  0.12500000000E+03  0.12500000000E+03 0.  0.
        -13    1    3    3    0    0  0.32345045122E+02 -0.18479331372E+02 -0.25343287830E+02  0.45055310830E+02  0.10566000000E+00 0.  1.
         23    2    1    0    0    0  0.35597344109E+01 -0.15948367267E+02  0.20215851669E+02  0.99005716277E+02  0.95532345671E+02 0.  0.
         13    1    3    3    0    0 -0.28785310711E+02  0.25309641056E+01  0.45559139499E+02  0.53950405448E+02  0.10566000000E+00 0. -1.
         22    1    1    0    0    0 -0.35597344109E+01  0.15948367267E+02 -0.20215851669E+02  0.25994283723E+02  0.00000000000E+00 0.  1.
</event>
<event>
 5    1  0.9034917E-005  0.9118800E+02  0.7818608E-02  0.1130116E+00
         25   -1    0    0    0    0  0.00000000000E+00  0.00000000000E+00  0.99999998245E-14  0.12500000000E+03  0.12500000000E+03 0.  0.
        -13    1    3    3    0    0  0.12543989310E+02  0.32806231756E+02 -0.10119101891E+02  0.36551441790E+02  0.10566000000E+00 0.  1.
         23    2    1    0    0    0 -0.83212254455E+01 -0.24214547286E+02 -0.10641604335E+02  0.97272201025E+02  0.93236528551E+02 0.  0.
         13    1    3    3    0    0 -0.20865214755E+02 -0.57020779041E+02 -0.52250244416E+00  0.60720759235E+02  0.10566000000E+00 0. -1.
         22    1    1    0    0    0  0.83212254455E+01  0.24214547286E+02  0.10641604335E+02  0.27727798975E+02  0.00000000000E+00 0. -1.
</event>
<event>
 5    1  0.9034917E-005  0.9118800E+02  0.7818608E-02  0.1130116E+00
         25   -1    0    0    0    0  0.00000000000E+00  0.00000000000E+00  0.99999998245E-14  0.12500000000E+03  0.12500000000E+03 0.  0.
        -13    1    3    3    0    0 -0.19756161199E+02  0.27252212261E+02 -0.61643750712E+01  0.34219872334E+02  0.10566000000E+00 0.  1.
         23    2    1    0    0    0  0.14342315893E+02 -0.22706606361E+02 -0.13128858411E+02  0.95105871466E+02  0.90285479821E+02 0.  0.
         13    1    3    3    0    0  0.34098477092E+02 -0.49958818622E+02 -0.69644833403E+01  0.60885999133E+02  0.10566000000E+00 0. -1.
         22    1    1    0    0    0 -0.14342315893E+02  0.22706606361E+02  0.13128858411E+02  0.29894128534E+02  0.00000000000E+00 0. -1.
</event>
<event>
 5    1  0.9034917E-005  0.9118800E+02  0.7818608E-02  0.1130116E+00
         25   -1    0    0    0    0  0.00000000000E+00  0.00000000000E+00  0.99999998245E-14  0.12500000000E+03  0.12500000000E+03 0.  0.
        -13    1    3    3    0    0 -0.28743934738E+01 -0.38962698931E+02 -0.39801261306E+02  0.55771907009E+02  0.10566000000E+00 0.  1.
         23    2    1    0    0    0  0.66618670796E+01 -0.26131301230E+02 -0.69056194337E+00  0.98024043061E+02  0.94239114837E+02 0.  0.
         13    1    3    3    0    0  0.95362605535E+01  0.12831397701E+02  0.39110699363E+02  0.42252136052E+02  0.10566000000E+00 0. -1.
         22    1    1    0    0    0 -0.66618670796E+01  0.26131301230E+02  0.69056194337E+00  0.26975956939E+02  0.00000000000E+00 0.  1.
</event>
<event>
 5    1  0.9034917E-005  0.9118800E+02  0.7818608E-02  0.1130116E+00
         25   -1    0    0    0    0  0.00000000000E+00  0.00000000000E+00  0.99999998245E-14  0.12500000000E+03  0.12500000000E+03 0.  0.
        -13    1    3    3    0    0 -0.59222637495E+01  0.21995672772E+02  0.35580801131E+02  0.42247927780E+02  0.10566000000E+00 0. -1.
         23    2    1    0    0    0  0.27906606730E+02  0.57626028723E+01 -0.33390499741E+01  0.96309661108E+02  0.91937017990E+02 0.  0.
         13    1    3    3    0    0  0.33828870479E+02 -0.16233069899E+02 -0.38919851105E+02  0.54061733327E+02  0.10566000000E+00 0.  1.
         22    1    1    0    0    0 -0.27906606730E+02 -0.57626028723E+01  0.33390499741E+01  0.28690338892E+02  0.00000000000E+00 0.  1.
</event>
<event>
 5    1  0.9034917E-005  0.9118800E+02  0.7818608E-02  0.1130116E+00
         25   -1    0    0    0    0  0.00000000000E+00  0.00000000000E+00  0.99999998245E-14  0.12500000000E+03  0.12500000000E+03 0.  0.
        -13    1    3    3    0    0 -0.47706616358E+02 -0.38609088876E+02 -0.17986687918E+01  0.61398936161E+02  0.10566000000E+00 0.  1.
         23    2    1    0    0    0 -0.20417827413E+02 -0.20138497076E+02 -0.86289015836E+01  0.95051633045E+02  0.90210355621E+02 0.  0.
         13    1    3    3    0    0  0.27288788945E+02  0.18470591801E+02 -0.68302327919E+01  0.33652696885E+02  0.10566000000E+00 0. -1.
         22    1    1    0    0    0  0.20417827413E+02  0.20138497076E+02  0.86289015836E+01  0.29948366955E+02  0.00000000000E+00 0.  1.
</event>
<event>
 5    1  0.9034917E-005  0.9118800E+02  0.7818608E-02  0.1130116E+00
         25   -1    0    0    0    0  0.00000000000E+00  0.00000000000E+00  0.99999998245E-14  0.12500000000E+03  0.12500000000E+03 0.  0.
        -13    1    3    3    0    0 -0.47814107503E+02  0.26223559658E+01  0.26183212289E+02  0.54576894350E+02  0.10566000000E+00 0. -1.
         23    2    1    0    0    0 -0.13344890734E+02 -0.20012557077E+02  0.11376740308E+02  0.98391377911E+02  0.94725099513E+02 0.  0.
         13    1    3    3    0    0  0.34469216770E+02 -0.22634913042E+02 -0.14806471981E+02  0.43814483561E+02  0.10566000000E+00 0.  1.
         22    1    1    0    0    0  0.13344890734E+02  0.20012557077E+02 -0.11376740308E+02  0.26608622089E+02  0.00000000000E+00 0.  1.
</event>
<event>
 5    1  0.9034917E-005  0.9118800E+02  0.7818608E-02  0.1130116E+00
         25   -1    0    0    0    0  0.00000000000E+00  0.00000000000E+00  0.99999998245E-14  0.12500000000E+03  0.12500000000E+03 0.  0.
        -13    1    3    3    0    0 -0.10163735658E+02  0.41930698266E+02 -0.20427722671E+02  0.47736652555E+02  0.10566000000E+00 0. -1.
         23    2    1    0    0    0  0.80157194686E+00 -0.47806271739E+01 -0.28237639748E+02  0.96349324401E+02  0.91990929445E+02 0.  0.
         13    1    3    3    0    0  0.10965307605E+02 -0.46711325440E+02 -0.78099170766E+01  0.48612671846E+02  0.10566000000E+00 0.  1.
         22    1    1    0    0    0 -0.80157194686E+00  0.47806271739E+01  0.28237639748E+02  0.28650675599E+02  0.00000000000E+00 0.  1.
</event>
<event>
 5    1  0.9034917E-005  0.9118800E+02  0.7818608E-02  0.1130116E+00
         25   -1    0    0    0    0  0.00000000000E+00  0.00000000000E+00  0.99999998245E-14  0.12500000000E+03  0.12500000000E+03 0.  0.
        -13    1    3    3    0    0  0.32185403754E+02 -0.52985617690E+02 -0.56640383682E+01  0.62253260088E+02  0.10566000000E+00 0. -1.
         23    2    1    0    0    0  0.18660580758E+02 -0.24736766829E+02 -0.40532033302E+00  0.94011466766E+02  0.88757347254E+02 0.  0.
         13    1    3    3    0    0 -0.13524822996E+02  0.28248850861E+02  0.52587180352E+01  0.31758206679E+02  0.10566000000E+00 0.  1.
         22    1    1    0    0    0 -0.18660580758E+02  0.24736766829E+02  0.40532033302E+00  0.30988533234E+02  0.00000000000E+00 0. -1.
</event>
<event>
 5    1  0.9034917E-005  0.9118800E+02  0.7818608E-02  0.1130116E+00
         25   -1    0    0    0    0  0.00000000000E+00  0.00000000000E+00  0.99999998245E-14  0.12500000000E+03  0.12500000000E+03 0.  0.
        -13    1    3    3    0    0 -0.21409809184E+02 -0.42223126000E+01  0.25353095321E+02  0.33451434339E+02  0.10566000000E+00 0. -1.
         23    2    1    0    0    0  0.26966724336E+02 -0.16092082247E+01 -0.12788644979E+02  0.95111152365E+02  0.90292790916E+02 0.  0.
         13    1    3    3    0    0  0.48376533521E+02  0.26131043753E+01 -0.38141740299E+02  0.61659718026E+02  0.10566000000E+00 0.  1.
         22    1    1    0    0    0 -0.26966724336E+02  0.16092082247E+01  0.12788644979E+02  0.29888847635E+02  0.00000000000E+00 0.  1.
</event>
<event>
 5    1  0.9034917E-005  0.9118800E+02  0.7818608E-02  0.1130116E+00
         25   -1    0    0    0    0  0.00000000000E+00  0.00000000000E+00  0.99999998245E-14  0.12500000000E+03  0.12500000000E+03 0.  0.
        -13    1    3    3    0    0  0.34185967296E+02  0.16952781781E+01 -0.28806433575E+01  0.34349142613E+02  0.10566000000E+00 0. -1.
         23    2    1    0    0    0 -0.24854242016E+02  0.15621891006E+02  0.38938312298E+01  0.95386848421E+02  0.90673657174E+02 0.  0.
         13    1    3    3    0    0 -0.59040209311E+02  0.13926612828E+02  0.67744745873E+01  0.61037705809E+02  0.10566000000E+00 0.  1.
         22    1    1    0    0    0  0.24854242016E+02 -0.15621891006E+02 -0.38938312298E+01  0.29613151579E+02  0.00000000000E+00 0.  1.
</event>
<event>
 5    1  0.9034917E-005  0.9118800E+02  0.7818608E-02  0.1130116E+00
         25   -1    0    0    0    0  0.00000000000E+00  0.00000000000E+00  0.99999998245E-14  0.12500000000E+03  0.12500000000E+03 0.  0.
        -13    1    3    3    0    0 -0.19844726439E+02  0.20933466675E+02 -0.18291663217E+02  0.34155809195E+02  0.10566000000E+00 0.  1.
         23    2    1    0    0    0  0.93063789832E+01 -0.99134166734E+01  0.26099080211E+02  0.95571331873E+02  0.90927624890E+02 0.  0.
         13    1    3    3    0    0  0.29151105422E+02 -0.30846883349E+02  0.44390743428E+02  0.61415522678E+02  0.10566000000E+00 0. -1.
         22    1    1    0    0    0 -0.93063789832E+01  0.99134166734E+01 -0.26099080211E+02  0.29428668127E+02  0.00000000000E+00 0. -1.
</event>
<event>
 5    1  0.9034917E-005  0.9118800E+02  0.7818608E-02  0.1130116E+00
         25   -1    0    0    0    0  0.00000000000E+00  0.00000000000E+00  0.99999998245E-14  0.12500000000E+03  0.12500000000E+03 0.  0.
        -13    1    3    3    0    0  0.11401154971E+01 -0.29770030170E+02 -0.24820095257E+02  0.38776318189E+02  0.10566000000E+00 0.  1.
         23    2    1    0    0    0  0.37496107514E+01  0.26221575476E+02 -0.91123288634E+01  0.96988125044E+02  0.92854893576E+02 0.  0.
         13    1    3    3    0    0  0.26094952543E+01  0.55991605646E+02  0.15707766394E+02  0.58211806855E+02  0.10566000000E+00 0. -1.
         22    1    1    0    0    0 -0.37496107514E+01 -0.26221575476E+02  0.91123288634E+01  0.28011874956E+02  0.00000000000E+00 0. -1.
</event>
<event>
 5    1  0.9034917E-005  0.9118800E+02  0.7818608E-02  0.1130116E+00
         25   -1    0    0    0    0  0.00000000000E+00  0.00000000000E+00  0.99999998245E-14  0.12500000000E+03  0.12500000000E+03 0.  0.
        -13    1    3    3    0    0  0.45970671017E+02  0.23191783834E+01 -0.54760994776E+01  0.46353856492E+02  0.10566000000E+00 0. -1.
         23    2    1    0    0    0  0.56757777984E+01 -0.26700503421E+02 -0.93103725204E+01  0.96158807705E+02  0.91731684418E+02 0.  0.
         13    1    3    3    0    0 -0.40294893219E+02 -0.29019681804E+02 -0.38342730429E+01  0.49804951213E+02  0.10566000000E+00 0.  1.
         22    1    1    0    0    0 -0.56757777984E+01  0.26700503421E+02  0.93103725204E+01  0.28841192295E+02  0.00000000000E+00 0.  1.
</event>
<event>
 5    1  0.9034917E-005  0.9118800E+02  0.7818608E-02  0.1130116E+00
         25   -1    0    0    0    0  0.00000000000E+00  0.00000000000E+00  0.99999998245E-14  0.12500000000E+03  0.12500000000E+03 0.  0.
        -13    1    3    3    0    0  0.34689681798E+02 -0.13085466846E+02  0.96308059604E+01  0.38306227343E+02  0.10566000000E+00 0.  1.
         23    2    1    0    0    0 -0.13940512924E+02 -0.22799529346E+02 -0.15714113754E+02  0.93998551485E+02  0.88739156358E+02 0.  0.
         13    1    3    3    0    0 -0.48630194721E+02 -0.97140625001E+01 -0.25344919714E+02  0.55692324141E+02  0.10566000000E+00 0. -1.
         22    1    1    0    0    0  0.13940512924E+02  0.22799529346E+02  0.15714113754E+02  0.31001448515E+02  0.00000000000E+00 0. -1.
</event>
<event>
 5    1  0.9034917E-005  0.9118800E+02  0.7818608E-02  0.1130116E+00
         25   -1    0    0    0    0  0.00000000000E+00  0.00000000000E+00  0.99999998245E-14  0.12500000000E+03  0.12500000000E+03 0.  0.
        -13    1    3    3    0    0  0.35856101533E+02 -0.41075252029E+02  0.53135847139E+01  0.54782129321E+02  0.10566000000E+00 0. -1.
         23    2    1    0    0    0  0.28768919517E+02 -0.88230973330E+00 -0.15839121152E+01  0.96174005165E+02  0.91752391202E+02 0.  0.
         13    1    3    3    0    0 -0.70871820163E+01  0.40192942296E+02 -0.68974968292E+01  0.41391875844E+02  0.10566000000E+00 0.  1.
         22    1    1    0    0    0 -0.28768919517E+02  0.88230973330E+00  0.15839121152E+01  0.28825994835E+02  0.00000000000E+00 0.  1.
</event>
<event>
 5    1  0.9034917E-005  0.9118800E+02  0.7818608E-02  0.1130116E+00
         25   -1    0    0    0    0  0.00000000000E+00  0.00000000000E+00  0.99999998245E-14  0.12500000000E+03  0.12500000000E+03 0.  0.
        -13    1    3    3    0    0 -0.18641639738E+01 -0.51069927425E+02 -0.19214672365E+02  0.54596954060E+02  0.10566000000E+00 0.  1.
         23    2    1    0    0    0  0.46012860551E+01 -0.12152732509E+02 -0.27206889990E+02  0.94849119354E+02  0.89929304670E+02 0.  0.
         13    1    3    3    0    0  0.64654500288E+01  0.38917194916E+02 -0.79922176255E+01  0.40252165294E+02  0.10566000000E+00 0. -1.
         22    1    1    0    0    0 -0.46012860551E+01  0.12152732509E+02  0.27206889990E+02  0.30150880646E+02  0.00000000000E+00 0.  1.
</event>
<event>
 5    1  0.9034917E-005  0.9118800E+02  0.7818608E-02  0.1130116E+00
         25   -1    0    0    0    0  0.00000000000E+00  0.00000000000E+00  0.99999998245E-14  0.12500000000E+03  0.12500000000E+03 0.  0.
        -13    1    3    3    0    0  0.19974910387E+02  0.11975773830E+01  0.30456661505E+02  0.36442428989E+02  0.10566000000E+00 0.  1.
         23    2    1    0    0    0  0.15293058625E+02  0.37243880071E+01 -0.26785905068E+02  0.93931794090E+02  0.88645070492E+02 0.  0.
         13    1    3    3    0    0 -0.46818517619E+01  0.25268106241E+01 -0.57242566573E+02  0.57489365101E+02  0.10566000000E+00 0. -1.
         22    1    1    0    0    0 -0.15293058625E+02 -0.37243880071E+01  0.26785905068E+02  0.31068205910E+02  0.00000000000E+00 0. -1.
</event>
<event>
 5    1  0.9034917E-005  0.9118800E+02  0.7818608E-02  0.1130116E+00
         25   -1    0    0    0    0  0.00000000000E+00  0.00000000000E+00  0.99999998245E-14  0.12500000000E+03  0.12500000000E+03 0.  0.
        -13    1    3    3    0    0  0.21761265840E+02  0.31432412323E+02  0.12403292734E+02  0.40192064765E+02  0.10566000000E+00 0.  1.
         23    2    1    0    0    0  0.16803760525E+02 -0.19329675057E+02 -0.11979537939E+02  0.96724356155E+02  0.92499129936E+02 0.  0.
         13    1    3    3    0    0 -0.49575053152E+01 -0.50762087380E+02 -0.24382830673E+02  0.56532291390E+02  0.10566000000E+00 0. -1.
         22    1    1    0    0    0 -0.16803760525E+02  0.19329675057E+02  0.11979537939E+02  0.28275643845E+02  0.00000000000E+00 0. -1.
</event>
<event>
 5    1  0.9034917E-005  0.9118800E+02  0.7818608E-02  0.1130116E+00
         25   -1    0    0    0    0  0.00000000000E+00  0.00000000000E+00  0.99999998245E-14  0.12500000000E+03  0.12500000000E+03 0.  0.
        -13    1    3    3    0    0 -0.69195998089E+01 -0.25672985619E+02 -0.20494986292E+02  0.33571396742E+02  0.10566000000E+00 0.  1.
         23    2    1    0    0    0 -0.51615088161E+01  0.27324031837E+02  0.10829013995E+02  0.95158561811E+02  0.90358400012E+02 0.  0.
         13    1    3    3    0    0  0.17580909929E+01  0.52997017456E+02  0.31324000286E+02  0.61587165068E+02  0.10566000000E+00 0. -1.
         22    1    1    0    0    0  0.51615088161E+01 -0.27324031837E+02 -0.10829013995E+02  0.29841438189E+02  0.00000000000E+00 0. -1.
</event>
<event>
 5    1  0.9034917E-005  0.9118800E+02  0.7818608E-02  0.1130116E+00
         25   -1    0    0    0    0  0.00000000000E+00  0.00000000000E+00  0.99999998245E-14  0.12500000000E+03  0.12500000000E+03 0.  0.
        -13    1    3    3    0    0  0.11381900026E+02  0.24050838770E+02 -0.19462878900E+02  0.32966730394E+02  0.10566000000E+00 0.  1.
         23    2    1    0    0    0 -0.68919649879E+01 -0.28961855063E+02  0.61296232762E+01  0.94604926195E+02  0.89589237908E+02 0.  0.
         13    1    3    3    0    0 -0.18273865013E+02 -0.53012693833E+02  0.25592502176E+02  0.61638195802E+02  0.10566000000E+00 0. -1.
         22    1    1    0    0    0  0.68919649879E+01  0.28961855063E+02 -0.61296232762E+01  0.30395073805E+02  0.00000000000E+00 0. -1.
</event>
<event>
 5    1  0.9034917E-005  0.9118800E+02  0.7818608E-02  0.1130116E+00
         25   -1    0    0    0    0  0.00000000000E+00  0.00000000000E+00  0.99999998245E-14  0.12500000000E+03  0.12500000000E+03 0.  0.
        -13    1    3    3    0    0  0.24380357292E+02  0.31731532052E+01  0.37100559393E+02  0.44507677925E+02  0.10566000000E+00 0. -1.
         23    2    1    0    0    0  0.10472182038E+02 -0.26577272011E+02 -0.29279689747E+01  0.96284307661E+02  0.91902540308E+02 0.  0.
         13    1    3    3    0    0 -0.13908175253E+02 -0.29750425217E+02 -0.40028528368E+02  0.51776629736E+02  0.10566000000E+00 0.  1.
         22    1    1    0    0    0 -0.10472182038E+02  0.26577272011E+02  0.29279689747E+01  0.28715692339E+02  0.00000000000E+00 0. -1.
</event>
<event>
 5    1  0.9034917E-005  0.9118800E+02  0.7818608E-02  0.1130116E+00
         25   -1    0    0    0    0  0.00000000000E+00  0.00000000000E+00  0.99999998245E-14  0.12500000000E+03  0.12500000000E+03 0.  0.
        -13    1    3    3    0    0  0.32821384345E+02 -0.13635228178E+02 -0.56361613981E+01  0.35985277506E+02  0.10566000000E+00 0.  1.
         23    2    1    0    0    0 -0.20224192362E+02 -0.17455745085E+01  0.20365539505E+02  0.96245518847E+02  0.91849767075E+02 0.  0.
         13    1    3    3    0    0 -0.53045576708E+02  0.11889653669E+02  0.26001700903E+02  0.60260241341E+02  0.10566000000E+00 0. -1.
         22    1    1    0    0    0  0.20224192362E+02  0.17455745085E+01 -0.20365539505E+02  0.28754481153E+02  0.00000000000E+00 0. -1.
</event>
<event>
 5    1  0.9034917E-005  0.9118800E+02  0.7818608E-02  0.1130116E+00
         25   -1    0    0    0    0  0.00000000000E+00  0.00000000000E+00  0.99999998245E-14  0.12500000000E+03  0.12500000000E+03 0.  0.
        -13    1    3    3    0    0 -0.43648561258E+02 -0.14283826060E+02  0.30824886636E+02  0.55311928071E+02  0.10566000000E+00 0.  1.
         23    2    1    0    0    0 -0.26401706304E+02  0.97764147490E+01  0.17710091222E+01  0.96790695606E+02  0.92588735284E+02 0.  0.
         13    1    3    3    0    0  0.17246854954E+02  0.24060240809E+02 -0.29053877514E+02  0.41478767535E+02  0.10566000000E+00 0. -1.
         22    1    1    0    0    0  0.26401706304E+02 -0.97764147490E+01 -0.17710091222E+01  0.28209304394E+02  0.00000000000E+00 0.  1.
</event>
<event>
 5    1  0.9034917E-005  0.9118800E+02  0.7818608E-02  0.1130116E+00
         25   -1    0    0    0    0  0.00000000000E+00  0.00000000000E+00  0.99999998245E-14  0.12500000000E+03  0.12500000000E+03 0.  0.
        -13    1    3    3    0    0 -0.32357164250E+02 -0.14422018585E+02 -0.37772718618E+02  0.51785810163E+02  0.10566000000E+00 0.  1.
         23    2    1    0    0    0  0.95833290029E+01 -0.10224782343E+02 -0.25859931411E+02  0.95587036509E+02  0.90949211802E+02 0.  0.
         13    1    3    3    0    0  0.41940493253E+02  0.41972362421E+01  0.11912787207E+02  0.43801226347E+02  0.10566000000E+00 0. -1.
         22    1    1    0    0    0 -0.95833290029E+01  0.10224782343E+02  0.25859931411E+02  0.29412963491E+02  0.00000000000E+00 0.  1.
</event>
<event>
 5    1  0.9034917E-005  0.9118800E+02  0.7818608E-02  0.1130116E+00
         25   -1    0    0    0    0  0.00000000000E+00  0.00000000000E+00  0.99999998245E-14  0.12500000000E+03  0.12500000000E+03 0.  0.
        -13    1    3    3    0    0  0.30568105125E+00 -0.34615190014E+02  0.50513980086E+02  0.61237065318E+02  0.10566000000E+00 0. -1.
         23    2    1    0    0    0 -0.79663235847E+01 -0.16892320055E+02  0.18780293672E+02  0.98513924060E+02  0.94886674592E+02 0.  0.
         13    1    3    3    0    0 -0.82720046360E+01  0.17722869959E+02 -0.31733686414E+02  0.37276858743E+02  0.10566000000E+00 0.  1.
         22    1    1    0    0    0  0.79663235847E+01  0.16892320055E+02 -0.18780293672E+02  0.26486075940E+02  0.00000000000E+00 0. -1.
</event>
<event>
 5    1  0.9034917E-005  0.9118800E+02  0.7818608E-02  0.1130116E+00
         25   -1    0    0    0    0  0.00000000000E+00  0.00000000000E+00  0.99999998245E-14  0.12500000000E+03  0.12500000000E+03 0.  0.
        -13    1    3    3    0    0  0.17270744981E+00 -0.37047702995E+01  0.36186304982E+02  0.36376022091E+02  0.10566000000E+00 0.  1.
         23    2    1    0    0    0  0.21412007314E+02 -0.15477500322E+02 -0.16124014421E+02  0.94048248604E+02  0.88809133263E+02 0.  0.
         13    1    3    3    0    0  0.21239299864E+02 -0.11772730023E+02 -0.52310319403E+02  0.57672226513E+02  0.10566000000E+00 0. -1.
         22    1    1    0    0    0 -0.21412007314E+02  0.15477500322E+02  0.16124014421E+02  0.30951751396E+02  0.00000000000E+00 0. -1.
</event>
<event>
 5    1  0.9034917E-005  0.9118800E+02  0.7818608E-02  0.1130116E+00
         25   -1    0    0    0    0  0.00000000000E+00  0.00000000000E+00  0.99999998245E-14  0.12500000000E+03  0.12500000000E+03 0.  0.
        -13    1    3    3    0    0  0.24012116605E+02 -0.26655253118E+02 -0.29391179759E+02  0.46378193953E+02  0.10566000000E+00 0. -1.
         23    2    1    0    0    0  0.19048393220E+02 -0.77497354443E+01  0.18017933396E+02  0.97658719716E+02  0.93753292897E+02 0.  0.
         13    1    3    3    0    0 -0.49637233857E+01  0.18905517674E+02  0.47409113155E+02  0.51280525763E+02  0.10566000000E+00 0.  1.
         22    1    1    0    0    0 -0.19048393220E+02  0.77497354443E+01 -0.18017933396E+02  0.27341280284E+02  0.00000000000E+00 0. -1.
</event>
<event>
 5    1  0.9034917E-005  0.9118800E+02  0.7818608E-02  0.1130116E+00
         25   -1    0    0    0    0  0.00000000000E+00  0.00000000000E+00  0.99999998245E-14  0.12500000000E+03  0.12500000000E+03 0.  0.
        -13    1    3    3    0    0  0.19206532624E+02  0.24435386119E+01 -0.30592052381E+02  0.36204234688E+02  0.10566000000E+00 0.  1.
         23    2    1    0    0    0 -0.78370825359E+01 -0.17820541693E+02  0.20029011100E+02  0.97068783511E+02  0.92963411501E+02 0.  0.
         13    1    3    3    0    0 -0.27043615160E+02 -0.20264080305E+02  0.50621063481E+02  0.60864548824E+02  0.10566000000E+00 0. -1.
         22    1    1    0    0    0  0.78370825359E+01  0.17820541693E+02 -0.20029011100E+02  0.27931216489E+02  0.00000000000E+00 0. -1.
</event>
<event>
 5    1  0.9034917E-005  0.9118800E+02  0.7818608E-02  0.1130116E+00
         25   -1    0    0    0    0  0.00000000000E+00  0.00000000000E+00  0.99999998245E-14  0.12500000000E+03  0.12500000000E+03 0.  0.
        -13    1    3    3    0    0 -0.33495322691E+02 -0.43322640813E+02  0.10093294060E+02  0.55683692390E+02  0.10566000000E+00 0. -1.
         23    2    1    0    0    0 -0.24207181145E+02 -0.14945539029E+02 -0.13281148752E+02  0.93603413115E+02  0.88180798810E+02 0.  0.
         13    1    3    3    0    0  0.92881415455E+01  0.28377101784E+02 -0.23374442812E+02  0.37919720725E+02  0.10566000000E+00 0.  1.
         22    1    1    0    0    0  0.24207181145E+02  0.14945539029E+02  0.13281148752E+02  0.31396586885E+02  0.00000000000E+00 0. -1.
</event>
<event>
 5    1  0.9034917E-005  0.9118800E+02  0.7818608E-02  0.1130116E+00
         25   -1    0    0    0    0  0.00000000000E+00  0.00000000000E+00  0.99999998245E-14  0.12500000000E+03  0.12500000000E+03 0.  0.
        -13    1    3    3    0    0  0.20785768119E+02  0.35974192582E+02  0.13505394561E+02  0.43687498607E+02  0.10566000000E+00 0.  1.
         23    2    1    0    0    0  0.25155145110E+02 -0.92579105936E+01 -0.11813403678E+02  0.95707565132E+02  0.91114714964E+02 0.  0.
         13    1    3    3    0    0  0.43693769907E+01 -0.45232103176E+02 -0.25318798238E+02  0.52020066525E+02  0.10566000000E+00 0. -1.
         22    1    1    0    0    0 -0.25155145110E+02  0.92579105936E+01  0.11813403678E+02  0.29292434868E+02  0.00000000000E+00 0. -1.
</event>
<event>
 5    1  0.9034917E-005  0.9118800E+02  0.7818608E-02  0.1130116E+00
         25   -1    0    0    0    0  0.00000000000E+00  0.00000000000E+00  0.99999998245E-14  0.12500000000E+03  0.12500000000E+03 0.  0.
        -13    1    3    3    0    0  0.81817101772E+01  0.41461502284E+02  0.16028457563E+02  0.45198663354E+02  0.10566000000E+00 0.  1.
         23    2    1    0    0    0  0.25058345924E+02  0.16806714377E+02 -0.17509364292E+02  0.90114986219E+02  0.83088787178E+02 0.  0.
         13    1    3    3    0    0  0.16876635747E+02 -0.24654787907E+02 -0.33537821855E+02  0.44916322865E+02  0.10566000000E+00 0. -1.
         22    1    1    0    0    0 -0.25058345924E+02 -0.16806714377E+02  0.17509364292E+02  0.34885013781E+02  0.00000000000E+00 0. -1.
</event>
<event>
 5    1  0.9034917E-005  0.9118800E+02  0.7818608E-02  0.1130116E+00
         25   -1    0    0    0    0  0.00000000000E+00  0.00000000000E+00  0.99999998245E-14  0.12500000000E+03  0.12500000000E+03 0.  0.
        -13    1    3    3    0    0 -0.12299705999E+02  0.16160633610E+02 -0.53630191424E+02  0.57346817196E+02  0.10566000000E+00 0. -1.
         23    2    1    0    0    0 -0.80612105044E+01  0.24818197405E+02 -0.20602472088E+02  0.91752625767E+02  0.85516995047E+02 0.  0.
         13    1    3    3    0    0  0.42384954942E+01  0.86575637954E+01  0.33027719335E+02  0.34405808571E+02  0.10566000000E+00 0.  1.
         22    1    1    0    0    0  0.80612105044E+01 -0.24818197405E+02  0.20602472088E+02  0.33247374233E+02  0.00000000000E+00 0. -1.
</event>
<event>
 5    1  0.9034917E-005  0.9118800E+02  0.7818608E-02  0.1130116E+00
         25   -1    0    0    0    0  0.00000000000E+00  0.00000000000E+00  0.99999998245E-14  0.12500000000E+03  0.12500000000E+03 0.  0.
        -13    1    3    3    0    0 -0.14482161070E+01 -0.15530337232E+02 -0.14128220982E+02  0.21045343822E+02  0.10566000000E+00 0. -1.
         23    2    1    0    0    0 -0.44733765191E+02 -0.17177638452E+02  0.16746587952E+02  0.74239491541E+02  0.54174467098E+02 0.  0.
         13    1    3    3    0    0 -0.43285549084E+02 -0.16473012198E+01  0.30874808935E+02  0.53194147719E+02  0.10566000000E+00 0.  1.
         22    1    1    0    0    0  0.44733765191E+02  0.17177638452E+02 -0.16746587952E+02  0.50760508459E+02  0.00000000000E+00 0.  1.
</event>
<event>
 5    1  0.9034917E-005  0.9118800E+02  0.7818608E-02  0.1130116E+00
         25   -1    0    0    0    0  0.00000000000E+00  0.00000000000E+00  0.99999998245E-14  0.12500000000E+03  0.12500000000E+03 0.  0.
        -13    1    3    3    0    0 -0.27982361645E+02 -0.34944152096E+02  0.25738866421E+02  0.51639197685E+02  0.10566000000E+00 0. -1.
         23    2    1    0    0    0 -0.18857408460E+02 -0.19286564970E+02 -0.13482079722E+02  0.94844736515E+02  0.89923212403E+02 0.  0.
         13    1    3    3    0    0  0.91249531846E+01  0.15657587126E+02 -0.39220946143E+02  0.43205538830E+02  0.10566000000E+00 0.  1.
         22    1    1    0    0    0  0.18857408460E+02  0.19286564970E+02  0.13482079722E+02  0.30155263485E+02  0.00000000000E+00 0. -1.
</event>
<event>
 5    1  0.9034917E-005  0.9118800E+02  0.7818608E-02  0.1130116E+00
         25   -1    0    0    0    0  0.00000000000E+00  0.00000000000E+00  0.99999998245E-14  0.12500000000E+03  0.12500000000E+03 0.  0.
        -13    1    3    3    0    0 -0.18554347138E+01  0.31844617639E+02 -0.17395666497E+02  0.36333767868E+02  0.10566000000E+00 0. -1.
         23    2    1    0    0    0  0.22602257814E+02 -0.13106466420E+02  0.12961129133E+02  0.95834397165E+02  0.91288549618E+02 0.  0.
         13    1    3    3    0    0  0.24457692528E+02 -0.44951084059E+02  0.30356795630E+02  0.59500629298E+02  0.10566000000E+00 0.  1.
         22    1    1    0    0    0 -0.22602257814E+02  0.13106466420E+02 -0.12961129133E+02  0.29165602835E+02  0.00000000000E+00 0.  1.
</event>
<event>
 5    1  0.9034917E-005  0.9118800E+02  0.7818608E-02  0.1130116E+00
         25   -1    0    0    0    0  0.00000000000E+00  0.00000000000E+00  0.99999998245E-14  0.12500000000E+03  0.12500000000E+03 0.  0.
        -13    1    3    3    0    0 -0.10950928787E+02 -0.29449534308E+02  0.26769060359E+02  0.41277011384E+02  0.10566000000E+00 0.  1.
         23    2    1    0    0    0 -0.29584513192E+02  0.12931701685E+02  0.16673066663E+02  0.88661817860E+02  0.80873076268E+02 0.  0.
         13    1    3    3    0    0 -0.18633584405E+02  0.42381235993E+02 -0.10095993696E+02  0.47384806476E+02  0.10566000000E+00 0. -1.
         22    1    1    0    0    0  0.29584513192E+02 -0.12931701685E+02 -0.16673066663E+02  0.36338182140E+02  0.00000000000E+00 0.  1.
</event>
<event>
 5    1  0.9034917E-005  0.9118800E+02  0.7818608E-02  0.1130116E+00
         25   -1    0    0    0    0  0.00000000000E+00  0.00000000000E+00  0.99999998245E-14  0.12500000000E+03  0.12500000000E+03 0.  0.
        -13    1    3    3    0    0 -0.98228042896E+01  0.57125653660E+02  0.80384590177E+01  0.58518849763E+02  0.10566000000E+00 0. -1.
         23    2    1    0    0    0  0.11306330170E+02  0.26163141915E+02  0.39415408564E+01  0.96227116218E+02  0.91824719191E+02 0.  0.
         13    1    3    3    0    0  0.21129134460E+02 -0.30962511745E+02 -0.40969181612E+01  0.37708266455E+02  0.10566000000E+00 0.  1.
         22    1    1    0    0    0 -0.11306330170E+02 -0.26163141915E+02 -0.39415408564E+01  0.28772883782E+02  0.00000000000E+00 0. -1.
</event>
<event>
 5    1  0.9034917E-005  0.9118800E+02  0.7818608E-02  0.1130116E+00
         25   -1    0    0    0    0  0.00000000000E+00  0.00000000000E+00  0.99999998245E-14  0.12500000000E+03  0.12500000000E+03 0.  0.
        -13    1    3    3    0    0  0.29664742746E+02 -0.26931608801E+02 -0.17335120970E+02  0.43655768208E+02  0.10566000000E+00 0.  1.
         23    2    1    0    0    0  0.39142381849E+01 -0.98500144018E+01  0.26024470823E+02  0.96899873205E+02  0.92736014046E+02 0.  0.
         13    1    3    3    0    0 -0.25750504561E+02  0.17081594399E+02  0.43359591793E+02  0.53244104996E+02  0.10566000000E+00 0. -1.
         22    1    1    0    0    0 -0.39142381849E+01  0.98500144018E+01 -0.26024470823E+02  0.28100126795E+02  0.00000000000E+00 0.  1.
</event>
<event>
 5    1  0.9034917E-005  0.9118800E+02  0.7818608E-02  0.1130116E+00
         25   -1    0    0    0    0  0.00000000000E+00  0.00000000000E+00  0.99999998245E-14  0.12500000000E+03  0.12500000000E+03 0.  0.
        -13    1    3    3    0    0  0.20317778878E+02  0.13729479606E+02  0.23363811215E+02  0.33870187293E+02  0.10566000000E+00 0. -1.
         23    2    1    0    0    0 -0.39413938687E+01 -0.17765602659E+02 -0.23469788396E+02  0.95301815025E+02  0.90556356797E+02 0.  0.
         13    1    3    3    0    0 -0.24259172746E+02 -0.31495082265E+02 -0.46833599611E+02  0.61431627732E+02  0.10566000000E+00 0.  1.
         22    1    1    0    0    0  0.39413938687E+01  0.17765602659E+02  0.23469788396E+02  0.29698184975E+02  0.00000000000E+00 0.  1.
</event>
<event>
 5    1  0.9034917E-005  0.9118800E+02  0.7818608E-02  0.1130116E+00
         25   -1    0    0    0    0  0.00000000000E+00  0.00000000000E+00  0.99999998245E-14  0.12500000000E+03  0.12500000000E+03 0.  0.
        -13    1    3    3    0    0 -0.86955380102E+01  0.31682355922E+02 -0.11018667533E+02  0.34652651505E+02  0.10566000000E+00 0.  1.
         23    2    1    0    0    0  0.22711163748E+02 -0.17482548972E+02  0.65882147587E+01  0.95591819998E+02  0.90955785959E+02 0.  0.
         13    1    3    3    0    0  0.31406701758E+02 -0.49164904894E+02  0.17606882292E+02  0.60939168493E+02  0.10566000000E+00 0. -1.
         22    1    1    0    0    0 -0.22711163748E+02  0.17482548972E+02 -0.65882147587E+01  0.29408180002E+02  0.00000000000E+00 0. -1.
</event>
<event>
 5    1  0.9034917E-005  0.9118800E+02  0.7818608E-02  0.1130116E+00
         25   -1    0    0    0    0  0.00000000000E+00  0.00000000000E+00  0.99999998245E-14  0.12500000000E+03  0.12500000000E+03 0.  0.
        -13    1    3    3    0    0  0.29025155817E+02 -0.17354808308E+02 -0.52261822048E+02  0.62249162641E+02  0.10566000000E+00 0. -1.
         23    2    1    0    0    0  0.16276992092E+02 -0.58627837964E+01 -0.22339801432E+02  0.96744391116E+02  0.92526200500E+02 0.  0.
         13    1    3    3    0    0 -0.12748163725E+02  0.11492024512E+02  0.29922020616E+02  0.34495228475E+02  0.10566000000E+00 0.  1.
         22    1    1    0    0    0 -0.16276992092E+02  0.58627837964E+01  0.22339801432E+02  0.28255608884E+02  0.00000000000E+00 0. -1.
</event>
<event>
 5    1  0.9034917E-005  0.9118800E+02  0.7818608E-02  0.1130116E+00
         25   -1    0    0    0    0  0.00000000000E+00  0.00000000000E+00  0.99999998245E-14  0.12500000000E+03  0.12500000000E+03 0.  0.
        -13    1    3    3    0    0  0.47934640127E+02 -0.74018784504E+01 -0.23459647683E+02  0.53878416478E+02  0.10566000000E+00 0.  1.
         23    2    1    0    0    0  0.11881675717E+02  0.12151901330E+02 -0.24824106122E+02  0.94915466290E+02  0.90021478396E+02 0.  0.
         13    1    3    3    0    0 -0.36052964410E+02  0.19553779780E+02 -0.13644584390E+01  0.41037049813E+02  0.10566000000E+00 0. -1.
         22    1    1    0    0    0 -0.11881675717E+02 -0.12151901330E+02  0.24824106122E+02  0.30084533710E+02  0.00000000000E+00 0.  1.
</event>
<event>
 5    1  0.9034917E-005  0.9118800E+02  0.7818608E-02  0.1130116E+00
         25   -1    0    0    0    0  0.00000000000E+00  0.00000000000E+00  0.99999998245E-14  0.12500000000E+03  0.12500000000E+03 0.  0.
        -13    1    3    3    0    0  0.10406565974E+02 -0.42273764990E+02 -0.10992887061E+02  0.44902366884E+02  0.10566000000E+00 0.  1.
         23    2    1    0    0    0  0.21851470135E+02  0.20721336334E-01  0.17360414740E+02  0.97091736414E+02  0.92994269197E+02 0.  0.
         13    1    3    3    0    0  0.11444904162E+02  0.42294486326E+02  0.28353301801E+02  0.52189369530E+02  0.10566000000E+00 0. -1.
         22    1    1    0    0    0 -0.21851470135E+02 -0.20721336334E-01 -0.17360414740E+02  0.27908263586E+02  0.00000000000E+00 0.  1.
</event>
<event>
 5    1  0.9034917E-005  0.9118800E+02  0.7818608E-02  0.1130116E+00
         25   -1    0    0    0    0  0.00000000000E+00  0.00000000000E+00  0.99999998245E-14  0.12500000000E+03  0.12500000000E+03 0.  0.
        -13    1    3    3    0    0 -0.48351467446E+02  0.10114497223E+02 -0.70400476609E+01  0.49897303468E+02  0.10566000000E+00 0. -1.
         23    2    1    0    0    0 -0.17243911477E+02 -0.18690711777E+02  0.12597485688E+02  0.96620573730E+02  0.92358775612E+02 0.  0.
         13    1    3    3    0    0  0.31107555969E+02 -0.28805209000E+02  0.19637533349E+02  0.46723270262E+02  0.10566000000E+00 0.  1.
         22    1    1    0    0    0  0.17243911477E+02  0.18690711777E+02 -0.12597485688E+02  0.28379426270E+02  0.00000000000E+00 0. -1.
</event>
<event>
 5    1  0.9034917E-005  0.9118800E+02  0.7818608E-02  0.1130116E+00
         25   -1    0    0    0    0  0.00000000000E+00  0.00000000000E+00  0.99999998245E-14  0.12500000000E+03  0.12500000000E+03 0.  0.
        -13    1    3    3    0    0  0.49094588939E+02  0.27740037621E+02  0.12170023642E+01  0.56402842208E+02  0.10566000000E+00 0. -1.
         23    2    1    0    0    0  0.12359695660E+02  0.29307160239E+02  0.11803910986E+01  0.93171317318E+02  0.87566142598E+02 0.  0.
         13    1    3    3    0    0 -0.36734893279E+02  0.15671226188E+01 -0.36611265624E-01  0.36768475110E+02  0.10566000000E+00 0.  1.
         22    1    1    0    0    0 -0.12359695660E+02 -0.29307160239E+02 -0.11803910986E+01  0.31828682682E+02  0.00000000000E+00 0. -1.
</event>
<event>
 5    1  0.9034917E-005  0.9118800E+02  0.7818608E-02  0.1130116E+00
         25   -1    0    0    0    0  0.00000000000E+00  0.00000000000E+00  0.99999998245E-14  0.12500000000E+03  0.12500000000E+03 0.  0.
        -13    1    3    3    0    0 -0.37352813977E+02  0.36872120192E+02 -0.29794070368E+02  0.60352992905E+02  0.10566000000E+00 0.  1.
         23    2    1    0    0    0 -0.17115497365E+02  0.22596656022E+02 -0.35599313530E+01  0.96430396841E+02  0.92101027194E+02 0.  0.
         13    1    3    3    0    0  0.20237316612E+02 -0.14275464170E+02  0.26234139015E+02  0.36077403936E+02  0.10566000000E+00 0. -1.
         22    1    1    0    0    0  0.17115497365E+02 -0.22596656022E+02  0.35599313530E+01  0.28569603159E+02  0.00000000000E+00 0.  1.
</event>
<event>
 5    1  0.9034917E-005  0.9118800E+02  0.7818608E-02  0.1130116E+00
         25   -1    0    0    0    0  0.00000000000E+00  0.00000000000E+00  0.99999998245E-14  0.12500000000E+03  0.12500000000E+03 0.  0.
        -13    1    3    3    0    0 -0.11829069590E+02 -0.14411410328E+01  0.50509672416E+02  0.51896454083E+02  0.10566000000E+00 0. -1.
         23    2    1    0    0    0 -0.74937269254E+01  0.24076000812E+02  0.15619729825E+02  0.95338817992E+02  0.90607419663E+02 0.  0.
         13    1    3    3    0    0  0.43353426645E+01  0.25517141844E+02 -0.34889942591E+02  0.43442363908E+02  0.10566000000E+00 0.  1.
         22    1    1    0    0    0  0.74937269254E+01 -0.24076000812E+02 -0.15619729825E+02  0.29661182008E+02  0.00000000000E+00 0. -1.
</event>
<event>
 5    1  0.9034917E-005  0.9118800E+02  0.7818608E-02  0.1130116E+00
         25   -1    0    0    0    0  0.00000000000E+00  0.00000000000E+00  0.99999998245E-14  0.12500000000E+03  0.12500000000E+03 0.  0.
        -13    1    3    3    0    0  0.27619847727E+02 -0.18789710798E+02  0.43121290685E+02  0.54546916455E+02  0.10566000000E+00 0.  1.
         23    2    1    0    0    0  0.66006567372E+01  0.47586103822E+01  0.37523551898E+02  0.86604297257E+02  0.77627793439E+02 0.  0.
         13    1    3    3    0    0 -0.21019190990E+02  0.23548321181E+02 -0.55977387876E+01  0.32057380802E+02  0.10566000000E+00 0. -1.
         22    1    1    0    0    0 -0.66006567372E+01 -0.47586103822E+01 -0.37523551898E+02  0.38395702743E+02  0.00000000000E+00 0.  1.
</event>
<event>
 5    1  0.9034917E-005  0.9118800E+02  0.7818608E-02  0.1130116E+00
         25   -1    0    0    0    0  0.00000000000E+00  0.00000000000E+00  0.99999998245E-14  0.12500000000E+03  0.12500000000E+03 0.  0.
        -13    1    3    3    0    0 -0.37896065597E+02 -0.23496584810E+02  0.31908591917E+02  0.54830381064E+02  0.10566000000E+00 0.  1.
         23    2    1    0    0    0  0.43954336296E+00 -0.23847084199E+02  0.88985580376E+01  0.99542958571E+02  0.96232736856E+02 0.  0.
         13    1    3    3    0    0  0.38335608960E+02 -0.35049938905E+00 -0.23010033879E+02  0.44712577507E+02  0.10566000000E+00 0. -1.
         22    1    1    0    0    0 -0.43954336296E+00  0.23847084199E+02 -0.88985580376E+01  0.25457041429E+02  0.00000000000E+00 0.  1.
</event>
<event>
 5    1  0.9034917E-005  0.9118800E+02  0.7818608E-02  0.1130116E+00
         25   -1    0    0    0    0  0.00000000000E+00  0.00000000000E+00  0.99999998245E-14  0.12500000000E+03  0.12500000000E+03 0.  0.
        -13    1    3    3    0    0 -0.32904821597E+02  0.62928841793E+01 -0.11966424765E+02  0.35574346956E+02  0.10566000000E+00 0.  1.
         23    2    1    0    0    0  0.25317722325E+02 -0.51222512031E+01 -0.15262938784E+02  0.94996969796E+02  0.90134579652E+02 0.  0.
         13    1    3    3    0    0  0.58222543922E+02 -0.11415135382E+02 -0.32965140195E+01  0.59422622840E+02  0.10566000000E+00 0. -1.
         22    1    1    0    0    0 -0.25317722325E+02  0.51222512031E+01  0.15262938784E+02  0.30003030204E+02  0.00000000000E+00 0. -1.
</event>
<event>
 5    1  0.9034917E-005  0.9118800E+02  0.7818608E-02  0.1130116E+00
         25   -1    0    0    0    0  0.00000000000E+00  0.00000000000E+00  0.99999998245E-14  0.12500000000E+03  0.12500000000E+03 0.  0.
        -13    1    3    3    0    0 -0.38526038170E+02 -0.42990586462E+02  0.68531791416E+01  0.58132808032E+02  0.10566000000E+00 0.  1.
         23    2    1    0    0    0 -0.11959542182E+02 -0.24063334285E+02 -0.11736243026E+02  0.95677413032E+02  0.91073339996E+02 0.  0.
         13    1    3    3    0    0  0.26566495988E+02  0.18927252176E+02 -0.18589422168E+02  0.37544605000E+02  0.10566000000E+00 0. -1.
         22    1    1    0    0    0  0.11959542182E+02  0.24063334285E+02  0.11736243026E+02  0.29322586968E+02  0.00000000000E+00 0.  1.
</event>
<event>
 5    1  0.9034917E-005  0.9118800E+02  0.7818608E-02  0.1130116E+00
         25   -1    0    0    0    0  0.00000000000E+00  0.00000000000E+00  0.99999998245E-14  0.12500000000E+03  0.12500000000E+03 0.  0.
        -13    1    3    3    0    0 -0.36894925197E+01 -0.11163277046E+02 -0.30241611388E+02  0.32446838565E+02  0.10566000000E+00 0.  1.
         23    2    1    0    0    0  0.44449993214E+00  0.19729945453E+02  0.23340204563E+02  0.94434766862E+02  0.89351506509E+02 0.  0.
         13    1    3    3    0    0  0.41339924519E+01  0.30893222499E+02  0.53581815951E+02  0.61987928297E+02  0.10566000000E+00 0. -1.
         22    1    1    0    0    0 -0.44449993214E+00 -0.19729945453E+02 -0.23340204563E+02  0.30565233138E+02  0.00000000000E+00 0. -1.
</event>
<event>
 5    1  0.9034917E-005  0.9118800E+02  0.7818608E-02  0.1130116E+00
         25   -1    0    0    0    0  0.00000000000E+00  0.00000000000E+00  0.99999998245E-14  0.12500000000E+03  0.12500000000E+03 0.  0.
        -13    1    3    3    0    0 -0.23872499274E+02 -0.70209325355E+01  0.23838141955E+02  0.34459510895E+02  0.10566000000E+00 0. -1.
         23    2    1    0    0    0  0.19699912877E+02  0.22037511322E+02 -0.61462607500E+01  0.94808693406E+02  0.89873095816E+02 0.  0.
         13    1    3    3    0    0  0.43572412151E+02  0.29058443857E+02 -0.29984402705E+02  0.60349182511E+02  0.10566000000E+00 0.  1.
         22    1    1    0    0    0 -0.19699912877E+02 -0.22037511322E+02  0.61462607500E+01  0.30191306594E+02  0.00000000000E+00 0.  1.
</event>
<event>
 5    1  0.9034917E-005  0.9118800E+02  0.7818608E-02  0.1130116E+00
         25   -1    0    0    0    0  0.00000000000E+00  0.00000000000E+00  0.99999998245E-14  0.12500000000E+03  0.12500000000E+03 0.  0.
        -13    1    3    3    0    0  0.50302150533E+02 -0.50645875178E+01 -0.19918244989E+02  0.54338789483E+02  0.10566000000E+00 0.  1.
         23    2    1    0    0    0  0.24925937356E+02 -0.70738842934E+01  0.13048305594E+02  0.95989648900E+02  0.91500886471E+02 0.  0.
         13    1    3    3    0    0 -0.25376213177E+02 -0.20092967756E+01  0.32966550584E+02  0.41650859417E+02  0.10566000000E+00 0. -1.
         22    1    1    0    0    0 -0.24925937356E+02  0.70738842934E+01 -0.13048305594E+02  0.29010351100E+02  0.00000000000E+00 0.  1.
</event>
<event>
 5    1  0.9034917E-005  0.9118800E+02  0.7818608E-02  0.1130116E+00
         25   -1    0    0    0    0  0.00000000000E+00  0.00000000000E+00  0.99999998245E-14  0.12500000000E+03  0.12500000000E+03 0.  0.
        -13    1    3    3    0    0  0.25675891832E+02 -0.21413066389E+02  0.83084254450E+01  0.34450136879E+02  0.10566000000E+00 0. -1.
         23    2    1    0    0    0 -0.27186854415E+02 -0.38749996788E+01  0.19576762774E+02  0.91274782192E+02  0.84815656267E+02 0.  0.
         13    1    3    3    0    0 -0.52862746247E+02  0.17538066710E+02  0.11268337329E+02  0.56824645313E+02  0.10566000000E+00 0.  1.
         22    1    1    0    0    0  0.27186854415E+02  0.38749996788E+01 -0.19576762774E+02  0.33725217808E+02  0.00000000000E+00 0.  1.
</event>
<event>
 5    1  0.9034917E-005  0.9118800E+02  0.7818608E-02  0.1130116E+00
         25   -1    0    0    0    0  0.00000000000E+00  0.00000000000E+00  0.99999998245E-14  0.12500000000E+03  0.12500000000E+03 0.  0.
        -13    1    3    3    0    0  0.10502276571E+02  0.46011527487E+02  0.31017319829E+02  0.56475160631E+02  0.10566000000E+00 0.  1.
         23    2    1    0    0    0 -0.48787419994E+01  0.10880237407E+02  0.27547281119E+02  0.94982765175E+02  0.90114878315E+02 0.  0.
         13    1    3    3    0    0 -0.15381018571E+02 -0.35131290081E+02 -0.34700387097E+01  0.38507604544E+02  0.10566000000E+00 0. -1.
         22    1    1    0    0    0  0.48787419994E+01 -0.10880237407E+02 -0.27547281119E+02  0.30017234825E+02  0.00000000000E+00 0.  1.
</event>
<event>
 5    1  0.9034917E-005  0.9118800E+02  0.7818608E-02  0.1130116E+00
         25   -1    0    0    0    0  0.00000000000E+00  0.00000000000E+00  0.99999998245E-14  0.12500000000E+03  0.12500000000E+03 0.  0.
        -13    1    3    3    0    0 -0.65996602793E+01  0.36514745077E+02  0.26491036506E+02  0.45592414973E+02  0.10566000000E+00 0.  1.
         23    2    1    0    0    0 -0.32648242736E+02  0.11244991473E+02  0.93340102919E-01  0.90469342616E+02  0.83620186881E+02 0.  0.
         13    1    3    3    0    0 -0.26048582457E+02 -0.25269753604E+02 -0.26397696403E+02  0.44876927643E+02  0.10566000000E+00 0. -1.
         22    1    1    0    0    0  0.32648242736E+02 -0.11244991473E+02 -0.93340102919E-01  0.34530657384E+02  0.00000000000E+00 0.  1.
</event>
<event>
 5    1  0.9034917E-005  0.9118800E+02  0.7818608E-02  0.1130116E+00
         25   -1    0    0    0    0  0.00000000000E+00  0.00000000000E+00  0.99999998245E-14  0.12500000000E+03  0.12500000000E+03 0.  0.
        -13    1    3    3    0    0 -0.16413868509E+02 -0.56466493599E+02 -0.19910968522E+02  0.62083313461E+02  0.10566000000E+00 0.  1.
         23    2    1    0    0    0 -0.27433746461E+01 -0.27478732833E+02 -0.84461902910E+01  0.96121894228E+02  0.91681369738E+02 0.  0.
         13    1    3    3    0    0  0.13670493863E+02  0.28987760766E+02  0.11464778231E+02  0.34038580767E+02  0.10566000000E+00 0. -1.
         22    1    1    0    0    0  0.27433746461E+01  0.27478732833E+02  0.84461902910E+01  0.28878105772E+02  0.00000000000E+00 0.  1.
</event>
<event>
 5    1  0.9034917E-005  0.9118800E+02  0.7818608E-02  0.1130116E+00
         25   -1    0    0    0    0  0.00000000000E+00  0.00000000000E+00  0.99999998245E-14  0.12500000000E+03  0.12500000000E+03 0.  0.
        -13    1    3    3    0    0  0.15874154511E+02  0.23466825416E+02  0.48168898874E+02  0.55883223416E+02  0.10566000000E+00 0.  1.
         23    2    1    0    0    0  0.14136992767E+02 -0.91855738844E+01  0.15760765061E+02  0.10192119918E+03  0.99273862595E+02 0.  0.
         13    1    3    3    0    0 -0.17371617442E+01 -0.32652399301E+02 -0.32408133813E+02  0.46037975762E+02  0.10566000000E+00 0. -1.
         22    1    1    0    0    0 -0.14136992767E+02  0.91855738844E+01 -0.15760765061E+02  0.23078800822E+02  0.00000000000E+00 0. -1.
</event>
<event>
 5    1  0.9034917E-005  0.9118800E+02  0.7818608E-02  0.1130116E+00
         25   -1    0    0    0    0  0.00000000000E+00  0.00000000000E+00  0.99999998245E-14  0.12500000000E+03  0.12500000000E+03 0.  0.
        -13    1    3    3    0    0 -0.24955013103E+02 -0.11107351030E+02  0.28026056439E+02  0.39135622257E+02  0.10566000000E+00 0.  1.
         23    2    1    0    0    0 -0.77479371078E+01 -0.61207972709E+01 -0.26601088626E+02  0.96625493754E+02  0.92365434219E+02 0.  0.
         13    1    3    3    0    0  0.17207075995E+02  0.49865537591E+01 -0.54627145065E+02  0.57489871496E+02  0.10566000000E+00 0. -1.
         22    1    1    0    0    0  0.77479371078E+01  0.61207972709E+01  0.26601088626E+02  0.28374506246E+02  0.00000000000E+00 0.  1.
</event>
<event>
 5    1  0.9034917E-005  0.9118800E+02  0.7818608E-02  0.1130116E+00
         25   -1    0    0    0    0  0.00000000000E+00  0.00000000000E+00  0.99999998245E-14  0.12500000000E+03  0.12500000000E+03 0.  0.
        -13    1    3    3    0    0  0.22013164864E+01  0.93147908273E+01  0.55301575607E+02  0.56123850110E+02  0.10566000000E+00 0.  1.
         23    2    1    0    0    0  0.92980313542E+01 -0.13918451890E+02  0.23750347102E+02  0.95943921848E+02  0.91438397088E+02 0.  0.
         13    1    3    3    0    0  0.70967148679E+01 -0.23233242717E+02 -0.31551228505E+02  0.39820071739E+02  0.10566000000E+00 0. -1.
         22    1    1    0    0    0 -0.92980313542E+01  0.13918451890E+02 -0.23750347102E+02  0.29056078152E+02  0.00000000000E+00 0.  1.
</event>
<event>
 5    1  0.9034917E-005  0.9118800E+02  0.7818608E-02  0.1130116E+00
         25   -1    0    0    0    0  0.00000000000E+00  0.00000000000E+00  0.99999998245E-14  0.12500000000E+03  0.12500000000E+03 0.  0.
        -13    1    3    3    0    0 -0.40944588990E+02 -0.26529241270E+02  0.36591196968E+01  0.48925048093E+02  0.10566000000E+00 0.  1.
         23    2    1    0    0    0  0.48691837986E+01 -0.21852637097E+02  0.17020615029E+02  0.96876201627E+02  0.92704101348E+02 0.  0.
         13    1    3    3    0    0  0.45813772788E+02  0.46766041732E+01  0.13361495332E+02  0.47951153534E+02  0.10566000000E+00 0. -1.
         22    1    1    0    0    0 -0.48691837986E+01  0.21852637097E+02 -0.17020615029E+02  0.28123798373E+02  0.00000000000E+00 0.  1.
</event>
<event>
 5    1  0.9034917E-005  0.9118800E+02  0.7818608E-02  0.1130116E+00
         25   -1    0    0    0    0  0.00000000000E+00  0.00000000000E+00  0.99999998245E-14  0.12500000000E+03  0.12500000000E+03 0.  0.
        -13    1    3    3    0    0 -0.22840445655E+02  0.51136945832E+02  0.22997507233E+02  0.60543948415E+02  0.10566000000E+00 0. -1.
         23    2    1    0    0    0 -0.17757455568E+02  0.18390230309E+02  0.17204943075E+02  0.94185427712E+02  0.89002005191E+02 0.  0.
         13    1    3    3    0    0  0.50829900875E+01 -0.32746715523E+02 -0.57925641575E+01  0.33641479297E+02  0.10566000000E+00 0.  1.
         22    1    1    0    0    0  0.17757455568E+02 -0.18390230309E+02 -0.17204943075E+02  0.30814572288E+02  0.00000000000E+00 0. -1.
</event>
<event>
 5    1  0.9034917E-005  0.9118800E+02  0.7818608E-02  0.1130116E+00
         25   -1    0    0    0    0  0.00000000000E+00  0.00000000000E+00  0.99999998245E-14  0.12500000000E+03  0.12500000000E+03 0.  0.
        -13    1    3    3    0    0  0.16707558544E+02  0.28931949975E+02 -0.13990931366E+02  0.36220954796E+02  0.10566000000E+00 0.  1.
         23    2    1    0    0    0 -0.30903678950E+02  0.25252740064E+02 -0.58008622877E+01  0.84671495730E+02  0.74450479733E+02 0.  0.
         13    1    3    3    0    0 -0.47611237493E+02 -0.36792099102E+01  0.81900690786E+01  0.48450540934E+02  0.10566000000E+00 0. -1.
         22    1    1    0    0    0  0.30903678950E+02 -0.25252740064E+02  0.58008622877E+01  0.40328504270E+02  0.00000000000E+00 0. -1.
</event>
<event>
 5    1  0.9034917E-005  0.9118800E+02  0.7818608E-02  0.1130116E+00
         25   -1    0    0    0    0  0.00000000000E+00  0.00000000000E+00  0.99999998245E-14  0.12500000000E+03  0.12500000000E+03 0.  0.
        -13    1    3    3    0    0 -0.75367413814E+01  0.54160549624E+02 -0.29765656108E+02  0.62258919472E+02  0.10566000000E+00 0.  1.
         23    2    1    0    0    0  0.39083694870E-01  0.27019747235E+02 -0.13493315681E+02  0.94798380238E+02  0.89858750600E+02 0.  0.
         13    1    3    3    0    0  0.75758250763E+01 -0.27140802389E+02  0.16272340427E+02  0.32539460766E+02  0.10566000000E+00 0. -1.
         22    1    1    0    0    0 -0.39083694870E-01 -0.27019747235E+02  0.13493315681E+02  0.30201619762E+02  0.00000000000E+00 0.  1.
</event>
<event>
 5    1  0.9034917E-005  0.9118800E+02  0.7818608E-02  0.1130116E+00
         25   -1    0    0    0    0  0.00000000000E+00  0.00000000000E+00  0.99999998245E-14  0.12500000000E+03  0.12500000000E+03 0.  0.
        -13    1    3    3    0    0  0.13919227097E+02  0.18805361299E+02  0.24061199440E+02  0.33560974049E+02  0.10566000000E+00 0. -1.
         23    2    1    0    0    0 -0.24940196763E+02 -0.10879681445E+02 -0.12927560238E+02  0.94875214580E+02  0.89965569220E+02 0.  0.
         13    1    3    3    0    0 -0.38859423860E+02 -0.29685042744E+02 -0.36988759678E+02  0.61314240531E+02  0.10566000000E+00 0.  1.
         22    1    1    0    0    0  0.24940196763E+02  0.10879681445E+02  0.12927560238E+02  0.30124785420E+02  0.00000000000E+00 0.  1.
</event>
<event>
 5    1  0.9034917E-005  0.9118800E+02  0.7818608E-02  0.1130116E+00
         25   -1    0    0    0    0  0.00000000000E+00  0.00000000000E+00  0.99999998245E-14  0.12500000000E+03  0.12500000000E+03 0.  0.
        -13    1    3    3    0    0 -0.18515734853E+02  0.29547062960E+02 -0.19310672749E+02  0.39859435680E+02  0.10566000000E+00 0.  1.
         23    2    1    0    0    0 -0.19812953938E+02 -0.10873281239E+02  0.18930984589E+02  0.95518419883E+02  0.90854856616E+02 0.  0.
         13    1    3    3    0    0 -0.12972190856E+01 -0.40420344199E+02  0.38241657338E+02  0.55658984203E+02  0.10566000000E+00 0. -1.
         22    1    1    0    0    0  0.19812953938E+02  0.10873281239E+02 -0.18930984589E+02  0.29481580117E+02  0.00000000000E+00 0. -1.
</event>
<event>
 5    1  0.9034917E-005  0.9118800E+02  0.7818608E-02  0.1130116E+00
         25   -1    0    0    0    0  0.00000000000E+00  0.00000000000E+00  0.99999998245E-14  0.12500000000E+03  0.12500000000E+03 0.  0.
        -13    1    3    3    0    0  0.23656501554E+01 -0.32861412358E+02  0.21275755389E+02  0.39219098081E+02  0.10566000000E+00 0.  1.
         23    2    1    0    0    0 -0.12625854423E+02  0.26232691598E+01 -0.23444489388E+02  0.98242985524E+02  0.94529076908E+02 0.  0.
         13    1    3    3    0    0 -0.14991504579E+02  0.35484681518E+02 -0.44720244777E+02  0.59023887443E+02  0.10566000000E+00 0. -1.
         22    1    1    0    0    0  0.12625854423E+02 -0.26232691598E+01  0.23444489388E+02  0.26757014476E+02  0.00000000000E+00 0. -1.
</event>
<event>
 5    1  0.9034917E-005  0.9118800E+02  0.7818608E-02  0.1130116E+00
         25   -1    0    0    0    0  0.00000000000E+00  0.00000000000E+00  0.99999998245E-14  0.12500000000E+03  0.12500000000E+03 0.  0.
        -13    1    3    3    0    0 -0.12562605343E+02 -0.52271945067E+01  0.34932904071E+02  0.37489486077E+02  0.10566000000E+00 0. -1.
         23    2    1    0    0    0 -0.20331800152E+02  0.13541593003E+00 -0.21909033602E+02  0.95110098892E+02  0.90291332491E+02 0.  0.
         13    1    3    3    0    0 -0.77691948087E+01  0.53626104367E+01 -0.56841937673E+02  0.57620612815E+02  0.10566000000E+00 0.  1.
         22    1    1    0    0    0  0.20331800152E+02 -0.13541593003E+00  0.21909033602E+02  0.29889901108E+02  0.00000000000E+00 0.  1.
</event>
<event>
 5    1  0.9034917E-005  0.9118800E+02  0.7818608E-02  0.1130116E+00
         25   -1    0    0    0    0  0.00000000000E+00  0.00000000000E+00  0.99999998245E-14  0.12500000000E+03  0.12500000000E+03 0.  0.
        -13    1    3    3    0    0  0.20803960265E+02 -0.51326410435E+02  0.14037900114E+02  0.57133868891E+02  0.10566000000E+00 0. -1.
         23    2    1    0    0    0 -0.73567229885E+01 -0.28940640853E+02  0.19875596783E+01  0.95072880868E+02  0.90239792868E+02 0.  0.
         13    1    3    3    0    0 -0.28160683254E+02  0.22385769582E+02 -0.12050340436E+02  0.37939011976E+02  0.10566000000E+00 0.  1.
         22    1    1    0    0    0  0.73567229885E+01  0.28940640853E+02 -0.19875596783E+01  0.29927119132E+02  0.00000000000E+00 0. -1.
</event>
<event>
 5    1  0.9034917E-005  0.9118800E+02  0.7818608E-02  0.1130116E+00
         25   -1    0    0    0    0  0.00000000000E+00  0.00000000000E+00  0.99999998245E-14  0.12500000000E+03  0.12500000000E+03 0.  0.
        -13    1    3    3    0    0  0.33040477491E+02 -0.21119580871E+02  0.11745577249E+02  0.40935065628E+02  0.10566000000E+00 0. -1.
         23    2    1    0    0    0  0.16046349132E+02  0.27431110565E+02  0.35576350944E+01  0.93021758729E+02  0.87352387960E+02 0.  0.
         13    1    3    3    0    0 -0.16994128359E+02  0.48550691436E+02 -0.81879421542E+01  0.52086693102E+02  0.10566000000E+00 0.  1.
         22    1    1    0    0    0 -0.16046349132E+02 -0.27431110565E+02 -0.35576350944E+01  0.31978241271E+02  0.00000000000E+00 0.  1.
</event>
<event>
 5    1  0.9034917E-005  0.9118800E+02  0.7818608E-02  0.1130116E+00
         25   -1    0    0    0    0  0.00000000000E+00  0.00000000000E+00  0.99999998245E-14  0.12500000000E+03  0.12500000000E+03 0.  0.
        -13    1    3    3    0    0 -0.19340019229E+02 -0.48215438299E+02  0.17233810462E+02  0.54733721061E+02  0.10566000000E+00 0. -1.
         23    2    1    0    0    0 -0.20580730528E+02 -0.72587170867E+01  0.19447111139E+02  0.95769098980E+02  0.91199093992E+02 0.  0.
         13    1    3    3    0    0 -0.12407112982E+01  0.40956721212E+02  0.22133006769E+01  0.41035377919E+02  0.10566000000E+00 0.  1.
         22    1    1    0    0    0  0.20580730528E+02  0.72587170867E+01 -0.19447111139E+02  0.29230901020E+02  0.00000000000E+00 0. -1.
</event>
<event>
 5    1  0.9034917E-005  0.9118800E+02  0.7818608E-02  0.1130116E+00
         25   -1    0    0    0    0  0.00000000000E+00  0.00000000000E+00  0.99999998245E-14  0.12500000000E+03  0.12500000000E+03 0.  0.
        -13    1    3    3    0    0 -0.47353595766E+01  0.21058119823E+02 -0.19533903917E+02  0.29111039264E+02  0.10566000000E+00 0. -1.
         23    2    1    0    0    0  0.16271786218E+02 -0.31930067215E+02 -0.65413723613E+00  0.89156895857E+02  0.81634698286E+02 0.  0.
         13    1    3    3    0    0  0.21007145794E+02 -0.52988187038E+02  0.18879766681E+02  0.60045856593E+02  0.10566000000E+00 0.  1.
         22    1    1    0    0    0 -0.16271786218E+02  0.31930067215E+02  0.65413723613E+00  0.35843104143E+02  0.00000000000E+00 0.  1.
</event>
<event>
 5    1  0.9034917E-005  0.9118800E+02  0.7818608E-02  0.1130116E+00
         25   -1    0    0    0    0  0.00000000000E+00  0.00000000000E+00  0.99999998245E-14  0.12500000000E+03  0.12500000000E+03 0.  0.
        -13    1    3    3    0    0  0.37721485855E+02 -0.38741129141E+02  0.27054568291E+01  0.54139784289E+02  0.10566000000E+00 0.  1.
         23    2    1    0    0    0  0.28529506079E+02 -0.15483668455E+00 -0.82686040010E+01  0.95296018724E+02  0.90548355485E+02 0.  0.
         13    1    3    3    0    0 -0.91919797764E+01  0.38586292456E+02 -0.10974060830E+02  0.41156234435E+02  0.10566000000E+00 0. -1.
         22    1    1    0    0    0 -0.28529506079E+02  0.15483668455E+00  0.82686040010E+01  0.29703981276E+02  0.00000000000E+00 0.  1.
</event>
<event>
 5    1  0.9034917E-005  0.9118800E+02  0.7818608E-02  0.1130116E+00
         25   -1    0    0    0    0  0.00000000000E+00  0.00000000000E+00  0.99999998245E-14  0.12500000000E+03  0.12500000000E+03 0.  0.
        -13    1    3    3    0    0 -0.29183404081E+02 -0.13933947592E+02 -0.11271400862E+02  0.34247359178E+02  0.10566000000E+00 0.  1.
         23    2    1    0    0    0  0.29726130796E+02 -0.50580304233E+01 -0.17723501309E+00  0.94846095840E+02  0.89925101946E+02 0.  0.
         13    1    3    3    0    0  0.58909534877E+02  0.88759171684E+01  0.11094165848E+02  0.60598736661E+02  0.10566000000E+00 0. -1.
         22    1    1    0    0    0 -0.29726130796E+02  0.50580304233E+01  0.17723501309E+00  0.30153904160E+02  0.00000000000E+00 0. -1.
</event>
<event>
 5    1  0.9034917E-005  0.9118800E+02  0.7818608E-02  0.1130116E+00
         25   -1    0    0    0    0  0.00000000000E+00  0.00000000000E+00  0.99999998245E-14  0.12500000000E+03  0.12500000000E+03 0.  0.
        -13    1    3    3    0    0 -0.24042215081E+02 -0.13460090910E+02 -0.30383510593E+02  0.41016716511E+02  0.10566000000E+00 0. -1.
         23    2    1    0    0    0 -0.90089227165E+01  0.26048987219E+02  0.60011007947E+01  0.96791426226E+02  0.92589721657E+02 0.  0.
         13    1    3    3    0    0  0.15033292365E+02  0.39509078129E+02  0.36384611388E+02  0.55774709715E+02  0.10566000000E+00 0.  1.
         22    1    1    0    0    0  0.90089227165E+01 -0.26048987219E+02 -0.60011007947E+01  0.28208573774E+02  0.00000000000E+00 0.  1.
</event>
<event>
 5    1  0.9034917E-005  0.9118800E+02  0.7818608E-02  0.1130116E+00
         25   -1    0    0    0    0  0.00000000000E+00  0.00000000000E+00  0.99999998245E-14  0.12500000000E+03  0.12500000000E+03 0.  0.
        -13    1    3    3    0    0 -0.38335031592E+01  0.43510687526E+01 -0.48374490491E+02  0.48720940468E+02  0.10566000000E+00 0. -1.
         23    2    1    0    0    0  0.54491370366E+01  0.27532279939E+02 -0.86699882023E+01  0.95625040791E+02  0.91001429647E+02 0.  0.
         13    1    3    3    0    0  0.92826401958E+01  0.23181211187E+02  0.39704502289E+02  0.46904100323E+02  0.10566000000E+00 0.  1.
         22    1    1    0    0    0 -0.54491370366E+01 -0.27532279939E+02  0.86699882023E+01  0.29374959209E+02  0.00000000000E+00 0. -1.
</event>
<event>
 5    1  0.9034917E-005  0.9118800E+02  0.7818608E-02  0.1130116E+00
         25   -1    0    0    0    0  0.00000000000E+00  0.00000000000E+00  0.99999998245E-14  0.12500000000E+03  0.12500000000E+03 0.  0.
        -13    1    3    3    0    0  0.37906383985E+02 -0.44494075147E+02  0.11787486772E+02  0.59628622980E+02  0.10566000000E+00 0. -1.
         23    2    1    0    0    0  0.19125231492E+02 -0.20555099604E+02 -0.78552392842E+01  0.95845388297E+02  0.91303598364E+02 0.  0.
         13    1    3    3    0    0 -0.18781152494E+02  0.23938975543E+02 -0.19642726057E+02  0.36216765317E+02  0.10566000000E+00 0.  1.
         22    1    1    0    0    0 -0.19125231492E+02  0.20555099604E+02  0.78552392842E+01  0.29154611703E+02  0.00000000000E+00 0. -1.
</event>
<event>
 5    1  0.9034917E-005  0.9118800E+02  0.7818608E-02  0.1130116E+00
         25   -1    0    0    0    0  0.00000000000E+00  0.00000000000E+00  0.99999998245E-14  0.12500000000E+03  0.12500000000E+03 0.  0.
        -13    1    3    3    0    0 -0.17352793233E+02  0.19597390211E+02 -0.23663290464E+02  0.35286535898E+02  0.10566000000E+00 0.  1.
         23    2    1    0    0    0 -0.11837578104E+02 -0.24840848599E+02  0.14296729663E+02  0.93990445125E+02  0.88727736820E+02 0.  0.
         13    1    3    3    0    0  0.55152151291E+01 -0.44438238810E+02  0.37960020126E+02  0.58703909227E+02  0.10566000000E+00 0. -1.
         22    1    1    0    0    0  0.11837578104E+02  0.24840848599E+02 -0.14296729663E+02  0.31009554875E+02  0.00000000000E+00 0. -1.
</event>
<event>
 5    1  0.9034917E-005  0.9118800E+02  0.7818608E-02  0.1130116E+00
         25   -1    0    0    0    0  0.00000000000E+00  0.00000000000E+00  0.99999998245E-14  0.12500000000E+03  0.12500000000E+03 0.  0.
        -13    1    3    3    0    0 -0.16606226549E+02 -0.31352764443E+02 -0.16629475237E+02  0.39183072992E+02  0.10566000000E+00 0.  1.
         23    2    1    0    0    0 -0.21622362826E+02  0.20304562500E+02  0.40731676582E+01  0.95060184916E+02  0.90222204745E+02 0.  0.
         13    1    3    3    0    0 -0.50161362764E+01  0.51657326943E+02  0.20702642895E+02  0.55877111924E+02  0.10566000000E+00 0. -1.
         22    1    1    0    0    0  0.21622362826E+02 -0.20304562500E+02 -0.40731676582E+01  0.29939815084E+02  0.00000000000E+00 0. -1.
</event>
<event>
 5    1  0.9034917E-005  0.9118800E+02  0.7818608E-02  0.1130116E+00
         25   -1    0    0    0    0  0.00000000000E+00  0.00000000000E+00  0.99999998245E-14  0.12500000000E+03  0.12500000000E+03 0.  0.
        -13    1    3    3    0    0 -0.18432863402E+02 -0.43017641744E+02 -0.14280386430E+01  0.46822413573E+02  0.10566000000E+00 0. -1.
         23    2    1    0    0    0 -0.27518470440E+01 -0.10407892017E+02  0.28978674679E+02  0.94086241501E+02  0.88862592665E+02 0.  0.
         13    1    3    3    0    0  0.15681016358E+02  0.32609749727E+02  0.30406713322E+02  0.47263827928E+02  0.10566000000E+00 0.  1.
         22    1    1    0    0    0  0.27518470440E+01  0.10407892017E+02 -0.28978674679E+02  0.30913758499E+02  0.00000000000E+00 0.  1.
</event>
<event>
 5    1  0.9034917E-005  0.9118800E+02  0.7818608E-02  0.1130116E+00
         25   -1    0    0    0    0  0.00000000000E+00  0.00000000000E+00  0.99999998245E-14  0.12500000000E+03  0.12500000000E+03 0.  0.
        -13    1    3    3    0    0  0.45436429894E+02 -0.21903238095E+02  0.12776788780E+02  0.52033436328E+02  0.10566000000E+00 0.  1.
         23    2    1    0    0    0 -0.44059544902E+00 -0.22294929319E+02  0.15259603945E+02  0.97979387308E+02  0.94179864234E+02 0.  0.
         13    1    3    3    0    0 -0.45877025343E+02 -0.39169122443E+00  0.24828151642E+01  0.45945950980E+02  0.10566000000E+00 0. -1.
         22    1    1    0    0    0  0.44059544902E+00  0.22294929319E+02 -0.15259603945E+02  0.27020612692E+02  0.00000000000E+00 0.  1.
</event>
<event>
 5    1  0.9034917E-005  0.9118800E+02  0.7818608E-02  0.1130116E+00
         25   -1    0    0    0    0  0.00000000000E+00  0.00000000000E+00  0.99999998245E-14  0.12500000000E+03  0.12500000000E+03 0.  0.
        -13    1    3    3    0    0  0.39415332662E+02 -0.35682646925E+02 -0.18193506639E+02  0.56194613516E+02  0.10566000000E+00 0.  1.
         23    2    1    0    0    0  0.68107679228E+01 -0.29888236912E+02  0.73227750177E+00  0.94336838132E+02  0.89214402049E+02 0.  0.
         13    1    3    3    0    0 -0.32604564739E+02  0.57944100125E+01  0.18925784141E+02  0.38142224615E+02  0.10566000000E+00 0. -1.
         22    1    1    0    0    0 -0.68107679228E+01  0.29888236912E+02 -0.73227750177E+00  0.30663161868E+02  0.00000000000E+00 0.  1.
</event>
<event>
 5    1  0.9034917E-005  0.9118800E+02  0.7818608E-02  0.1130116E+00
         25   -1    0    0    0    0  0.00000000000E+00  0.00000000000E+00  0.99999998245E-14  0.12500000000E+03  0.12500000000E+03 0.  0.
        -13    1    3    3    0    0  0.31582255084E+02 -0.36316949817E+02 -0.29321853595E+02  0.56357270538E+02  0.10566000000E+00 0. -1.
         23    2    1    0    0    0  0.26485128606E+02 -0.12915986491E+01 -0.10178677849E+02  0.96596906030E+02  0.92326737771E+02 0.  0.
         13    1    3    3    0    0 -0.50971264781E+01  0.35025351168E+02  0.19143175746E+02  0.40239635491E+02  0.10566000000E+00 0.  1.
         22    1    1    0    0    0 -0.26485128606E+02  0.12915986491E+01  0.10178677849E+02  0.28403093970E+02  0.00000000000E+00 0. -1.
</event>
<event>
 5    1  0.9034917E-005  0.9118800E+02  0.7818608E-02  0.1130116E+00
         25   -1    0    0    0    0  0.00000000000E+00  0.00000000000E+00  0.99999998245E-14  0.12500000000E+03  0.12500000000E+03 0.  0.
        -13    1    3    3    0    0 -0.30235778254E+02  0.60942172257E+01  0.33985834383E+02  0.45895423224E+02  0.10566000000E+00 0. -1.
         23    2    1    0    0    0  0.18136908011E+02 -0.36440345631E+01  0.21190217855E+02  0.96870802485E+02  0.92696820988E+02 0.  0.
         13    1    3    3    0    0  0.48372686265E+02 -0.97382517888E+01 -0.12795616528E+02  0.50975379261E+02  0.10566000000E+00 0.  1.
         22    1    1    0    0    0 -0.18136908011E+02  0.36440345631E+01 -0.21190217855E+02  0.28129197515E+02  0.00000000000E+00 0. -1.
</event>
<event>
 5    1  0.9034917E-005  0.9118800E+02  0.7818608E-02  0.1130116E+00
         25   -1    0    0    0    0  0.00000000000E+00  0.00000000000E+00  0.99999998245E-14  0.12500000000E+03  0.12500000000E+03 0.  0.
        -13    1    3    3    0    0 -0.21134480923E+02  0.41552905492E+02  0.30040229947E+02  0.55459325798E+02  0.10566000000E+00 0.  1.
         23    2    1    0    0    0 -0.26517064151E+02  0.24387953315E+02  0.18180162283E+01  0.88927404570E+02  0.81282538976E+02 0.  0.
         13    1    3    3    0    0 -0.53825832281E+01 -0.17164952177E+02 -0.28222213719E+02  0.33468078772E+02  0.10566000000E+00 0. -1.
         22    1    1    0    0    0  0.26517064151E+02 -0.24387953315E+02 -0.18180162283E+01  0.36072595430E+02  0.00000000000E+00 0.  1.
</event>
<event>
 5    1  0.9034917E-005  0.9118800E+02  0.7818608E-02  0.1130116E+00
         25   -1    0    0    0    0  0.00000000000E+00  0.00000000000E+00  0.99999998245E-14  0.12500000000E+03  0.12500000000E+03 0.  0.
        -13    1    3    3    0    0  0.52337401137E+02 -0.15943872237E+02  0.19097243569E+02  0.57949344221E+02  0.10566000000E+00 0. -1.
         23    2    1    0    0    0  0.14640554722E+02 -0.19396047328E+02  0.15944001122E+02  0.95935181640E+02  0.91426448088E+02 0.  0.
         13    1    3    3    0    0 -0.37696846415E+02 -0.34521750913E+01 -0.31532424473E+01  0.37985837419E+02  0.10566000000E+00 0.  1.
         22    1    1    0    0    0 -0.14640554722E+02  0.19396047328E+02 -0.15944001122E+02  0.29064818360E+02  0.00000000000E+00 0. -1.
</event>
<event>
 5    1  0.9034917E-005  0.9118800E+02  0.7818608E-02  0.1130116E+00
         25   -1    0    0    0    0  0.00000000000E+00  0.00000000000E+00  0.99999998245E-14  0.12500000000E+03  0.12500000000E+03 0.  0.
        -13    1    3    3    0    0  0.20935796600E+02 -0.38524269107E+02 -0.10074704085E+02  0.44988195295E+02  0.10566000000E+00 0. -1.
         23    2    1    0    0    0  0.95132790863E+01 -0.46545711812E+01  0.26702590803E+02  0.96273777355E+02  0.91888216539E+02 0.  0.
         13    1    3    3    0    0 -0.11422517514E+02  0.33869697925E+02  0.36777294888E+02  0.51285582060E+02  0.10566000000E+00 0.  1.
         22    1    1    0    0    0 -0.95132790863E+01  0.46545711812E+01 -0.26702590803E+02  0.28726222645E+02  0.00000000000E+00 0. -1.
</event>
<event>
 5    1  0.9034917E-005  0.9118800E+02  0.7818608E-02  0.1130116E+00
         25   -1    0    0    0    0  0.00000000000E+00  0.00000000000E+00  0.99999998245E-14  0.12500000000E+03  0.12500000000E+03 0.  0.
        -13    1    3    3    0    0  0.12258685884E+02  0.24540066928E+02  0.46111734808E+02  0.53654389526E+02  0.10566000000E+00 0.  1.
         23    2    1    0    0    0 -0.75467363566E+01 -0.74305069949E+01  0.27325811320E+02  0.95693590665E+02  0.91095541418E+02 0.  0.
         13    1    3    3    0    0 -0.19805422240E+02 -0.31970573923E+02 -0.18785923488E+02  0.42039201139E+02  0.10566000000E+00 0. -1.
         22    1    1    0    0    0  0.75467363566E+01  0.74305069949E+01 -0.27325811320E+02  0.29306409335E+02  0.00000000000E+00 0.  1.
</event>
<event>
 5    1  0.9034917E-005  0.9118800E+02  0.7818608E-02  0.1130116E+00
         25   -1    0    0    0    0  0.00000000000E+00  0.00000000000E+00  0.99999998245E-14  0.12500000000E+03  0.12500000000E+03 0.  0.
        -13    1    3    3    0    0  0.21530323948E+02 -0.33539449456E+02  0.37062484108E+02  0.54425071534E+02  0.10566000000E+00 0.  1.
         23    2    1    0    0    0  0.20071848986E+02  0.42511697204E+01  0.21384080702E+02  0.95365046429E+02  0.90643596614E+02 0.  0.
         13    1    3    3    0    0 -0.14584749623E+01  0.37790619177E+02 -0.15678403406E+02  0.40939974895E+02  0.10566000000E+00 0. -1.
         22    1    1    0    0    0 -0.20071848986E+02 -0.42511697204E+01 -0.21384080702E+02  0.29634953571E+02  0.00000000000E+00 0.  1.
</event>
<event>
 5    1  0.9034917E-005  0.9118800E+02  0.7818608E-02  0.1130116E+00
         25   -1    0    0    0    0  0.00000000000E+00  0.00000000000E+00  0.99999998245E-14  0.12500000000E+03  0.12500000000E+03 0.  0.
        -13    1    3    3    0    0  0.31397812513E+02  0.39084878334E+02  0.36590957356E+02  0.62067380074E+02  0.10566000000E+00 0.  1.
         23    2    1    0    0    0  0.19222001683E+02  0.16645749963E+02  0.15189901931E+02  0.95380758598E+02  0.90665261537E+02 0.  0.
         13    1    3    3    0    0 -0.12175810830E+02 -0.22439128371E+02 -0.21401055424E+02  0.33313378524E+02  0.10566000000E+00 0. -1.
         22    1    1    0    0    0 -0.19222001683E+02 -0.16645749963E+02 -0.15189901931E+02  0.29619241402E+02  0.00000000000E+00 0.  1.
</event>
<event>
 5    1  0.9034917E-005  0.9118800E+02  0.7818608E-02  0.1130116E+00
         25   -1    0    0    0    0  0.00000000000E+00  0.00000000000E+00  0.99999998245E-14  0.12500000000E+03  0.12500000000E+03 0.  0.
        -13    1    3    3    0    0  0.28278747190E+02 -0.35776312338E+02 -0.36452510201E+02  0.58381749983E+02  0.10566000000E+00 0. -1.
         23    2    1    0    0    0  0.11183072886E+02 -0.25511876989E+02 -0.34621275614E+01  0.96930384507E+02  0.92777131486E+02 0.  0.
         13    1    3    3    0    0 -0.17095674304E+02  0.10264435349E+02  0.32990382640E+02  0.38548634524E+02  0.10566000000E+00 0.  1.
         22    1    1    0    0    0 -0.11183072886E+02  0.25511876989E+02  0.34621275614E+01  0.28069615493E+02  0.00000000000E+00 0. -1.
</event>
<event>
 5    1  0.9034917E-005  0.9118800E+02  0.7818608E-02  0.1130116E+00
         25   -1    0    0    0    0  0.00000000000E+00  0.00000000000E+00  0.99999998245E-14  0.12500000000E+03  0.12500000000E+03 0.  0.
        -13    1    3    3    0    0  0.25838937098E+01 -0.38792087979E+02 -0.17903492501E+02  0.42802439232E+02  0.10566000000E+00 0.  1.
         23    2    1    0    0    0  0.28177566782E+02  0.51609556229E+01 -0.12304092160E+01  0.96327284057E+02  0.91960975496E+02 0.  0.
         13    1    3    3    0    0  0.25593673073E+02  0.43953043602E+02  0.16673083285E+02  0.53524844824E+02  0.10566000000E+00 0. -1.
         22    1    1    0    0    0 -0.28177566782E+02 -0.51609556229E+01  0.12304092160E+01  0.28672715943E+02  0.00000000000E+00 0. -1.
</event>
<event>
 5    1  0.9034917E-005  0.9118800E+02  0.7818608E-02  0.1130116E+00
         25   -1    0    0    0    0  0.00000000000E+00  0.00000000000E+00  0.99999998245E-14  0.12500000000E+03  0.12500000000E+03 0.  0.
        -13    1    3    3    0    0 -0.24909125529E+02 -0.24712605296E+02 -0.39023849008E+02  0.52479037249E+02  0.10566000000E+00 0.  1.
         23    2    1    0    0    0  0.13244682366E+02 -0.12665241270E+02 -0.23031095299E+02  0.95567682760E+02  0.90922608245E+02 0.  0.
         13    1    3    3    0    0  0.38153807895E+02  0.12047364026E+02  0.15992753708E+02  0.43088645512E+02  0.10566000000E+00 0. -1.
         22    1    1    0    0    0 -0.13244682366E+02  0.12665241270E+02  0.23031095299E+02  0.29432317240E+02  0.00000000000E+00 0. -1.
</event>
<event>
 5    1  0.9034917E-005  0.9118800E+02  0.7818608E-02  0.1130116E+00
         25   -1    0    0    0    0  0.00000000000E+00  0.00000000000E+00  0.99999998245E-14  0.12500000000E+03  0.12500000000E+03 0.  0.
        -13    1    3    3    0    0  0.47135489398E+02  0.79388763408E+01 -0.10466892404E+02  0.48932066368E+02  0.10566000000E+00 0.  1.
         23    2    1    0    0    0  0.17645966025E+02 -0.25333129416E+02 -0.36352782358E+01  0.93913623389E+02  0.88619443956E+02 0.  0.
         13    1    3    3    0    0 -0.29489523373E+02 -0.33272005757E+02  0.68316141685E+01  0.44981557021E+02  0.10566000000E+00 0. -1.
         22    1    1    0    0    0 -0.17645966025E+02  0.25333129416E+02  0.36352782358E+01  0.31086376611E+02  0.00000000000E+00 0.  1.
</event>
<event>
 5    1  0.9034917E-005  0.9118800E+02  0.7818608E-02  0.1130116E+00
         25   -1    0    0    0    0  0.00000000000E+00  0.00000000000E+00  0.99999998245E-14  0.12500000000E+03  0.12500000000E+03 0.  0.
        -13    1    3    3    0    0  0.77162924083E+01  0.20385585309E+02  0.28562878608E+02  0.35929965980E+02  0.10566000000E+00 0.  1.
         23    2    1    0    0    0 -0.14956721306E+02  0.80382163170E+01 -0.24645751792E+02  0.95071259379E+02  0.90237546757E+02 0.  0.
         13    1    3    3    0    0 -0.22673013714E+02 -0.12347368992E+02 -0.53208630399E+02  0.59141293399E+02  0.10566000000E+00 0. -1.
         22    1    1    0    0    0  0.14956721306E+02 -0.80382163170E+01  0.24645751792E+02  0.29928740621E+02  0.00000000000E+00 0. -1.
</event>
<event>
 5    1  0.9034917E-005  0.9118800E+02  0.7818608E-02  0.1130116E+00
         25   -1    0    0    0    0  0.00000000000E+00  0.00000000000E+00  0.99999998245E-14  0.12500000000E+03  0.12500000000E+03 0.  0.
        -13    1    3    3    0    0 -0.35478610447E+02  0.56892259891E+01 -0.82218655382E+01  0.36860674554E+02  0.10566000000E+00 0. -1.
         23    2    1    0    0    0  0.21741922625E+02 -0.33771218737E+01 -0.19166710225E+02  0.95819888066E+02  0.91268680371E+02 0.  0.
         13    1    3    3    0    0  0.57220533073E+02 -0.90663478628E+01 -0.10944844687E+02  0.58959213512E+02  0.10566000000E+00 0.  1.
         22    1    1    0    0    0 -0.21741922625E+02  0.33771218737E+01  0.19166710225E+02  0.29180111934E+02  0.00000000000E+00 0.  1.
</event>
<event>
 5    1  0.9034917E-005  0.9118800E+02  0.7818608E-02  0.1130116E+00
         25   -1    0    0    0    0  0.00000000000E+00  0.00000000000E+00  0.99999998245E-14  0.12500000000E+03  0.12500000000E+03 0.  0.
        -13    1    3    3    0    0  0.18415187594E-01  0.22469616736E+01  0.37770192299E+02  0.37837121537E+02  0.10566000000E+00 0.  1.
         23    2    1    0    0    0  0.20590332969E+02 -0.14943888524E+02 -0.13871023908E+02  0.96022648149E+02  0.91545955877E+02 0.  0.
         13    1    3    3    0    0  0.20571917782E+02 -0.17190850197E+02 -0.51641216207E+02  0.58185526612E+02  0.10566000000E+00 0. -1.
         22    1    1    0    0    0 -0.20590332969E+02  0.14943888524E+02  0.13871023908E+02  0.28977351851E+02  0.00000000000E+00 0. -1.
</event>
<event>
 5    1  0.9034917E-005  0.9118800E+02  0.7818608E-02  0.1130116E+00
         25   -1    0    0    0    0  0.00000000000E+00  0.00000000000E+00  0.99999998245E-14  0.12500000000E+03  0.12500000000E+03 0.  0.
        -13    1    3    3    0    0  0.90532275866E+01  0.51453624738E+02 -0.26956885624E+02  0.58788785282E+02  0.10566000000E+00 0.  1.
         23    2    1    0    0    0  0.81692531537E+01  0.15455683778E+02 -0.24528076346E+02  0.94879552005E+02  0.89971595525E+02 0.  0.
         13    1    3    3    0    0 -0.88397443296E+00 -0.35997940960E+02  0.24288092772E+01  0.36090766723E+02  0.10566000000E+00 0. -1.
         22    1    1    0    0    0 -0.81692531537E+01 -0.15455683778E+02  0.24528076346E+02  0.30120447995E+02  0.00000000000E+00 0.  1.
</event>
<event>
 5    1  0.9034917E-005  0.9118800E+02  0.7818608E-02  0.1130116E+00
         25   -1    0    0    0    0  0.00000000000E+00  0.00000000000E+00  0.99999998245E-14  0.12500000000E+03  0.12500000000E+03 0.  0.
        -13    1    3    3    0    0 -0.49050890314E+02  0.79245947790E+01 -0.23763588376E+02  0.55077294228E+02  0.10566000000E+00 0. -1.
         23    2    1    0    0    0 -0.25940137464E+02  0.93676292711E+01  0.96937224789E+01  0.95766261523E+02  0.91195204813E+02 0.  0.
         13    1    3    3    0    0  0.23110752849E+02  0.14430344921E+01  0.33457310855E+02  0.40688967295E+02  0.10566000000E+00 0.  1.
         22    1    1    0    0    0  0.25940137464E+02 -0.93676292711E+01 -0.96937224789E+01  0.29233738477E+02  0.00000000000E+00 0. -1.
</event>
<event>
 5    1  0.9034917E-005  0.9118800E+02  0.7818608E-02  0.1130116E+00
         25   -1    0    0    0    0  0.00000000000E+00  0.00000000000E+00  0.99999998245E-14  0.12500000000E+03  0.12500000000E+03 0.  0.
        -13    1    3    3    0    0  0.23707163653E+02 -0.29974451439E+02 -0.57886769008E+01  0.38652519864E+02  0.10566000000E+00 0. -1.
         23    2    1    0    0    0 -0.24760315741E+02 -0.79358394636E+01  0.14018917859E+02  0.95460520628E+02  0.90775162666E+02 0.  0.
         13    1    3    3    0    0 -0.48467479394E+02  0.22038611975E+02  0.19807594760E+02  0.56808000764E+02  0.10566000000E+00 0.  1.
         22    1    1    0    0    0  0.24760315741E+02  0.79358394636E+01 -0.14018917859E+02  0.29539479372E+02  0.00000000000E+00 0.  1.
</event>
<event>
 5    1  0.9034917E-005  0.9118800E+02  0.7818608E-02  0.1130116E+00
         25   -1    0    0    0    0  0.00000000000E+00  0.00000000000E+00  0.99999998245E-14  0.12500000000E+03  0.12500000000E+03 0.  0.
        -13    1    3    3    0    0 -0.14758477365E+02 -0.49478224301E+02 -0.17286060040E+02  0.54449300912E+02  0.10566000000E+00 0. -1.
         23    2    1    0    0    0  0.15802238619E+02 -0.23287823160E+02 -0.65472532639E+01  0.96105364197E+02  0.91658829630E+02 0.  0.
         13    1    3    3    0    0  0.30560715984E+02  0.26190401141E+02  0.10738806776E+02  0.41656063285E+02  0.10566000000E+00 0.  1.
         22    1    1    0    0    0 -0.15802238619E+02  0.23287823160E+02  0.65472532639E+01  0.28894635803E+02  0.00000000000E+00 0. -1.
</event>
<event>
 5    1  0.9034917E-005  0.9118800E+02  0.7818608E-02  0.1130116E+00
         25   -1    0    0    0    0  0.00000000000E+00  0.00000000000E+00  0.99999998245E-14  0.12500000000E+03  0.12500000000E+03 0.  0.
        -13    1    3    3    0    0 -0.37188380697E+02  0.33438937324E+01  0.28994215539E+02  0.47274020169E+02  0.10566000000E+00 0. -1.
         23    2    1    0    0    0 -0.63946542731E+01 -0.27676663703E+02  0.11485966319E+02  0.94359883498E+02  0.89246685509E+02 0.  0.
         13    1    3    3    0    0  0.30793726424E+02 -0.31020557435E+02 -0.17508249220E+02  0.47085863329E+02  0.10566000000E+00 0.  1.
         22    1    1    0    0    0  0.63946542731E+01  0.27676663703E+02 -0.11485966319E+02  0.30640116502E+02  0.00000000000E+00 0. -1.
</event>
<event>
 5    1  0.9034917E-005  0.9118800E+02  0.7818608E-02  0.1130116E+00
         25   -1    0    0    0    0  0.00000000000E+00  0.00000000000E+00  0.99999998245E-14  0.12500000000E+03  0.12500000000E+03 0.  0.
        -13    1    3    3    0    0  0.18298163505E+02  0.15032835162E+02  0.36799634192E+02  0.43761091866E+02  0.10566000000E+00 0.  1.
         23    2    1    0    0    0  0.47323619206E+01  0.24569684031E+02 -0.13391312498E+02  0.96620573065E+02  0.92358774712E+02 0.  0.
         13    1    3    3    0    0 -0.13565801584E+02  0.95368488696E+01 -0.50190946690E+02  0.52859481199E+02  0.10566000000E+00 0. -1.
         22    1    1    0    0    0 -0.47323619206E+01 -0.24569684031E+02  0.13391312498E+02  0.28379426935E+02  0.00000000000E+00 0. -1.
</event>
<event>
 5    1  0.9034917E-005  0.9118800E+02  0.7818608E-02  0.1130116E+00
         25   -1    0    0    0    0  0.00000000000E+00  0.00000000000E+00  0.99999998245E-14  0.12500000000E+03  0.12500000000E+03 0.  0.
        -13    1    3    3    0    0  0.34562184548E+02 -0.29775583971E+02  0.37205687106E+02  0.58867684842E+02  0.10566000000E+00 0. -1.
         23    2    1    0    0    0  0.83500701737E+01 -0.71364991950E+01  0.28319480756E+02  0.94624906865E+02  0.89617111738E+02 0.  0.
         13    1    3    3    0    0 -0.26212114375E+02  0.22639084776E+02 -0.88862063501E+01  0.35757222023E+02  0.10566000000E+00 0.  1.
         22    1    1    0    0    0 -0.83500701737E+01  0.71364991950E+01 -0.28319480756E+02  0.30375093135E+02  0.00000000000E+00 0. -1.
</event>
<event>
 5    1  0.9034917E-005  0.9118800E+02  0.7818608E-02  0.1130116E+00
         25   -1    0    0    0    0  0.00000000000E+00  0.00000000000E+00  0.99999998245E-14  0.12500000000E+03  0.12500000000E+03 0.  0.
        -13    1    3    3    0    0 -0.36255607914E+01  0.29543569728E+02  0.20501206672E+02  0.36142465915E+02  0.10566000000E+00 0.  1.
         23    2    1    0    0    0  0.13707617507E+00 -0.28177129661E+02  0.25493533146E+01  0.96707445712E+02  0.92476274947E+02 0.  0.
         13    1    3    3    0    0  0.37626369665E+01 -0.57720699389E+02 -0.17951853357E+02  0.60564979798E+02  0.10566000000E+00 0. -1.
         22    1    1    0    0    0 -0.13707617507E+00  0.28177129661E+02 -0.25493533146E+01  0.28292554288E+02  0.00000000000E+00 0. -1.
</event>
<event>
 5    1  0.9034917E-005  0.9118800E+02  0.7818608E-02  0.1130116E+00
         25   -1    0    0    0    0  0.00000000000E+00  0.00000000000E+00  0.99999998245E-14  0.12500000000E+03  0.12500000000E+03 0.  0.
        -13    1    3    3    0    0  0.34813025612E+02 -0.17795358107E+02 -0.20989399765E+02  0.44375529168E+02  0.10566000000E+00 0. -1.
         23    2    1    0    0    0 -0.15466483126E+02 -0.22541352779E+02 -0.69794536153E+01  0.96785864214E+02  0.92582212403E+02 0.  0.
         13    1    3    3    0    0 -0.50279508739E+02 -0.47459946728E+01  0.14009946149E+02  0.52410335045E+02  0.10566000000E+00 0.  1.
         22    1    1    0    0    0  0.15466483126E+02  0.22541352779E+02  0.69794536153E+01  0.28214135786E+02  0.00000000000E+00 0.  1.
</event>
<event>
 5    1  0.9034917E-005  0.9118800E+02  0.7818608E-02  0.1130116E+00
         25   -1    0    0    0    0  0.00000000000E+00  0.00000000000E+00  0.99999998245E-14  0.12500000000E+03  0.12500000000E+03 0.  0.
        -13    1    3    3    0    0 -0.31042194510E+02 -0.46030179830E+02 -0.56462347693E+00  0.55522295151E+02  0.10566000000E+00 0.  1.
         23    2    1    0    0    0 -0.27793673981E+02 -0.78515518054E+01  0.84943944794E+01  0.94895350581E+02  0.89993542241E+02 0.  0.
         13    1    3    3    0    0  0.32485205296E+01  0.38178628024E+02  0.90590179563E+01  0.39373055429E+02  0.10566000000E+00 0. -1.
         22    1    1    0    0    0  0.27793673981E+02  0.78515518054E+01 -0.84943944794E+01  0.30104649419E+02  0.00000000000E+00 0.  1.
</event>
<event>
 5    1  0.9034917E-005  0.9118800E+02  0.7818608E-02  0.1130116E+00
         25   -1    0    0    0    0  0.00000000000E+00  0.00000000000E+00  0.99999998245E-14  0.12500000000E+03  0.12500000000E+03 0.  0.
        -13    1    3    3    0    0 -0.57706534132E+02  0.18353169705E+02 -0.14341178792E+02  0.62229924417E+02  0.10566000000E+00 0.  1.
         23    2    1    0    0    0 -0.27993716520E+02  0.88008457496E+01 -0.27369740559E+01  0.95528079847E+02  0.90868146023E+02 0.  0.
         13    1    3    3    0    0  0.29712817612E+02 -0.95523239557E+01  0.11604204736E+02  0.33298155430E+02  0.10566000000E+00 0. -1.
         22    1    1    0    0    0  0.27993716520E+02 -0.88008457496E+01  0.27369740559E+01  0.29471920153E+02  0.00000000000E+00 0.  1.
</event>
<event>
 5    1  0.9034917E-005  0.9118800E+02  0.7818608E-02  0.1130116E+00
         25   -1    0    0    0    0  0.00000000000E+00  0.00000000000E+00  0.99999998245E-14  0.12500000000E+03  0.12500000000E+03 0.  0.
        -13    1    3    3    0    0 -0.23231817122E+02  0.95453277572E+01  0.22777676946E+02  0.33906700516E+02  0.10566000000E+00 0.  1.
         23    2    1    0    0    0  0.12468829999E+02  0.10865428692E+02 -0.25889498389E+02  0.94278746949E+02  0.89132972222E+02 0.  0.
         13    1    3    3    0    0  0.35700647121E+02  0.13201009346E+01 -0.48667175335E+02  0.60372046433E+02  0.10566000000E+00 0. -1.
         22    1    1    0    0    0 -0.12468829999E+02 -0.10865428692E+02  0.25889498389E+02  0.30721253051E+02  0.00000000000E+00 0. -1.
</event>
<event>
 5    1  0.9034917E-005  0.9118800E+02  0.7818608E-02  0.1130116E+00
         25   -1    0    0    0    0  0.00000000000E+00  0.00000000000E+00  0.99999998245E-14  0.12500000000E+03  0.12500000000E+03 0.  0.
        -13    1    3    3    0    0 -0.39143942286E+01 -0.31811218721E+02  0.81250575694E+01  0.33065145444E+02  0.10566000000E+00 0.  1.
         23    2    1    0    0    0  0.13385802237E+02  0.26412049469E+02 -0.43485645975E+01  0.95071985152E+02  0.90238552116E+02 0.  0.
         13    1    3    3    0    0  0.17300196466E+02  0.58223268190E+02 -0.12473622167E+02  0.62006839708E+02  0.10566000000E+00 0. -1.
         22    1    1    0    0    0 -0.13385802237E+02 -0.26412049469E+02  0.43485645975E+01  0.29928014848E+02  0.00000000000E+00 0. -1.
</event>
<event>
 5    1  0.9034917E-005  0.9118800E+02  0.7818608E-02  0.1130116E+00
         25   -1    0    0    0    0  0.00000000000E+00  0.00000000000E+00  0.99999998245E-14  0.12500000000E+03  0.12500000000E+03 0.  0.
        -13    1    3    3    0    0 -0.86251319527E+01 -0.34035424206E+02  0.31990692759E+00  0.35112910824E+02  0.10566000000E+00 0. -1.
         23    2    1    0    0    0  0.21916571924E+02  0.18535442000E+02 -0.37733023422E+01  0.96049411999E+02  0.91582492868E+02 0.  0.
         13    1    3    3    0    0  0.30541703876E+02  0.52570866206E+02 -0.40932092698E+01  0.60936501175E+02  0.10566000000E+00 0.  1.
         22    1    1    0    0    0 -0.21916571924E+02 -0.18535442000E+02  0.37733023422E+01  0.28950588001E+02  0.00000000000E+00 0.  1.
</event>
<event>
 5    1  0.9034917E-005  0.9118800E+02  0.7818608E-02  0.1130116E+00
         25   -1    0    0    0    0  0.00000000000E+00  0.00000000000E+00  0.99999998245E-14  0.12500000000E+03  0.12500000000E+03 0.  0.
        -13    1    3    3    0    0 -0.73770325013E+01  0.11139931378E+02  0.38331331980E+02  0.40593359740E+02  0.10566000000E+00 0.  1.
         23    2    1    0    0    0 -0.23253043706E+02 -0.16667457268E+02 -0.64765095086E+01  0.95666514888E+02  0.91058380845E+02 0.  0.
         13    1    3    3    0    0 -0.15876011205E+02 -0.27807388646E+02 -0.44807841488E+02  0.55073155148E+02  0.10566000000E+00 0. -1.
         22    1    1    0    0    0  0.23253043706E+02  0.16667457268E+02  0.64765095086E+01  0.29333485112E+02  0.00000000000E+00 0. -1.
</event>
<event>
 5    1  0.9034917E-005  0.9118800E+02  0.7818608E-02  0.1130116E+00
         25   -1    0    0    0    0  0.00000000000E+00  0.00000000000E+00  0.99999998245E-14  0.12500000000E+03  0.12500000000E+03 0.  0.
        -13    1    3    3    0    0 -0.41268919028E+02  0.42416593843E+02 -0.42779084507E+00  0.59181798554E+02  0.10566000000E+00 0.  1.
         23    2    1    0    0    0 -0.12176744072E+02  0.29810727760E+02 -0.80837863441E+01  0.91799093575E+02  0.85584889985E+02 0.  0.
         13    1    3    3    0    0  0.29092174956E+02 -0.12605866082E+02 -0.76559954991E+01  0.32617295021E+02  0.10566000000E+00 0. -1.
         22    1    1    0    0    0  0.12176744072E+02 -0.29810727760E+02  0.80837863441E+01  0.33200906425E+02  0.00000000000E+00 0.  1.
</event>
<event>
 5    1  0.9034917E-005  0.9118800E+02  0.7818608E-02  0.1130116E+00
         25   -1    0    0    0    0  0.00000000000E+00  0.00000000000E+00  0.99999998245E-14  0.12500000000E+03  0.12500000000E+03 0.  0.
        -13    1    3    3    0    0  0.40926152227E+02 -0.14596211816E+02 -0.31348664652E+01  0.43564181242E+02  0.10566000000E+00 0. -1.
         23    2    1    0    0    0 -0.73102554089E+01 -0.17671525955E+02 -0.22356122130E+02  0.95580298090E+02  0.90939950091E+02 0.  0.
         13    1    3    3    0    0 -0.48236407636E+02 -0.30753141394E+01 -0.19221255665E+02  0.52016116849E+02  0.10566000000E+00 0.  1.
         22    1    1    0    0    0  0.73102554089E+01  0.17671525955E+02  0.22356122130E+02  0.29419701910E+02  0.00000000000E+00 0.  1.
</event>
<event>
 5    1  0.9034917E-005  0.9118800E+02  0.7818608E-02  0.1130116E+00
         25   -1    0    0    0    0  0.00000000000E+00  0.00000000000E+00  0.99999998245E-14  0.12500000000E+03  0.12500000000E+03 0.  0.
        -13    1    3    3    0    0 -0.43544419201E+02 -0.34708635449E+02 -0.26703990910E+02  0.61756943843E+02  0.10566000000E+00 0.  1.
         23    2    1    0    0    0 -0.24178296096E+02 -0.10586740978E+02 -0.12330754390E+02  0.95867259132E+02  0.91333535916E+02 0.  0.
         13    1    3    3    0    0  0.19366123105E+02  0.24121894472E+02  0.14373236520E+02  0.34110315289E+02  0.10566000000E+00 0. -1.
         22    1    1    0    0    0  0.24178296096E+02  0.10586740978E+02  0.12330754390E+02  0.29132740868E+02  0.00000000000E+00 0.  1.
</event>
<event>
 5    1  0.9034917E-005  0.9118800E+02  0.7818608E-02  0.1130116E+00
         25   -1    0    0    0    0  0.00000000000E+00  0.00000000000E+00  0.99999998245E-14  0.12500000000E+03  0.12500000000E+03 0.  0.
        -13    1    3    3    0    0  0.58388285509E+02  0.41674250224E+01  0.90568945257E+01  0.59233418089E+02  0.10566000000E+00 0.  1.
         23    2    1    0    0    0  0.24455983237E+02  0.13405229117E+02 -0.41599410220E+01  0.96802475408E+02  0.92604637314E+02 0.  0.
         13    1    3    3    0    0 -0.33932302272E+02  0.92378040948E+01 -0.13216835548E+02  0.37569057320E+02  0.10566000000E+00 0. -1.
         22    1    1    0    0    0 -0.24455983237E+02 -0.13405229117E+02  0.41599410220E+01  0.28197524592E+02  0.00000000000E+00 0.  1.
</event>
<event>
 5    1  0.9034917E-005  0.9118800E+02  0.7818608E-02  0.1130116E+00
         25   -1    0    0    0    0  0.00000000000E+00  0.00000000000E+00  0.99999998245E-14  0.12500000000E+03  0.12500000000E+03 0.  0.
        -13    1    3    3    0    0 -0.29057749358E+02 -0.97493183761E+01  0.13251362686E+02  0.33391792159E+02  0.10566000000E+00 0. -1.
         23    2    1    0    0    0  0.26070552960E+02 -0.20403036796E+01 -0.13965642972E+02  0.95354161264E+02  0.90628584431E+02 0.  0.
         13    1    3    3    0    0  0.55128302317E+02  0.77090146965E+01 -0.27217005659E+02  0.61962369105E+02  0.10566000000E+00 0.  1.
         22    1    1    0    0    0 -0.26070552960E+02  0.20403036796E+01  0.13965642972E+02  0.29645838736E+02  0.00000000000E+00 0.  1.
</event>
<event>
 5    1  0.9034917E-005  0.9118800E+02  0.7818608E-02  0.1130116E+00
         25   -1    0    0    0    0  0.00000000000E+00  0.00000000000E+00  0.99999998245E-14  0.12500000000E+03  0.12500000000E+03 0.  0.
        -13    1    3    3    0    0  0.11156446037E+02  0.33316709518E+02 -0.85767655378E+01  0.36166856269E+02  0.10566000000E+00 0.  1.
         23    2    1    0    0    0  0.16868306701E+02 -0.22996308391E+02  0.84158037806E+01  0.95264571235E+02  0.90504932511E+02 0.  0.
         13    1    3    3    0    0  0.57118606634E+01 -0.56313017908E+02  0.16992569318E+02  0.59097714966E+02  0.10566000000E+00 0. -1.
         22    1    1    0    0    0 -0.16868306701E+02  0.22996308391E+02 -0.84158037806E+01  0.29735428765E+02  0.00000000000E+00 0. -1.
</event>
<event>
 5    1  0.9034917E-005  0.9118800E+02  0.7818608E-02  0.1130116E+00
         25   -1    0    0    0    0  0.00000000000E+00  0.00000000000E+00  0.99999998245E-14  0.12500000000E+03  0.12500000000E+03 0.  0.
        -13    1    3    3    0    0 -0.16178129125E+02 -0.27465362194E+02 -0.18149364909E+02  0.36680902294E+02  0.10566000000E+00 0. -1.
         23    2    1    0    0    0  0.24164462205E+02  0.14150935746E+02 -0.10261933553E+02  0.95175890685E+02  0.90382369251E+02 0.  0.
         13    1    3    3    0    0  0.40342591331E+02  0.41616297940E+02  0.78874313564E+01  0.58494988392E+02  0.10566000000E+00 0.  1.
         22    1    1    0    0    0 -0.24164462205E+02 -0.14150935746E+02  0.10261933553E+02  0.29824109315E+02  0.00000000000E+00 0.  1.
</event>
<event>
 5    1  0.9034917E-005  0.9118800E+02  0.7818608E-02  0.1130116E+00
         25   -1    0    0    0    0  0.00000000000E+00  0.00000000000E+00  0.99999998245E-14  0.12500000000E+03  0.12500000000E+03 0.  0.
        -13    1    3    3    0    0 -0.22215933741E+02  0.39458441538E+02 -0.42120300174E+02  0.61843731868E+02  0.10566000000E+00 0.  1.
         23    2    1    0    0    0 -0.53479683068E+01  0.22519062120E+02 -0.20123337480E+02  0.94329857596E+02  0.89204620951E+02 0.  0.
         13    1    3    3    0    0  0.16867965434E+02 -0.16939379418E+02  0.21996962694E+02  0.32486125727E+02  0.10566000000E+00 0. -1.
         22    1    1    0    0    0  0.53479683068E+01 -0.22519062120E+02  0.20123337480E+02  0.30670142404E+02  0.00000000000E+00 0.  1.
</event>
<event>
 5    1  0.9034917E-005  0.9118800E+02  0.7818608E-02  0.1130116E+00
         25   -1    0    0    0    0  0.00000000000E+00  0.00000000000E+00  0.99999998245E-14  0.12500000000E+03  0.12500000000E+03 0.  0.
        -13    1    3    3    0    0  0.49047770043E+02 -0.17704258494E+02 -0.51431727152E+01  0.52398357843E+02  0.10566000000E+00 0. -1.
         23    2    1    0    0    0  0.73640080202E+01 -0.22044983143E+02 -0.17289302553E+02  0.96032261416E+02  0.91559081220E+02 0.  0.
         13    1    3    3    0    0 -0.41683762023E+02 -0.43407246493E+01 -0.12146129838E+02  0.43633903572E+02  0.10566000000E+00 0.  1.
         22    1    1    0    0    0 -0.73640080202E+01  0.22044983143E+02  0.17289302553E+02  0.28967738584E+02  0.00000000000E+00 0. -1.
</event>
<event>
 5    1  0.9034917E-005  0.9118800E+02  0.7818608E-02  0.1130116E+00
         25   -1    0    0    0    0  0.00000000000E+00  0.00000000000E+00  0.99999998245E-14  0.12500000000E+03  0.12500000000E+03 0.  0.
        -13    1    3    3    0    0 -0.38929484564E+02 -0.14351055321E+02  0.44092301239E+01  0.41724213972E+02  0.10566000000E+00 0. -1.
         23    2    1    0    0    0 -0.94670559525E+01  0.29104091719E+02  0.19779592449E+00  0.94394241940E+02  0.89294795397E+02 0.  0.
         13    1    3    3    0    0  0.29462428612E+02  0.43455147041E+02 -0.42114341994E+01  0.52670027967E+02  0.10566000000E+00 0.  1.
         22    1    1    0    0    0  0.94670559525E+01 -0.29104091719E+02 -0.19779592449E+00  0.30605758060E+02  0.00000000000E+00 0.  1.
</event>
<event>
 5    1  0.9034917E-005  0.9118800E+02  0.7818608E-02  0.1130116E+00
         25   -1    0    0    0    0  0.00000000000E+00  0.00000000000E+00  0.99999998245E-14  0.12500000000E+03  0.12500000000E+03 0.  0.
        -13    1    3    3    0    0 -0.36880214315E+02 -0.65083449280E+01 -0.30257675482E+02  0.48146099023E+02  0.10566000000E+00 0.  1.
         23    2    1    0    0    0  0.10196401159E+02 -0.36087123999E+01 -0.27565033645E+02  0.95388845317E+02  0.90676409993E+02 0.  0.
         13    1    3    3    0    0  0.47076615474E+02  0.28996325282E+01  0.26926418362E+01  0.47242746294E+02  0.10566000000E+00 0. -1.
         22    1    1    0    0    0 -0.10196401159E+02  0.36087123999E+01  0.27565033645E+02  0.29611154683E+02  0.00000000000E+00 0. -1.
</event>
<event>
 5    1  0.9034917E-005  0.9118800E+02  0.7818608E-02  0.1130116E+00
         25   -1    0    0    0    0  0.00000000000E+00  0.00000000000E+00  0.99999998245E-14  0.12500000000E+03  0.12500000000E+03 0.  0.
        -13    1    3    3    0    0  0.32108795958E+02 -0.37473406362E+02  0.23274255228E+02  0.54561278236E+02  0.10566000000E+00 0. -1.
         23    2    1    0    0    0  0.91207475289E+01 -0.25289571959E+02 -0.95714767605E+01  0.96462942466E+02  0.92145187701E+02 0.  0.
         13    1    3    3    0    0 -0.22988048429E+02  0.12183834403E+02 -0.32845731989E+02  0.41901664230E+02  0.10566000000E+00 0.  1.
         22    1    1    0    0    0 -0.91207475289E+01  0.25289571959E+02  0.95714767605E+01  0.28537057534E+02  0.00000000000E+00 0. -1.
</event>
<event>
 5    1  0.9034917E-005  0.9118800E+02  0.7818608E-02  0.1130116E+00
         25   -1    0    0    0    0  0.00000000000E+00  0.00000000000E+00  0.99999998245E-14  0.12500000000E+03  0.12500000000E+03 0.  0.
        -13    1    3    3    0    0 -0.43824967114E+02  0.19018489304E+02  0.47477168197E+01  0.48009193463E+02  0.10566000000E+00 0.  1.
         23    2    1    0    0    0  0.29084542750E+01  0.26151563390E+02 -0.89138170744E+01  0.97218360220E+02  0.93164317499E+02 0.  0.
         13    1    3    3    0    0  0.46733421389E+02  0.71330740863E+01 -0.13661533894E+02  0.49209166758E+02  0.10566000000E+00 0. -1.
         22    1    1    0    0    0 -0.29084542750E+01 -0.26151563390E+02  0.89138170744E+01  0.27781639780E+02  0.00000000000E+00 0.  1.
</event>
<event>
 5    1  0.9034917E-005  0.9118800E+02  0.7818608E-02  0.1130116E+00
         25   -1    0    0    0    0  0.00000000000E+00  0.00000000000E+00  0.99999998245E-14  0.12500000000E+03  0.12500000000E+03 0.  0.
        -13    1    3    3    0    0 -0.33238321151E+02 -0.17097105323E+02 -0.16540656310E+02  0.40874215326E+02  0.10566000000E+00 0. -1.
         23    2    1    0    0    0  0.18627525412E+02 -0.10208799107E+02  0.12133024432E+02  0.10053748655E+03  0.97516007089E+02 0.  0.
         13    1    3    3    0    0  0.51865846563E+02  0.68883062158E+01  0.28673680743E+02  0.59663271228E+02  0.10566000000E+00 0.  1.
         22    1    1    0    0    0 -0.18627525412E+02  0.10208799107E+02 -0.12133024432E+02  0.24462513446E+02  0.00000000000E+00 0.  1.
</event>
<event>
 5    1  0.9034917E-005  0.9118800E+02  0.7818608E-02  0.1130116E+00
         25   -1    0    0    0    0  0.00000000000E+00  0.00000000000E+00  0.99999998245E-14  0.12500000000E+03  0.12500000000E+03 0.  0.
        -13    1    3    3    0    0 -0.17187221361E+02 -0.50878730361E+01 -0.47049194131E+02  0.50348037325E+02  0.10566000000E+00 0. -1.
         23    2    1    0    0    0  0.80437330069E+01 -0.24362767723E+02 -0.15963920335E+02  0.94782573831E+02  0.89836760059E+02 0.  0.
         13    1    3    3    0    0  0.25230954368E+02 -0.19274894687E+02  0.31085273796E+02  0.44434536506E+02  0.10566000000E+00 0.  1.
         22    1    1    0    0    0 -0.80437330069E+01  0.24362767723E+02  0.15963920335E+02  0.30217426169E+02  0.00000000000E+00 0. -1.
</event>
<event>
 5    1  0.9034917E-005  0.9118800E+02  0.7818608E-02  0.1130116E+00
         25   -1    0    0    0    0  0.00000000000E+00  0.00000000000E+00  0.99999998245E-14  0.12500000000E+03  0.12500000000E+03 0.  0.
        -13    1    3    3    0    0 -0.32753478532E+02  0.48894329486E+02  0.27223320393E+01  0.58914073595E+02  0.10566000000E+00 0. -1.
         23    2    1    0    0    0 -0.10226298698E+02  0.31846860413E+02 -0.10271789849E+02  0.90009867535E+02  0.82930494293E+02 0.  0.
         13    1    3    3    0    0  0.22527179834E+02 -0.17047469073E+02 -0.12994121888E+02  0.31095793940E+02  0.10566000000E+00 0.  1.
         22    1    1    0    0    0  0.10226298698E+02 -0.31846860413E+02  0.10271789849E+02  0.34990132465E+02  0.00000000000E+00 0. -1.
</event>
<event>
 5    1  0.9034917E-005  0.9118800E+02  0.7818608E-02  0.1130116E+00
         25   -1    0    0    0    0  0.00000000000E+00  0.00000000000E+00  0.99999998245E-14  0.12500000000E+03  0.12500000000E+03 0.  0.
        -13    1    3    3    0    0  0.37205581483E+02 -0.21904433778E+02 -0.13487350837E+01  0.43195946141E+02  0.10566000000E+00 0.  1.
         23    2    1    0    0    0 -0.15477170787E+02 -0.24228223869E+02 -0.38736185641E+01  0.95990440055E+02  0.91501967268E+02 0.  0.
         13    1    3    3    0    0 -0.52682752270E+02 -0.23237900902E+01 -0.25248834804E+01  0.52794493915E+02  0.10566000000E+00 0. -1.
         22    1    1    0    0    0  0.15477170787E+02  0.24228223869E+02  0.38736185641E+01  0.29009559945E+02  0.00000000000E+00 0.  1.
</event>
<event>
 5    1  0.9034917E-005  0.9118800E+02  0.7818608E-02  0.1130116E+00
         25   -1    0    0    0    0  0.00000000000E+00  0.00000000000E+00  0.99999998245E-14  0.12500000000E+03  0.12500000000E+03 0.  0.
        -13    1    3    3    0    0  0.37408848312E+02 -0.26968375305E+02 -0.95837186258E+01  0.47101741214E+02  0.10566000000E+00 0. -1.
         23    2    1    0    0    0 -0.73351623922E+01 -0.28071696847E+02  0.75379615556E+01  0.95022581238E+02  0.90170090992E+02 0.  0.
         13    1    3    3    0    0 -0.44744010705E+02 -0.11033215421E+01  0.17121680181E+02  0.47920840024E+02  0.10566000000E+00 0.  1.
         22    1    1    0    0    0  0.73351623922E+01  0.28071696847E+02 -0.75379615556E+01  0.29977418762E+02  0.00000000000E+00 0.  1.
</event>
<event>
 5    1  0.9034917E-005  0.9118800E+02  0.7818608E-02  0.1130116E+00
         25   -1    0    0    0    0  0.00000000000E+00  0.00000000000E+00  0.99999998245E-14  0.12500000000E+03  0.12500000000E+03 0.  0.
        -13    1    3    3    0    0  0.86316806624E+01 -0.16308220987E+02  0.17649997195E+02  0.25534242652E+02  0.10566000000E+00 0.  1.
         23    2    1    0    0    0  0.18057227724E+02  0.24670311162E+02 -0.25059703682E+02  0.85469297065E+02  0.75778125249E+02 0.  0.
         13    1    3    3    0    0  0.94255470619E+01  0.40978532149E+02 -0.42709700876E+02  0.59935054413E+02  0.10566000000E+00 0. -1.
         22    1    1    0    0    0 -0.18057227724E+02 -0.24670311162E+02  0.25059703682E+02  0.39530702935E+02  0.00000000000E+00 0. -1.
</event>
<event>
 5    1  0.9034917E-005  0.9118800E+02  0.7818608E-02  0.1130116E+00
         25   -1    0    0    0    0  0.00000000000E+00  0.00000000000E+00  0.99999998245E-14  0.12500000000E+03  0.12500000000E+03 0.  0.
        -13    1    3    3    0    0  0.84312454775E+01  0.23146752162E+02 -0.36927428275E+02  0.44390361105E+02  0.10566000000E+00 0. -1.
         23    2    1    0    0    0  0.62978998414E+01  0.28229740259E+02  0.12042318032E+02  0.93669516424E+02  0.88274453303E+02 0.  0.
         13    1    3    3    0    0 -0.21333456361E+01  0.50829880969E+01  0.48969746307E+02  0.49279155319E+02  0.10566000000E+00 0.  1.
         22    1    1    0    0    0 -0.62978998414E+01 -0.28229740259E+02 -0.12042318032E+02  0.31330483576E+02  0.00000000000E+00 0.  1.
</event>
<event>
 5    1  0.9034917E-005  0.9118800E+02  0.7818608E-02  0.1130116E+00
         25   -1    0    0    0    0  0.00000000000E+00  0.00000000000E+00  0.99999998245E-14  0.12500000000E+03  0.12500000000E+03 0.  0.
        -13    1    3    3    0    0 -0.17780282606E+02  0.27598722754E+02 -0.21063200029E+02  0.39006377769E+02  0.10566000000E+00 0. -1.
         23    2    1    0    0    0  0.19663781624E+02 -0.13804661303E+02 -0.18119142551E+02  0.94907869663E+02  0.90010929424E+02 0.  0.
         13    1    3    3    0    0  0.37444064230E+02 -0.41403384057E+02  0.29440574780E+01  0.55901491893E+02  0.10566000000E+00 0.  1.
         22    1    1    0    0    0 -0.19663781624E+02  0.13804661303E+02  0.18119142551E+02  0.30092130337E+02  0.00000000000E+00 0.  1.
</event>
<event>
 5    1  0.9034917E-005  0.9118800E+02  0.7818608E-02  0.1130116E+00
         25   -1    0    0    0    0  0.00000000000E+00  0.00000000000E+00  0.99999998245E-14  0.12500000000E+03  0.12500000000E+03 0.  0.
        -13    1    3    3    0    0  0.25985542688E+02  0.44405683094E+02  0.23645584304E+02  0.56623651781E+02  0.10566000000E+00 0. -1.
         23    2    1    0    0    0 -0.43462260101E+01  0.25867095732E+02  0.10427362155E+01  0.98749597700E+02  0.95196635576E+02 0.  0.
         13    1    3    3    0    0 -0.30331768698E+02 -0.18538587363E+02 -0.22602848089E+02  0.42125945919E+02  0.10566000000E+00 0.  1.
         22    1    1    0    0    0  0.43462260101E+01 -0.25867095732E+02 -0.10427362155E+01  0.26250402300E+02  0.00000000000E+00 0. -1.
</event>
<event>
 5    1  0.9034917E-005  0.9118800E+02  0.7818608E-02  0.1130116E+00
         25   -1    0    0    0    0  0.00000000000E+00  0.00000000000E+00  0.99999998245E-14  0.12500000000E+03  0.12500000000E+03 0.  0.
        -13    1    3    3    0    0 -0.13774558701E+02  0.28782196364E+02 -0.19290552003E+02  0.37286590828E+02  0.10566000000E+00 0. -1.
         23    2    1    0    0    0  0.11719370834E+02 -0.23781614380E+02 -0.11017199283E+02  0.96289592213E+02  0.91909727740E+02 0.  0.
         13    1    3    3    0    0  0.25493929535E+02 -0.52563810745E+02  0.82733527200E+01  0.59003001385E+02  0.10566000000E+00 0.  1.
         22    1    1    0    0    0 -0.11719370834E+02  0.23781614380E+02  0.11017199283E+02  0.28710407787E+02  0.00000000000E+00 0.  1.
</event>
<event>
 5    1  0.9034917E-005  0.9118800E+02  0.7818608E-02  0.1130116E+00
         25   -1    0    0    0    0  0.00000000000E+00  0.00000000000E+00  0.99999998245E-14  0.12500000000E+03  0.12500000000E+03 0.  0.
        -13    1    3    3    0    0 -0.26685242327E+02  0.17927527871E+01  0.25044403238E+02  0.36640816287E+02  0.10566000000E+00 0. -1.
         23    2    1    0    0    0  0.24753586065E+02  0.14591295951E+02 -0.20910611815E+01  0.96189958739E+02  0.91774123176E+02 0.  0.
         13    1    3    3    0    0  0.51438828392E+02  0.12798543164E+02 -0.27135464420E+02  0.59549142452E+02  0.10566000000E+00 0.  1.
         22    1    1    0    0    0 -0.24753586065E+02 -0.14591295951E+02  0.20910611815E+01  0.28810041261E+02  0.00000000000E+00 0.  1.
</event>
<event>
 5    1  0.9034917E-005  0.9118800E+02  0.7818608E-02  0.1130116E+00
         25   -1    0    0    0    0  0.00000000000E+00  0.00000000000E+00  0.99999998245E-14  0.12500000000E+03  0.12500000000E+03 0.  0.
        -13    1    3    3    0    0  0.49818315756E+02 -0.26130992088E+02 -0.12450115702E+02  0.57616923532E+02  0.10566000000E+00 0.  1.
         23    2    1    0    0    0  0.22215818537E+02 -0.23497517705E+02 -0.20771300348E+02  0.86566644048E+02  0.77567138738E+02 0.  0.
         13    1    3    3    0    0 -0.27602497218E+02  0.26334743833E+01 -0.83211846458E+01  0.28949720516E+02  0.10566000000E+00 0. -1.
         22    1    1    0    0    0 -0.22215818537E+02  0.23497517705E+02  0.20771300348E+02  0.38433355952E+02  0.00000000000E+00 0.  1.
</event>
<event>
 5    1  0.9034917E-005  0.9118800E+02  0.7818608E-02  0.1130116E+00
         25   -1    0    0    0    0  0.00000000000E+00  0.00000000000E+00  0.99999998245E-14  0.12500000000E+03  0.12500000000E+03 0.  0.
        -13    1    3    3    0    0  0.86179455082E+01 -0.14318768037E+02  0.85627377835E+00  0.16734409810E+02  0.10566000000E+00 0.  1.
         23    2    1    0    0    0 -0.92639699216E+01  0.70789874468E+01 -0.49418281694E+02  0.74225008443E+02  0.54141039063E+02 0.  0.
         13    1    3    3    0    0 -0.17881915430E+02  0.21397755484E+02 -0.50274555473E+02  0.57490598633E+02  0.10566000000E+00 0. -1.
         22    1    1    0    0    0  0.92639699216E+01 -0.70789874468E+01  0.49418281694E+02  0.50774991557E+02  0.00000000000E+00 0. -1.
</event>
<event>
 5    1  0.9034917E-005  0.9118800E+02  0.7818608E-02  0.1130116E+00
         25   -1    0    0    0    0  0.00000000000E+00  0.00000000000E+00  0.99999998245E-14  0.12500000000E+03  0.12500000000E+03 0.  0.
        -13    1    3    3    0    0 -0.33918610051E+02  0.10015653493E+02  0.29611424495E+02  0.46126272853E+02  0.10566000000E+00 0.  1.
         23    2    1    0    0    0  0.13009417828E+02  0.86736792640E+01  0.27795252765E+02  0.93108719993E+02  0.87476739755E+02 0.  0.
         13    1    3    3    0    0  0.46928027879E+02 -0.13419742287E+01 -0.18161717292E+01  0.46982447140E+02  0.10566000000E+00 0. -1.
         22    1    1    0    0    0 -0.13009417828E+02 -0.86736792640E+01 -0.27795252765E+02  0.31891280007E+02  0.00000000000E+00 0.  1.
</event>
<event>
 5    1  0.9034917E-005  0.9118800E+02  0.7818608E-02  0.1130116E+00
         25   -1    0    0    0    0  0.00000000000E+00  0.00000000000E+00  0.99999998245E-14  0.12500000000E+03  0.12500000000E+03 0.  0.
        -13    1    3    3    0    0  0.11080136536E+02 -0.31181797846E+02 -0.35206769125E+01  0.33278826189E+02  0.10566000000E+00 0. -1.
         23    2    1    0    0    0 -0.19041037416E+02  0.22879827722E+02 -0.10178713309E+01  0.95216049884E+02  0.90437892894E+02 0.  0.
         13    1    3    3    0    0 -0.30121173952E+02  0.54061625568E+02  0.25028055815E+01  0.61937223695E+02  0.10566000000E+00 0.  1.
         22    1    1    0    0    0  0.19041037416E+02 -0.22879827722E+02  0.10178713309E+01  0.29783950116E+02  0.00000000000E+00 0.  1.
</event>
<event>
 5    1  0.9034917E-005  0.9118800E+02  0.7818608E-02  0.1130116E+00
         25   -1    0    0    0    0  0.00000000000E+00  0.00000000000E+00  0.99999998245E-14  0.12500000000E+03  0.12500000000E+03 0.  0.
        -13    1    3    3    0    0  0.55310437883E+02 -0.23891768386E+02  0.10025068770E+02  0.61078427478E+02  0.10566000000E+00 0.  1.
         23    2    1    0    0    0  0.21634610063E+02 -0.17167125983E+02  0.10582327586E+02  0.95423789556E+02  0.90724568828E+02 0.  0.
         13    1    3    3    0    0 -0.33675827820E+02  0.67246424022E+01  0.55725881609E+00  0.34345362077E+02  0.10566000000E+00 0. -1.
         22    1    1    0    0    0 -0.21634610063E+02  0.17167125983E+02 -0.10582327586E+02  0.29576210444E+02  0.00000000000E+00 0.  1.
</event>
<event>
 5    1  0.9034917E-005  0.9118800E+02  0.7818608E-02  0.1130116E+00
         25   -1    0    0    0    0  0.00000000000E+00  0.00000000000E+00  0.99999998245E-14  0.12500000000E+03  0.12500000000E+03 0.  0.
        -13    1    3    3    0    0 -0.27730997657E+02 -0.14540416946E+02  0.16555386698E+02  0.35419259574E+02  0.10566000000E+00 0. -1.
         23    2    1    0    0    0  0.11795266009E+01  0.93249410694E+01 -0.29057024388E+02  0.94460575067E+02  0.89387604100E+02 0.  0.
         13    1    3    3    0    0  0.28910524258E+02  0.23865358015E+02 -0.45612411086E+02  0.59041315493E+02  0.10566000000E+00 0.  1.
         22    1    1    0    0    0 -0.11795266009E+01 -0.93249410694E+01  0.29057024388E+02  0.30539424933E+02  0.00000000000E+00 0.  1.
</event>
<event>
 5    1  0.9034917E-005  0.9118800E+02  0.7818608E-02  0.1130116E+00
         25   -1    0    0    0    0  0.00000000000E+00  0.00000000000E+00  0.99999998245E-14  0.12500000000E+03  0.12500000000E+03 0.  0.
        -13    1    3    3    0    0  0.75554733483E+01  0.44995674039E+02 -0.28097027500E+02  0.53583112807E+02  0.10566000000E+00 0. -1.
         23    2    1    0    0    0  0.18941965541E+02  0.22811807015E+02  0.49047148689E+01  0.94946167869E+02  0.90064099214E+02 0.  0.
         13    1    3    3    0    0  0.11386492192E+02 -0.22183867024E+02  0.33001742369E+02  0.41363055061E+02  0.10566000000E+00 0.  1.
         22    1    1    0    0    0 -0.18941965541E+02 -0.22811807015E+02 -0.49047148689E+01  0.30053832131E+02  0.00000000000E+00 0.  1.
</event>
<event>
 5    1  0.9034917E-005  0.9118800E+02  0.7818608E-02  0.1130116E+00
         25   -1    0    0    0    0  0.00000000000E+00  0.00000000000E+00  0.99999998245E-14  0.12500000000E+03  0.12500000000E+03 0.  0.
        -13    1    3    3    0    0 -0.33089456361E+02  0.48331723552E+02  0.17118020904E+02  0.61023810332E+02  0.10566000000E+00 0.  1.
         23    2    1    0    0    0 -0.21131383313E+02  0.16273589174E+02  0.12481759185E+02  0.95552430021E+02  0.90901636428E+02 0.  0.
         13    1    3    3    0    0  0.11958073048E+02 -0.32058134378E+02 -0.46362617189E+01  0.34528619689E+02  0.10566000000E+00 0. -1.
         22    1    1    0    0    0  0.21131383313E+02 -0.16273589174E+02 -0.12481759185E+02  0.29447569979E+02  0.00000000000E+00 0.  1.
</event>
<event>
 5    1  0.9034917E-005  0.9118800E+02  0.7818608E-02  0.1130116E+00
         25   -1    0    0    0    0  0.00000000000E+00  0.00000000000E+00  0.99999998245E-14  0.12500000000E+03  0.12500000000E+03 0.  0.
        -13    1    3    3    0    0  0.45007708837E+02  0.51928451182E+01  0.39260654761E+02  0.59950560226E+02  0.10566000000E+00 0.  1.
         23    2    1    0    0    0  0.26526022058E+02  0.99638407116E+01  0.98720477946E+01  0.94993912358E+02  0.90130339450E+02 0.  0.
         13    1    3    3    0    0 -0.18481686779E+02  0.47709955934E+01 -0.29388606966E+02  0.35043352131E+02  0.10566000000E+00 0. -1.
         22    1    1    0    0    0 -0.26526022058E+02 -0.99638407116E+01 -0.98720477946E+01  0.30006087642E+02  0.00000000000E+00 0.  1.
</event>
<event>
 5    1  0.9034917E-005  0.9118800E+02  0.7818608E-02  0.1130116E+00
         25   -1    0    0    0    0  0.00000000000E+00  0.00000000000E+00  0.99999998245E-14  0.12500000000E+03  0.12500000000E+03 0.  0.
        -13    1    3    3    0    0 -0.11449030782E+02 -0.17600759686E+02 -0.21989436290E+02  0.30404169447E+02  0.10566000000E+00 0. -1.
         23    2    1    0    0    0  0.24031460459E+02  0.25191508040E+02  0.20671689213E-02  0.90184440642E+02  0.83193209823E+02 0.  0.
         13    1    3    3    0    0  0.35480491240E+02  0.42792267726E+02  0.21991503459E+02  0.59780271195E+02  0.10566000000E+00 0.  1.
         22    1    1    0    0    0 -0.24031460459E+02 -0.25191508040E+02 -0.20671689213E-02  0.34815559358E+02  0.00000000000E+00 0.  1.
</event>
<event>
 5    1  0.9034917E-005  0.9118800E+02  0.7818608E-02  0.1130116E+00
         25   -1    0    0    0    0  0.00000000000E+00  0.00000000000E+00  0.99999998245E-14  0.12500000000E+03  0.12500000000E+03 0.  0.
        -13    1    3    3    0    0 -0.22212326162E+02 -0.14446343741E+02 -0.29770657376E+02  0.39854579231E+02  0.10566000000E+00 0. -1.
         23    2    1    0    0    0 -0.21290947011E+02 -0.20241965064E+02  0.19671905864E+02  0.89644300960E+02  0.82377637985E+02 0.  0.
         13    1    3    3    0    0  0.92137915127E+00 -0.57956213226E+01  0.49442563240E+02  0.49789721729E+02  0.10566000000E+00 0.  1.
         22    1    1    0    0    0  0.21290947011E+02  0.20241965064E+02 -0.19671905864E+02  0.35355699040E+02  0.00000000000E+00 0.  1.
</event>
<event>
 5    1  0.9034917E-005  0.9118800E+02  0.7818608E-02  0.1130116E+00
         25   -1    0    0    0    0  0.00000000000E+00  0.00000000000E+00  0.99999998245E-14  0.12500000000E+03  0.12500000000E+03 0.  0.
        -13    1    3    3    0    0 -0.90430059259E+01  0.14293495250E+02 -0.37820429837E+02  0.41430375810E+02  0.10566000000E+00 0.  1.
         23    2    1    0    0    0  0.29511196867E+02  0.55276362337E+00 -0.27040267614E+01  0.95360026167E+02  0.90636673271E+02 0.  0.
         13    1    3    3    0    0  0.38554202793E+02 -0.13740731627E+02  0.35116403076E+02  0.53929650357E+02  0.10566000000E+00 0. -1.
         22    1    1    0    0    0 -0.29511196867E+02 -0.55276362337E+00  0.27040267614E+01  0.29639973833E+02  0.00000000000E+00 0. -1.
</event>
<event>
 5    1  0.9034917E-005  0.9118800E+02  0.7818608E-02  0.1130116E+00
         25   -1    0    0    0    0  0.00000000000E+00  0.00000000000E+00  0.99999998245E-14  0.12500000000E+03  0.12500000000E+03 0.  0.
        -13    1    3    3    0    0 -0.49683822191E+02  0.27091418550E+02  0.55715391303E+01  0.56863699835E+02  0.10566000000E+00 0. -1.
         23    2    1    0    0    0 -0.25744836551E+02 -0.10667886670E+01  0.15236170707E+02  0.95065479044E+02  0.90229539292E+02 0.  0.
         13    1    3    3    0    0  0.23938985641E+02 -0.28158207217E+02  0.96646315769E+01  0.38201779209E+02  0.10566000000E+00 0.  1.
         22    1    1    0    0    0  0.25744836551E+02  0.10667886670E+01 -0.15236170707E+02  0.29934520956E+02  0.00000000000E+00 0. -1.
</event>
<event>
 5    1  0.9034917E-005  0.9118800E+02  0.7818608E-02  0.1130116E+00
         25   -1    0    0    0    0  0.00000000000E+00  0.00000000000E+00  0.99999998245E-14  0.12500000000E+03  0.12500000000E+03 0.  0.
        -13    1    3    3    0    0  0.44214566101E+02 -0.19802089359E+02 -0.17002751057E+02  0.51343503056E+02  0.10566000000E+00 0. -1.
         23    2    1    0    0    0 -0.19638161541E+00 -0.26678021948E+02 -0.76430559103E+01  0.97248032062E+02  0.93204120164E+02 0.  0.
         13    1    3    3    0    0 -0.44410947716E+02 -0.68759325885E+01  0.93596951470E+01  0.45904529006E+02  0.10566000000E+00 0.  1.
         22    1    1    0    0    0  0.19638161541E+00  0.26678021948E+02  0.76430559103E+01  0.27751967938E+02  0.00000000000E+00 0. -1.
</event>
<event>
 5    1  0.9034917E-005  0.9118800E+02  0.7818608E-02  0.1130116E+00
         25   -1    0    0    0    0  0.00000000000E+00  0.00000000000E+00  0.99999998245E-14  0.12500000000E+03  0.12500000000E+03 0.  0.
        -13    1    3    3    0    0  0.36498452585E+02 -0.80465706704E+01 -0.25133732468E+02  0.45039982376E+02  0.10566000000E+00 0. -1.
         23    2    1    0    0    0 -0.99731812690E+01  0.14433499487E+02 -0.22142072774E+02  0.96750015243E+02  0.92533798208E+02 0.  0.
         13    1    3    3    0    0 -0.46471633854E+02  0.22480070157E+02  0.29916596946E+01  0.51710032867E+02  0.10566000000E+00 0.  1.
         22    1    1    0    0    0  0.99731812690E+01 -0.14433499487E+02  0.22142072774E+02  0.28249984757E+02  0.00000000000E+00 0.  1.
</event>
<event>
 5    1  0.9034917E-005  0.9118800E+02  0.7818608E-02  0.1130116E+00
         25   -1    0    0    0    0  0.00000000000E+00  0.00000000000E+00  0.99999998245E-14  0.12500000000E+03  0.12500000000E+03 0.  0.
        -13    1    3    3    0    0  0.47844650254E+02  0.13632420870E+02 -0.70570572356E+01  0.50247056407E+02  0.10566000000E+00 0. -1.
         23    2    1    0    0    0  0.53421882004E+01  0.24982008253E+02 -0.15608447530E+02  0.95062342352E+02  0.90225193754E+02 0.  0.
         13    1    3    3    0    0 -0.42502462053E+02  0.11349587383E+02 -0.85513902949E+01  0.44815285945E+02  0.10566000000E+00 0.  1.
         22    1    1    0    0    0 -0.53421882004E+01 -0.24982008253E+02  0.15608447530E+02  0.29937657648E+02  0.00000000000E+00 0.  1.
</event>
<event>
 5    1  0.9034917E-005  0.9118800E+02  0.7818608E-02  0.1130116E+00
         25   -1    0    0    0    0  0.00000000000E+00  0.00000000000E+00  0.99999998245E-14  0.12500000000E+03  0.12500000000E+03 0.  0.
        -13    1    3    3    0    0  0.59744213331E+01 -0.32361566459E+02 -0.39956743675E+02  0.51764053387E+02  0.10566000000E+00 0.  1.
         23    2    1    0    0    0 -0.21930825899E+02 -0.77599425625E+01 -0.21629522027E+02  0.93235018396E+02  0.87657028236E+02 0.  0.
         13    1    3    3    0    0 -0.27905247232E+02  0.24601623896E+02  0.18327221648E+02  0.41470965009E+02  0.10566000000E+00 0. -1.
         22    1    1    0    0    0  0.21930825899E+02  0.77599425625E+01  0.21629522027E+02  0.31764981604E+02  0.00000000000E+00 0.  1.
</event>
<event>
 5    1  0.9034917E-005  0.9118800E+02  0.7818608E-02  0.1130116E+00
         25   -1    0    0    0    0  0.00000000000E+00  0.00000000000E+00  0.99999998245E-14  0.12500000000E+03  0.12500000000E+03 0.  0.
        -13    1    3    3    0    0 -0.23042800013E+02  0.27589456191E+02 -0.39816468440E+02  0.53642437011E+02  0.10566000000E+00 0. -1.
         23    2    1    0    0    0 -0.13474131119E+02 -0.20414077581E+01 -0.37769184390E+02  0.84847405506E+02  0.74745243170E+02 0.  0.
         13    1    3    3    0    0  0.95686688935E+01 -0.29630863950E+02  0.20472840499E+01  0.31204968495E+02  0.10566000000E+00 0.  1.
         22    1    1    0    0    0  0.13474131119E+02  0.20414077581E+01  0.37769184390E+02  0.40152594494E+02  0.00000000000E+00 0. -1.
</event>
<event>
 5    1  0.9034917E-005  0.9118800E+02  0.7818608E-02  0.1130116E+00
         25   -1    0    0    0    0  0.00000000000E+00  0.00000000000E+00  0.99999998245E-14  0.12500000000E+03  0.12500000000E+03 0.  0.
        -13    1    3    3    0    0  0.11166157655E+01  0.34726707435E+02 -0.15852272802E+02  0.38190270450E+02  0.10566000000E+00 0.  1.
         23    2    1    0    0    0  0.19827433673E+02 -0.51353393522E+01  0.21040055932E+02  0.95637050728E+02  0.91017925059E+02 0.  0.
         13    1    3    3    0    0  0.18710817907E+02 -0.39862046787E+02  0.36892328734E+02  0.57446780278E+02  0.10566000000E+00 0. -1.
         22    1    1    0    0    0 -0.19827433673E+02  0.51353393522E+01 -0.21040055932E+02  0.29362949272E+02  0.00000000000E+00 0. -1.
</event>
<event>
 5    1  0.9034917E-005  0.9118800E+02  0.7818608E-02  0.1130116E+00
         25   -1    0    0    0    0  0.00000000000E+00  0.00000000000E+00  0.99999998245E-14  0.12500000000E+03  0.12500000000E+03 0.  0.
        -13    1    3    3    0    0  0.43709093594E+02  0.99667899010E+01 -0.86122982633E+01  0.45650899325E+02  0.10566000000E+00 0.  1.
         23    2    1    0    0    0  0.75139053824E+01 -0.20159391050E+02 -0.21612545778E+02  0.94504722388E+02  0.89449318594E+02 0.  0.
         13    1    3    3    0    0 -0.36195188212E+02 -0.30126180951E+02 -0.13000247515E+02  0.48853823063E+02  0.10566000000E+00 0. -1.
         22    1    1    0    0    0 -0.75139053824E+01  0.20159391050E+02  0.21612545778E+02  0.30495277612E+02  0.00000000000E+00 0. -1.
</event>
<event>
 5    1  0.9034917E-005  0.9118800E+02  0.7818608E-02  0.1130116E+00
         25   -1    0    0    0    0  0.00000000000E+00  0.00000000000E+00  0.99999998245E-14  0.12500000000E+03  0.12500000000E+03 0.  0.
        -13    1    3    3    0    0 -0.24007512893E+02  0.93130237132E+01  0.52971622576E+02  0.58899041150E+02  0.10566000000E+00 0.  1.
         23    2    1    0    0    0  0.38857537848E+00  0.74801439580E+01  0.34874934814E+02  0.89329779609E+02  0.81898992071E+02 0.  0.
         13    1    3    3    0    0  0.24396088272E+02 -0.18328797552E+01 -0.18096687762E+02  0.30430738459E+02  0.10566000000E+00 0. -1.
         22    1    1    0    0    0 -0.38857537848E+00 -0.74801439580E+01 -0.34874934814E+02  0.35670220391E+02  0.00000000000E+00 0.  1.
</event>
<event>
 5    1  0.9034917E-005  0.9118800E+02  0.7818608E-02  0.1130116E+00
         25   -1    0    0    0    0  0.00000000000E+00  0.00000000000E+00  0.99999998245E-14  0.12500000000E+03  0.12500000000E+03 0.  0.
        -13    1    3    3    0    0 -0.19202148976E+02 -0.11036481438E+02 -0.25705585160E+02  0.33931028871E+02  0.10566000000E+00 0.  1.
         23    2    1    0    0    0 -0.43742975126E+00  0.66502692246E+01  0.29443849871E+02  0.94811298128E+02  0.89876718520E+02 0.  0.
         13    1    3    3    0    0  0.18764719224E+02  0.17686750663E+02  0.55149435030E+02  0.60880269257E+02  0.10566000000E+00 0. -1.
         22    1    1    0    0    0  0.43742975126E+00 -0.66502692246E+01 -0.29443849871E+02  0.30188701872E+02  0.00000000000E+00 0. -1.
</event>
<event>
 5    1  0.9034917E-005  0.9118800E+02  0.7818608E-02  0.1130116E+00
         25   -1    0    0    0    0  0.00000000000E+00  0.00000000000E+00  0.99999998245E-14  0.12500000000E+03  0.12500000000E+03 0.  0.
        -13    1    3    3    0    0  0.15493106838E+02 -0.21462966248E+02 -0.26808901939E+02  0.37675239440E+02  0.10566000000E+00 0.  1.
         23    2    1    0    0    0  0.11448560333E+02 -0.19945686305E+02  0.25786565204E+02  0.90447910615E+02  0.83588143021E+02 0.  0.
         13    1    3    3    0    0 -0.40445465054E+01  0.15172799427E+01  0.52595467143E+02  0.52772671174E+02  0.10566000000E+00 0. -1.
         22    1    1    0    0    0 -0.11448560333E+02  0.19945686305E+02 -0.25786565204E+02  0.34552089385E+02  0.00000000000E+00 0. -1.
</event>
<event>
 5    1  0.9034917E-005  0.9118800E+02  0.7818608E-02  0.1130116E+00
         25   -1    0    0    0    0  0.00000000000E+00  0.00000000000E+00  0.99999998245E-14  0.12500000000E+03  0.12500000000E+03 0.  0.
        -13    1    3    3    0    0  0.56456721381E+02  0.15760698266E+02 -0.10691733420E+02  0.59582592479E+02  0.10566000000E+00 0.  1.
         23    2    1    0    0    0  0.20028432586E+02  0.19384645499E+02 -0.59792269457E+01  0.96492917584E+02  0.92185841625E+02 0.  0.
         13    1    3    3    0    0 -0.36428288795E+02  0.36239472336E+01  0.47125064739E+01  0.36910325105E+02  0.10566000000E+00 0. -1.
         22    1    1    0    0    0 -0.20028432586E+02 -0.19384645499E+02  0.59792269457E+01  0.28507082416E+02  0.00000000000E+00 0.  1.
</event>
<event>
 5    1  0.9034917E-005  0.9118800E+02  0.7818608E-02  0.1130116E+00
         25   -1    0    0    0    0  0.00000000000E+00  0.00000000000E+00  0.99999998245E-14  0.12500000000E+03  0.12500000000E+03 0.  0.
        -13    1    3    3    0    0 -0.36078692796E+01  0.79454055237E+01  0.34984810840E+02  0.36056821036E+02  0.10566000000E+00 0.  1.
         23    2    1    0    0    0  0.94579301578E+01  0.20117637864E+02 -0.20754909354E+02  0.94587205679E+02  0.89564509823E+02 0.  0.
         13    1    3    3    0    0  0.13065799437E+02  0.12172232340E+02 -0.55739720194E+02  0.58530384643E+02  0.10566000000E+00 0. -1.
         22    1    1    0    0    0 -0.94579301578E+01 -0.20117637864E+02  0.20754909354E+02  0.30412794321E+02  0.00000000000E+00 0. -1.
</event>
<event>
 5    1  0.9034917E-005  0.9118800E+02  0.7818608E-02  0.1130116E+00
         25   -1    0    0    0    0  0.00000000000E+00  0.00000000000E+00  0.99999998245E-14  0.12500000000E+03  0.12500000000E+03 0.  0.
        -13    1    3    3    0    0  0.25437968717E+02  0.22776956830E+02 -0.48534568550E+02  0.59342190078E+02  0.10566000000E+00 0. -1.
         23    2    1    0    0    0  0.17582257115E+02 -0.18025176498E+01 -0.14000137051E+02  0.10245252403E+03  0.99940637419E+02 0.  0.
         13    1    3    3    0    0 -0.78557116020E+01 -0.24579474480E+02  0.34534431499E+02  0.43110333953E+02  0.10566000000E+00 0.  1.
         22    1    1    0    0    0 -0.17582257115E+02  0.18025176498E+01  0.14000137051E+02  0.22547475969E+02  0.00000000000E+00 0. -1.
</event>
<event>
 5    1  0.9034917E-005  0.9118800E+02  0.7818608E-02  0.1130116E+00
         25   -1    0    0    0    0  0.00000000000E+00  0.00000000000E+00  0.99999998245E-14  0.12500000000E+03  0.12500000000E+03 0.  0.
        -13    1    3    3    0    0 -0.34389393739E+02  0.37474705152E+02  0.17891927984E+02  0.53917679651E+02  0.10566000000E+00 0.  1.
         23    2    1    0    0    0 -0.28038880303E+01  0.25269516683E+02 -0.98916869007E+01  0.97718949228E+02  0.93833561730E+02 0.  0.
         13    1    3    3    0    0  0.31585505709E+02 -0.12205188469E+02 -0.27783614885E+02  0.43801269577E+02  0.10566000000E+00 0. -1.
         22    1    1    0    0    0  0.28038880303E+01 -0.25269516683E+02  0.98916869007E+01  0.27281050772E+02  0.00000000000E+00 0.  1.
</event>
<event>
 5    1  0.9034917E-005  0.9118800E+02  0.7818608E-02  0.1130116E+00
         25   -1    0    0    0    0  0.00000000000E+00  0.00000000000E+00  0.99999998245E-14  0.12500000000E+03  0.12500000000E+03 0.  0.
        -13    1    3    3    0    0  0.23327714852E+02 -0.50720465358E+02  0.63686399183E+01  0.56190022466E+02  0.10566000000E+00 0.  1.
         23    2    1    0    0    0  0.85488121713E+01 -0.24029914812E+02 -0.16765018986E+02  0.94478124943E+02  0.89412142552E+02 0.  0.
         13    1    3    3    0    0 -0.14778902681E+02  0.26690550546E+02 -0.23133658905E+02  0.38288102476E+02  0.10566000000E+00 0. -1.
         22    1    1    0    0    0 -0.85488121713E+01  0.24029914812E+02  0.16765018986E+02  0.30521875057E+02  0.00000000000E+00 0.  1.
</event>
<event>
 5    1  0.9034917E-005  0.9118800E+02  0.7818608E-02  0.1130116E+00
         25   -1    0    0    0    0  0.00000000000E+00  0.00000000000E+00  0.99999998245E-14  0.12500000000E+03  0.12500000000E+03 0.  0.
        -13    1    3    3    0    0  0.25507233647E+02 -0.53115909013E+00  0.49275133577E+02  0.55488296526E+02  0.10566000000E+00 0.  1.
         23    2    1    0    0    0  0.28230322062E+01 -0.19245290488E+02  0.22484822161E+02  0.95269242452E+02  0.90511383886E+02 0.  0.
         13    1    3    3    0    0 -0.22684201440E+02 -0.18714131397E+02 -0.26790311416E+02  0.39780945926E+02  0.10566000000E+00 0. -1.
         22    1    1    0    0    0 -0.28230322062E+01  0.19245290488E+02 -0.22484822161E+02  0.29730757548E+02  0.00000000000E+00 0.  1.
</event>
<event>
 5    1  0.9034917E-005  0.9118800E+02  0.7818608E-02  0.1130116E+00
         25   -1    0    0    0    0  0.00000000000E+00  0.00000000000E+00  0.99999998245E-14  0.12500000000E+03  0.12500000000E+03 0.  0.
        -13    1    3    3    0    0  0.39124084549E+02  0.21293841127E+02  0.11404949026E+02  0.45980492473E+02  0.10566000000E+00 0.  1.
         23    2    1    0    0    0  0.66934403264E+01  0.69451818580E+01 -0.25846044145E+02  0.97412762146E+02  0.93424785451E+02 0.  0.
         13    1    3    3    0    0 -0.32430644223E+02 -0.14348659269E+02 -0.37250993171E+02  0.51432269673E+02  0.10566000000E+00 0. -1.
         22    1    1    0    0    0 -0.66934403264E+01 -0.69451818580E+01  0.25846044145E+02  0.27587237854E+02  0.00000000000E+00 0. -1.
</event>
<event>
 5    1  0.9034917E-005  0.9118800E+02  0.7818608E-02  0.1130116E+00
         25   -1    0    0    0    0  0.00000000000E+00  0.00000000000E+00  0.99999998245E-14  0.12500000000E+03  0.12500000000E+03 0.  0.
        -13    1    3    3    0    0 -0.17030953580E+02  0.40342723413E+02  0.34696517490E+02  0.55869922160E+02  0.10566000000E+00 0. -1.
         23    2    1    0    0    0  0.54369960921E+01  0.28053345068E+02  0.35316379733E+01  0.96207230721E+02  0.91797645286E+02 0.  0.
         13    1    3    3    0    0  0.22467949672E+02 -0.12289378345E+02 -0.31164879517E+02  0.40337308560E+02  0.10566000000E+00 0.  1.
         22    1    1    0    0    0 -0.54369960921E+01 -0.28053345068E+02 -0.35316379733E+01  0.28792769279E+02  0.00000000000E+00 0. -1.
</event>
<event>
 5    1  0.9034917E-005  0.9118800E+02  0.7818608E-02  0.1130116E+00
         25   -1    0    0    0    0  0.00000000000E+00  0.00000000000E+00  0.99999998245E-14  0.12500000000E+03  0.12500000000E+03 0.  0.
        -13    1    3    3    0    0  0.37658230380E+02 -0.19624763830E+02 -0.15617873951E+02  0.45246025478E+02  0.10566000000E+00 0. -1.
         23    2    1    0    0    0  0.12563616870E+02  0.24120399703E+02 -0.10140782959E+02  0.95974603711E+02  0.91480330825E+02 0.  0.
         13    1    3    3    0    0 -0.25094613510E+02  0.43745163534E+02  0.54770909927E+01  0.50728578233E+02  0.10566000000E+00 0.  1.
         22    1    1    0    0    0 -0.12563616870E+02 -0.24120399703E+02  0.10140782959E+02  0.29025396289E+02  0.00000000000E+00 0.  1.
</event>
<event>
 5    1  0.9034917E-005  0.9118800E+02  0.7818608E-02  0.1130116E+00
         25   -1    0    0    0    0  0.00000000000E+00  0.00000000000E+00  0.99999998245E-14  0.12500000000E+03  0.12500000000E+03 0.  0.
        -13    1    3    3    0    0  0.23066281134E+02  0.17861796283E+02 -0.16868108266E+02  0.33699277920E+02  0.10566000000E+00 0. -1.
         23    2    1    0    0    0 -0.15456522973E+02 -0.15606792869E+02  0.18904466292E+02  0.96019749280E+02  0.91541997574E+02 0.  0.
         13    1    3    3    0    0 -0.38522804107E+02 -0.33468589151E+02  0.35772574557E+02  0.62320471360E+02  0.10566000000E+00 0.  1.
         22    1    1    0    0    0  0.15456522973E+02  0.15606792869E+02 -0.18904466292E+02  0.28980250720E+02  0.00000000000E+00 0.  1.
</event>
<event>
 5    1  0.9034917E-005  0.9118800E+02  0.7818608E-02  0.1130116E+00
         25   -1    0    0    0    0  0.00000000000E+00  0.00000000000E+00  0.99999998245E-14  0.12500000000E+03  0.12500000000E+03 0.  0.
        -13    1    3    3    0    0  0.78352418826E+00 -0.23216642587E+02  0.26369292367E+02  0.35142241635E+02  0.10566000000E+00 0. -1.
         23    2    1    0    0    0  0.16484488223E+02  0.77822364006E+01 -0.23085961107E+02  0.95584644221E+02  0.90945923797E+02 0.  0.
         13    1    3    3    0    0  0.15700964035E+02  0.30998878988E+02 -0.49455253474E+02  0.60442402586E+02  0.10566000000E+00 0.  1.
         22    1    1    0    0    0 -0.16484488223E+02 -0.77822364006E+01  0.23085961107E+02  0.29415355779E+02  0.00000000000E+00 0.  1.
</event>
<event>
 5    1  0.9034917E-005  0.9118800E+02  0.7818608E-02  0.1130116E+00
         25   -1    0    0    0    0  0.00000000000E+00  0.00000000000E+00  0.99999998245E-14  0.12500000000E+03  0.12500000000E+03 0.  0.
        -13    1    3    3    0    0  0.21967063895E+02  0.21919974126E+02  0.11515415387E+02  0.33100651314E+02  0.10566000000E+00 0. -1.
         23    2    1    0    0    0 -0.21528737697E+02 -0.17909659230E+02 -0.90643869031E+01  0.95565232284E+02  0.90919239279E+02 0.  0.
         13    1    3    3    0    0 -0.43495801593E+02 -0.39829633355E+02 -0.20579802290E+02  0.62464580970E+02  0.10566000000E+00 0.  1.
         22    1    1    0    0    0  0.21528737697E+02  0.17909659230E+02  0.90643869031E+01  0.29434767716E+02  0.00000000000E+00 0.  1.
</event>
<event>
 5    1  0.9034917E-005  0.9118800E+02  0.7818608E-02  0.1130116E+00
         25   -1    0    0    0    0  0.00000000000E+00  0.00000000000E+00  0.99999998245E-14  0.12500000000E+03  0.12500000000E+03 0.  0.
        -13    1    3    3    0    0 -0.14672151279E+02 -0.49247520695E+01  0.38846016576E+02  0.41815659435E+02  0.10566000000E+00 0.  1.
         23    2    1    0    0    0  0.79833824618E+01 -0.30954033161E+02  0.10208509520E+01  0.93016743425E+02  0.87345210838E+02 0.  0.
         13    1    3    3    0    0  0.22655533741E+02 -0.26029281091E+02 -0.37825165624E+02  0.51201083990E+02  0.10566000000E+00 0. -1.
         22    1    1    0    0    0 -0.79833824618E+01  0.30954033161E+02 -0.10208509520E+01  0.31983256575E+02  0.00000000000E+00 0. -1.
</event>
<event>
 5    1  0.9034917E-005  0.9118800E+02  0.7818608E-02  0.1130116E+00
         25   -1    0    0    0    0  0.00000000000E+00  0.00000000000E+00  0.99999998245E-14  0.12500000000E+03  0.12500000000E+03 0.  0.
        -13    1    3    3    0    0 -0.90424784088E+01 -0.56001085336E+02 -0.11144375358E+02  0.57810866113E+02  0.10566000000E+00 0. -1.
         23    2    1    0    0    0  0.14264526678E+01 -0.20649470694E+02 -0.20520135977E+02  0.95853621363E+02  0.91314869220E+02 0.  0.
         13    1    3    3    0    0  0.10468931077E+02  0.35351614643E+02 -0.93757606188E+01  0.38042755249E+02  0.10566000000E+00 0.  1.
         22    1    1    0    0    0 -0.14264526678E+01  0.20649470694E+02  0.20520135977E+02  0.29146378637E+02  0.00000000000E+00 0. -1.
</event>
<event>
 5    1  0.9034917E-005  0.9118800E+02  0.7818608E-02  0.1130116E+00
         25   -1    0    0    0    0  0.00000000000E+00  0.00000000000E+00  0.99999998245E-14  0.12500000000E+03  0.12500000000E+03 0.  0.
        -13    1    3    3    0    0 -0.20044310736E+02 -0.36242271522E+02  0.37318187037E+02  0.55748855466E+02  0.10566000000E+00 0. -1.
         23    2    1    0    0    0  0.10147545001E+02 -0.13269307888E+02  0.23589511666E+02  0.96094771026E+02  0.91644382024E+02 0.  0.
         13    1    3    3    0    0  0.30191855736E+02  0.22972963634E+02 -0.13728675371E+02  0.40345915561E+02  0.10566000000E+00 0.  1.
         22    1    1    0    0    0 -0.10147545001E+02  0.13269307888E+02 -0.23589511666E+02  0.28905228974E+02  0.00000000000E+00 0. -1.
</event>
<event>
 5    1  0.9034917E-005  0.9118800E+02  0.7818608E-02  0.1130116E+00
         25   -1    0    0    0    0  0.00000000000E+00  0.00000000000E+00  0.99999998245E-14  0.12500000000E+03  0.12500000000E+03 0.  0.
        -13    1    3    3    0    0  0.34057541600E+02 -0.37510359140E+02  0.21435007970E+02  0.55012852256E+02  0.10566000000E+00 0.  1.
         23    2    1    0    0    0 -0.35509380972E+01 -0.25458150883E+02  0.15594074741E+02  0.94935040749E+02  0.90048654555E+02 0.  0.
         13    1    3    3    0    0 -0.37608479697E+02  0.12052208257E+02 -0.58409332293E+01  0.39922188493E+02  0.10566000000E+00 0. -1.
         22    1    1    0    0    0  0.35509380972E+01  0.25458150883E+02 -0.15594074741E+02  0.30064959251E+02  0.00000000000E+00 0.  1.
</event>
<event>
 5    1  0.9034917E-005  0.9118800E+02  0.7818608E-02  0.1130116E+00
         25   -1    0    0    0    0  0.00000000000E+00  0.00000000000E+00  0.99999998245E-14  0.12500000000E+03  0.12500000000E+03 0.  0.
        -13    1    3    3    0    0 -0.35899313612E+02  0.37685063652E+01 -0.30063094953E+02  0.46976198230E+02  0.10566000000E+00 0.  1.
         23    2    1    0    0    0  0.10971554596E+02  0.17342166431E+02 -0.19048008581E+02  0.97000850412E+02  0.92872022714E+02 0.  0.
         13    1    3    3    0    0  0.46870868207E+02  0.13573660066E+02  0.11015086371E+02  0.50024652181E+02  0.10566000000E+00 0. -1.
         22    1    1    0    0    0 -0.10971554596E+02 -0.17342166431E+02  0.19048008581E+02  0.27999149588E+02  0.00000000000E+00 0. -1.
</event>
<event>
 5    1  0.9034917E-005  0.9118800E+02  0.7818608E-02  0.1130116E+00
         25   -1    0    0    0    0  0.00000000000E+00  0.00000000000E+00  0.99999998245E-14  0.12500000000E+03  0.12500000000E+03 0.  0.
        -13    1    3    3    0    0 -0.20427264923E+02 -0.54344039799E+02  0.18441967083E+02  0.60915229030E+02  0.10566000000E+00 0.  1.
         23    2    1    0    0    0 -0.18875940390E+02 -0.21987048409E+02  0.89252030140E+01  0.94678544359E+02  0.89691895340E+02 0.  0.
         13    1    3    3    0    0  0.15513245332E+01  0.32356991390E+02 -0.95167640686E+01  0.33763315329E+02  0.10566000000E+00 0. -1.
         22    1    1    0    0    0  0.18875940390E+02  0.21987048409E+02 -0.89252030140E+01  0.30321455641E+02  0.00000000000E+00 0.  1.
</event>
<event>
 5    1  0.9034917E-005  0.9118800E+02  0.7818608E-02  0.1130116E+00
         25   -1    0    0    0    0  0.00000000000E+00  0.00000000000E+00  0.99999998245E-14  0.12500000000E+03  0.12500000000E+03 0.  0.
        -13    1    3    3    0    0 -0.46818238081E+02  0.21612377974E+02  0.34277510358E+02  0.61919311843E+02  0.10566000000E+00 0. -1.
         23    2    1    0    0    0 -0.24831272037E+02  0.58742596158E+01  0.12786965805E+02  0.96458705504E+02  0.92139439851E+02 0.  0.
         13    1    3    3    0    0  0.21986966045E+02 -0.15738118358E+02 -0.21490544552E+02  0.34539393661E+02  0.10566000000E+00 0.  1.
         22    1    1    0    0    0  0.24831272037E+02 -0.58742596158E+01 -0.12786965805E+02  0.28541294496E+02  0.00000000000E+00 0. -1.
</event>
<event>
 5    1  0.9034917E-005  0.9118800E+02  0.7818608E-02  0.1130116E+00
         25   -1    0    0    0    0  0.00000000000E+00  0.00000000000E+00  0.99999998245E-14  0.12500000000E+03  0.12500000000E+03 0.  0.
        -13    1    3    3    0    0  0.19094402881E+02 -0.11092984630E+01  0.25404872168E+02  0.31800085823E+02  0.10566000000E+00 0. -1.
         23    2    1    0    0    0 -0.24178813865E+02  0.27179561993E+02  0.19537201569E+01  0.88569783798E+02  0.80730700167E+02 0.  0.
         13    1    3    3    0    0 -0.43273216746E+02  0.28288860456E+02 -0.23451152012E+02  0.56769697975E+02  0.10566000000E+00 0.  1.
         22    1    1    0    0    0  0.24178813865E+02 -0.27179561993E+02 -0.19537201569E+01  0.36430216202E+02  0.00000000000E+00 0.  1.
</event>
<event>
 5    1  0.9034917E-005  0.9118800E+02  0.7818608E-02  0.1130116E+00
         25   -1    0    0    0    0  0.00000000000E+00  0.00000000000E+00  0.99999998245E-14  0.12500000000E+03  0.12500000000E+03 0.  0.
        -13    1    3    3    0    0  0.29732686969E+02  0.15400943055E+02  0.15479751331E+02  0.36889776181E+02  0.10566000000E+00 0.  1.
         23    2    1    0    0    0 -0.91789399272E+01  0.65811671138E+00 -0.27072661316E+02  0.96406031292E+02  0.92067952203E+02 0.  0.
         13    1    3    3    0    0 -0.38911626896E+02 -0.14742826344E+02 -0.42552412647E+02  0.59516255111E+02  0.10566000000E+00 0. -1.
         22    1    1    0    0    0  0.91789399272E+01 -0.65811671138E+00  0.27072661316E+02  0.28593968708E+02  0.00000000000E+00 0. -1.
</event>
<event>
 5    1  0.9034917E-005  0.9118800E+02  0.7818608E-02  0.1130116E+00
         25   -1    0    0    0    0  0.00000000000E+00  0.00000000000E+00  0.99999998245E-14  0.12500000000E+03  0.12500000000E+03 0.  0.
        -13    1    3    3    0    0 -0.30980046803E+02  0.76935031779E+01  0.29730619441E+02  0.43621946167E+02  0.10566000000E+00 0.  1.
         23    2    1    0    0    0  0.13874721140E+01  0.30497705821E+02 -0.20628826440E+01  0.94401133615E+02  0.89304442240E+02 0.  0.
         13    1    3    3    0    0  0.32367518917E+02  0.22804202643E+02 -0.31793502085E+02  0.50779187448E+02  0.10566000000E+00 0. -1.
         22    1    1    0    0    0 -0.13874721140E+01 -0.30497705821E+02  0.20628826440E+01  0.30598866385E+02  0.00000000000E+00 0. -1.
</event>
<event>
 5    1  0.9034917E-005  0.9118800E+02  0.7818608E-02  0.1130116E+00
         25   -1    0    0    0    0  0.00000000000E+00  0.00000000000E+00  0.99999998245E-14  0.12500000000E+03  0.12500000000E+03 0.  0.
        -13    1    3    3    0    0 -0.70970111530E+01 -0.12996467027E+02  0.33432085809E+02  0.36564890921E+02  0.10566000000E+00 0.  1.
         23    2    1    0    0    0 -0.95330156995E+01  0.25225183213E+01 -0.25555215856E+02  0.97608202972E+02  0.93685915392E+02 0.  0.
         13    1    3    3    0    0 -0.24360045465E+01  0.15518985349E+02 -0.58987301665E+02  0.61043312051E+02  0.10566000000E+00 0. -1.
         22    1    1    0    0    0  0.95330156995E+01 -0.25225183213E+01  0.25555215856E+02  0.27391797028E+02  0.00000000000E+00 0. -1.
</event>
<event>
 5    1  0.9034917E-005  0.9118800E+02  0.7818608E-02  0.1130116E+00
         25   -1    0    0    0    0  0.00000000000E+00  0.00000000000E+00  0.99999998245E-14  0.12500000000E+03  0.12500000000E+03 0.  0.
        -13    1    3    3    0    0 -0.20418019812E+02  0.21289076465E+02  0.31242230297E+02  0.42967527597E+02  0.10566000000E+00 0.  1.
         23    2    1    0    0    0 -0.24890704054E+02 -0.24674621415E+01 -0.15488062461E+02  0.95580353563E+02  0.90940026340E+02 0.  0.
         13    1    3    3    0    0 -0.44726842412E+01 -0.23756538607E+02 -0.46730292758E+02  0.52612825966E+02  0.10566000000E+00 0. -1.
         22    1    1    0    0    0  0.24890704054E+02  0.24674621415E+01  0.15488062461E+02  0.29419646437E+02  0.00000000000E+00 0. -1.
</event>
<event>
 5    1  0.9034917E-005  0.9118800E+02  0.7818608E-02  0.1130116E+00
         25   -1    0    0    0    0  0.00000000000E+00  0.00000000000E+00  0.99999998245E-14  0.12500000000E+03  0.12500000000E+03 0.  0.
        -13    1    3    3    0    0  0.15867469432E+02  0.45339817440E+02 -0.32443207126E+02  0.57965925200E+02  0.10566000000E+00 0.  1.
         23    2    1    0    0    0 -0.15582321685E+01  0.13149697629E+02 -0.26940045095E+02  0.94981527938E+02  0.90113162105E+02 0.  0.
         13    1    3    3    0    0 -0.17425701600E+02 -0.32190119811E+02  0.55031620314E+01  0.37015602738E+02  0.10566000000E+00 0. -1.
         22    1    1    0    0    0  0.15582321685E+01 -0.13149697629E+02  0.26940045095E+02  0.30018472062E+02  0.00000000000E+00 0.  1.
</event>
<event>
 5    1  0.9034917E-005  0.9118800E+02  0.7818608E-02  0.1130116E+00
         25   -1    0    0    0    0  0.00000000000E+00  0.00000000000E+00  0.99999998245E-14  0.12500000000E+03  0.12500000000E+03 0.  0.
        -13    1    3    3    0    0  0.33751346165E+02 -0.56261325424E+01  0.43027202362E+02  0.54974157951E+02  0.10566000000E+00 0.  1.
         23    2    1    0    0    0 -0.37561186234E+01 -0.37986546784E+01  0.29703585402E+02  0.94819854371E+02  0.89888617704E+02 0.  0.
         13    1    3    3    0    0 -0.37507464788E+02  0.18274778640E+01 -0.13323616960E+02  0.39845696419E+02  0.10566000000E+00 0. -1.
         22    1    1    0    0    0  0.37561186234E+01  0.37986546784E+01 -0.29703585402E+02  0.30180145629E+02  0.00000000000E+00 0.  1.
</event>
<event>
 5    1  0.9034917E-005  0.9118800E+02  0.7818608E-02  0.1130116E+00
         25   -1    0    0    0    0  0.00000000000E+00  0.00000000000E+00  0.99999998245E-14  0.12500000000E+03  0.12500000000E+03 0.  0.
        -13    1    3    3    0    0 -0.36150867176E+02  0.12038698960E+02 -0.46132703223E+01  0.38381100783E+02  0.10566000000E+00 0. -1.
         23    2    1    0    0    0  0.21604999964E+02  0.18380389811E+02 -0.49503151206E+00  0.96629948727E+02  0.92371463027E+02 0.  0.
         13    1    3    3    0    0  0.57755867140E+02  0.63416908512E+01  0.41182388103E+01  0.58248847944E+02  0.10566000000E+00 0.  1.
         22    1    1    0    0    0 -0.21604999964E+02 -0.18380389811E+02  0.49503151206E+00  0.28370051273E+02  0.00000000000E+00 0.  1.
</event>
<event>
 5    1  0.9034917E-005  0.9118800E+02  0.7818608E-02  0.1130116E+00
         25   -1    0    0    0    0  0.00000000000E+00  0.00000000000E+00  0.99999998245E-14  0.12500000000E+03  0.12500000000E+03 0.  0.
        -13    1    3    3    0    0 -0.94828734191E+01 -0.30991288519E+02 -0.38623853485E+02  0.50420214938E+02  0.10566000000E+00 0. -1.
         23    2    1    0    0    0  0.19277050583E+02 -0.55420893730E+00 -0.22682417373E+02  0.95227464256E+02  0.90453668052E+02 0.  0.
         13    1    3    3    0    0  0.28759924003E+02  0.30437079582E+02  0.15941436112E+02  0.44807249318E+02  0.10566000000E+00 0.  1.
         22    1    1    0    0    0 -0.19277050583E+02  0.55420893730E+00  0.22682417373E+02  0.29772535744E+02  0.00000000000E+00 0. -1.
</event>
<event>
 5    1  0.9034917E-005  0.9118800E+02  0.7818608E-02  0.1130116E+00
         25   -1    0    0    0    0  0.00000000000E+00  0.00000000000E+00  0.99999998245E-14  0.12500000000E+03  0.12500000000E+03 0.  0.
        -13    1    3    3    0    0 -0.37795196024E+02 -0.37034161228E+02 -0.14774156952E+02  0.54938991782E+02  0.10566000000E+00 0.  1.
         23    2    1    0    0    0 -0.28656243473E+02  0.16007215716E+01 -0.79080046552E+01  0.95229559339E+02  0.90456563249E+02 0.  0.
         13    1    3    3    0    0  0.91389525511E+01  0.38634882800E+02  0.68661522967E+01  0.40290567557E+02  0.10566000000E+00 0. -1.
         22    1    1    0    0    0  0.28656243473E+02 -0.16007215716E+01  0.79080046552E+01  0.29770440661E+02  0.00000000000E+00 0.  1.
</event>
<event>
 5    1  0.9034917E-005  0.9118800E+02  0.7818608E-02  0.1130116E+00
         25   -1    0    0    0    0  0.00000000000E+00  0.00000000000E+00  0.99999998245E-14  0.12500000000E+03  0.12500000000E+03 0.  0.
        -13    1    3    3    0    0 -0.47704017121E+02  0.23485165360E+01  0.36192377431E+02  0.59925688378E+02  0.10566000000E+00 0.  1.
         23    2    1    0    0    0 -0.26092591222E+02  0.90095698753E+01  0.76230485673E+01  0.96362497744E+02  0.92008828032E+02 0.  0.
         13    1    3    3    0    0  0.21611425899E+02  0.66610533394E+01 -0.28569328864E+02  0.36436809366E+02  0.10566000000E+00 0. -1.
         22    1    1    0    0    0  0.26092591222E+02 -0.90095698753E+01 -0.76230485673E+01  0.28637502256E+02  0.00000000000E+00 0.  1.
</event>
<event>
 5    1  0.9034917E-005  0.9118800E+02  0.7818608E-02  0.1130116E+00
         25   -1    0    0    0    0  0.00000000000E+00  0.00000000000E+00  0.99999998245E-14  0.12500000000E+03  0.12500000000E+03 0.  0.
        -13    1    3    3    0    0  0.19942477140E+02 -0.20832410708E+02 -0.33297264707E+02  0.44050093432E+02  0.10566000000E+00 0.  1.
         23    2    1    0    0    0  0.72287349374E+01  0.11719139182E+02  0.15626117039E+02  0.10417289349E+03  0.10206969860E+03 0.  0.
         13    1    3    3    0    0 -0.12713742202E+02  0.32551549890E+02  0.48923381746E+02  0.60122800056E+02  0.10566000000E+00 0. -1.
         22    1    1    0    0    0 -0.72287349374E+01 -0.11719139182E+02 -0.15626117039E+02  0.20827106512E+02  0.00000000000E+00 0. -1.
</event>
<event>
 5    1  0.9034917E-005  0.9118800E+02  0.7818608E-02  0.1130116E+00
         25   -1    0    0    0    0  0.00000000000E+00  0.00000000000E+00  0.99999998245E-14  0.12500000000E+03  0.12500000000E+03 0.  0.
        -13    1    3    3    0    0  0.51337551141E+01 -0.11916902703E+01  0.26088804302E+02  0.26616018508E+02  0.10566000000E+00 0.  1.
         23    2    1    0    0    0  0.12798173608E+02 -0.45242564373E+02  0.82013452817E+00  0.77974948172E+02  0.62199172366E+02 0.  0.
         13    1    3    3    0    0  0.76644184942E+01 -0.44050874103E+02 -0.25268669774E+02  0.51358929664E+02  0.10566000000E+00 0. -1.
         22    1    1    0    0    0 -0.12798173608E+02  0.45242564373E+02 -0.82013452817E+00  0.47025051828E+02  0.00000000000E+00 0. -1.
</event>
<event>
 5    1  0.9034917E-005  0.9118800E+02  0.7818608E-02  0.1130116E+00
         25   -1    0    0    0    0  0.00000000000E+00  0.00000000000E+00  0.99999998245E-14  0.12500000000E+03  0.12500000000E+03 0.  0.
        -13    1    3    3    0    0 -0.41588528491E+02 -0.31651710298E+02  0.10310818099E+02  0.53270635445E+02  0.10566000000E+00 0.  1.
         23    2    1    0    0    0 -0.30788689263E+01 -0.27927396290E+02 -0.75836232786E+01  0.95897934103E+02  0.91375508348E+02 0.  0.
         13    1    3    3    0    0  0.38509659565E+02  0.37243140073E+01 -0.17894441378E+02  0.42627298658E+02  0.10566000000E+00 0. -1.
         22    1    1    0    0    0  0.30788689263E+01  0.27927396290E+02  0.75836232786E+01  0.29102065897E+02  0.00000000000E+00 0.  1.
</event>
<event>
 5    1  0.9034917E-005  0.9118800E+02  0.7818608E-02  0.1130116E+00
         25   -1    0    0    0    0  0.00000000000E+00  0.00000000000E+00  0.99999998245E-14  0.12500000000E+03  0.12500000000E+03 0.  0.
        -13    1    3    3    0    0 -0.26472998759E+02 -0.13339248958E+02  0.13681869397E+02  0.32649041950E+02  0.10566000000E+00 0.  1.
         23    2    1    0    0    0  0.28272520036E+02  0.87414087827E+00 -0.11376373725E+02  0.94511946757E+02  0.89459413642E+02 0.  0.
         13    1    3    3    0    0  0.54745518794E+02  0.14213389836E+02 -0.25058243122E+02  0.61862904806E+02  0.10566000000E+00 0. -1.
         22    1    1    0    0    0 -0.28272520036E+02 -0.87414087827E+00  0.11376373725E+02  0.30488053243E+02  0.00000000000E+00 0. -1.
</event>
<event>
 5    1  0.9034917E-005  0.9118800E+02  0.7818608E-02  0.1130116E+00
         25   -1    0    0    0    0  0.00000000000E+00  0.00000000000E+00  0.99999998245E-14  0.12500000000E+03  0.12500000000E+03 0.  0.
        -13    1    3    3    0    0  0.32659678110E+02  0.31063974185E+02  0.71961465574E+01  0.45644504113E+02  0.10566000000E+00 0.  1.
         23    2    1    0    0    0 -0.16088991976E+01  0.13126596627E+02 -0.25488903424E+02  0.96284493851E+02  0.91902793552E+02 0.  0.
         13    1    3    3    0    0 -0.34268577308E+02 -0.17937377558E+02 -0.32685049981E+02  0.50639989738E+02  0.10566000000E+00 0. -1.
         22    1    1    0    0    0  0.16088991976E+01 -0.13126596627E+02  0.25488903424E+02  0.28715506149E+02  0.00000000000E+00 0. -1.
</event>
<event>
 5    1  0.9034917E-005  0.9118800E+02  0.7818608E-02  0.1130116E+00
         25   -1    0    0    0    0  0.00000000000E+00  0.00000000000E+00  0.99999998245E-14  0.12500000000E+03  0.12500000000E+03 0.  0.
        -13    1    3    3    0    0  0.24793029323E+02 -0.26102683587E+01  0.28438224825E+02  0.37818667337E+02  0.10566000000E+00 0.  1.
         23    2    1    0    0    0 -0.28312175686E+02 -0.67128853669E+01  0.85715261568E+01  0.94666632520E+02  0.89675292751E+02 0.  0.
         13    1    3    3    0    0 -0.53105205009E+02 -0.41026170082E+01 -0.19866698668E+02  0.56847965183E+02  0.10566000000E+00 0. -1.
         22    1    1    0    0    0  0.28312175686E+02  0.67128853669E+01 -0.85715261568E+01  0.30333367480E+02  0.00000000000E+00 0. -1.
</event>
<event>
 5    1  0.9034917E-005  0.9118800E+02  0.7818608E-02  0.1130116E+00
         25   -1    0    0    0    0  0.00000000000E+00  0.00000000000E+00  0.99999998245E-14  0.12500000000E+03  0.12500000000E+03 0.  0.
        -13    1    3    3    0    0  0.55650252913E+02 -0.26226080341E+02  0.64474180050E+01  0.61857402971E+02  0.10566000000E+00 0.  1.
         23    2    1    0    0    0  0.23188403063E+02 -0.17561584372E+02  0.49871570150E+01  0.95487578593E+02  0.90812414615E+02 0.  0.
         13    1    3    3    0    0 -0.32461849850E+02  0.86644959698E+01 -0.14602609900E+01  0.33630175621E+02  0.10566000000E+00 0. -1.
         22    1    1    0    0    0 -0.23188403063E+02  0.17561584372E+02 -0.49871570150E+01  0.29512421407E+02  0.00000000000E+00 0.  1.
</event>
<event>
 5    1  0.9034917E-005  0.9118800E+02  0.7818608E-02  0.1130116E+00
         25   -1    0    0    0    0  0.00000000000E+00  0.00000000000E+00  0.99999998245E-14  0.12500000000E+03  0.12500000000E+03 0.  0.
        -13    1    3    3    0    0 -0.90249004242E+01  0.29500091744E+02 -0.13402286732E+02  0.33635348880E+02  0.10566000000E+00 0.  1.
         23    2    1    0    0    0  0.16281177462E+02 -0.23382964559E+02  0.69111602411E+01  0.95680997510E+02  0.91078259631E+02 0.  0.
         13    1    3    3    0    0  0.25306077886E+02 -0.52883056303E+02  0.20313446973E+02  0.62045648630E+02  0.10566000000E+00 0. -1.
         22    1    1    0    0    0 -0.16281177462E+02  0.23382964559E+02 -0.69111602411E+01  0.29319002490E+02  0.00000000000E+00 0. -1.
</event>
<event>
 5    1  0.9034917E-005  0.9118800E+02  0.7818608E-02  0.1130116E+00
         25   -1    0    0    0    0  0.00000000000E+00  0.00000000000E+00  0.99999998245E-14  0.12500000000E+03  0.12500000000E+03 0.  0.
        -13    1    3    3    0    0  0.20866551080E+02 -0.34129691226E+02  0.13355251325E+01  0.40025536455E+02  0.10566000000E+00 0.  1.
         23    2    1    0    0    0  0.39669562307E+01  0.11596697155E+02  0.27167182893E+02  0.95196041320E+02  0.90410233547E+02 0.  0.
         13    1    3    3    0    0 -0.16899594849E+02  0.45726388380E+02  0.25831657761E+02  0.55170504865E+02  0.10566000000E+00 0. -1.
         22    1    1    0    0    0 -0.39669562307E+01 -0.11596697155E+02 -0.27167182893E+02  0.29803958680E+02  0.00000000000E+00 0. -1.
</event>
<event>
 5    1  0.9034917E-005  0.9118800E+02  0.7818608E-02  0.1130116E+00
         25   -1    0    0    0    0  0.00000000000E+00  0.00000000000E+00  0.99999998245E-14  0.12500000000E+03  0.12500000000E+03 0.  0.
        -13    1    3    3    0    0  0.41585774027E+02 -0.42852106922E+02  0.11139454520E+02  0.60743545173E+02  0.10566000000E+00 0.  1.
         23    2    1    0    0    0  0.11723962413E+02 -0.26865098879E+02  0.33726750394E+01  0.95494750139E+02  0.90822285452E+02 0.  0.
         13    1    3    3    0    0 -0.29861811614E+02  0.15987008043E+02 -0.77667794809E+01  0.34751204966E+02  0.10566000000E+00 0. -1.
         22    1    1    0    0    0 -0.11723962413E+02  0.26865098879E+02 -0.33726750394E+01  0.29505249861E+02  0.00000000000E+00 0.  1.
</event>
<event>
 5    1  0.9034917E-005  0.9118800E+02  0.7818608E-02  0.1130116E+00
         25   -1    0    0    0    0  0.00000000000E+00  0.00000000000E+00  0.99999998245E-14  0.12500000000E+03  0.12500000000E+03 0.  0.
        -13    1    3    3    0    0  0.16222330402E+02  0.11318834600E+02  0.36335033289E+02  0.41370591348E+02  0.10566000000E+00 0.  1.
         23    2    1    0    0    0 -0.25592366018E+02 -0.87321811566E+01  0.45823472336E+01  0.97573405382E+02  0.93639475359E+02 0.  0.
         13    1    3    3    0    0 -0.41814696420E+02 -0.20051015756E+02 -0.31752686056E+02  0.56202814034E+02  0.10566000000E+00 0. -1.
         22    1    1    0    0    0  0.25592366018E+02  0.87321811566E+01 -0.45823472336E+01  0.27426594618E+02  0.00000000000E+00 0. -1.
</event>
<event>
 5    1  0.9034917E-005  0.9118800E+02  0.7818608E-02  0.1130116E+00
         25   -1    0    0    0    0  0.00000000000E+00  0.00000000000E+00  0.99999998245E-14  0.12500000000E+03  0.12500000000E+03 0.  0.
        -13    1    3    3    0    0 -0.27970729730E+02 -0.24690831942E+02  0.24668561277E+01  0.37391114543E+02  0.10566000000E+00 0.  1.
         23    2    1    0    0    0 -0.86896877063E+00  0.27721966801E+02 -0.48340002842E+01  0.96846312697E+02  0.92663791063E+02 0.  0.
         13    1    3    3    0    0  0.27101760959E+02  0.52412798742E+02 -0.73008564119E+01  0.59455198154E+02  0.10566000000E+00 0. -1.
         22    1    1    0    0    0  0.86896877063E+00 -0.27721966801E+02  0.48340002842E+01  0.28153687303E+02  0.00000000000E+00 0. -1.
</event>
<event>
 5    1  0.9034917E-005  0.9118800E+02  0.7818608E-02  0.1130116E+00
         25   -1    0    0    0    0  0.00000000000E+00  0.00000000000E+00  0.99999998245E-14  0.12500000000E+03  0.12500000000E+03 0.  0.
        -13    1    3    3    0    0  0.42092823696E+02 -0.87301043442E+01 -0.42953751783E+02  0.60770523158E+02  0.10566000000E+00 0.  1.
         23    2    1    0    0    0  0.27795688534E+02 -0.11510289933E+02 -0.17232524247E+02  0.90329451009E+02  0.83410807167E+02 0.  0.
         13    1    3    3    0    0 -0.14297135163E+02 -0.27801855885E+01  0.25721227536E+02  0.29558927852E+02  0.10566000000E+00 0. -1.
         22    1    1    0    0    0 -0.27795688534E+02  0.11510289933E+02  0.17232524247E+02  0.34670548991E+02  0.00000000000E+00 0.  1.
</event>
<event>
 5    1  0.9034917E-005  0.9118800E+02  0.7818608E-02  0.1130116E+00
         25   -1    0    0    0    0  0.00000000000E+00  0.00000000000E+00  0.99999998245E-14  0.12500000000E+03  0.12500000000E+03 0.  0.
        -13    1    3    3    0    0 -0.36990972570E+02  0.48650767885E+02 -0.12722094579E+02  0.62426693985E+02  0.10566000000E+00 0.  1.
         23    2    1    0    0    0 -0.17842198079E+02  0.22733452859E+02 -0.81514163232E+01  0.94973353513E+02  0.90101822280E+02 0.  0.
         13    1    3    3    0    0  0.19148774491E+02 -0.25917315026E+02  0.45706782558E+01  0.32546659527E+02  0.10566000000E+00 0. -1.
         22    1    1    0    0    0  0.17842198079E+02 -0.22733452859E+02  0.81514163232E+01  0.30026646487E+02  0.00000000000E+00 0.  1.
</event>
<event>
 5    1  0.9034917E-005  0.9118800E+02  0.7818608E-02  0.1130116E+00
         25   -1    0    0    0    0  0.00000000000E+00  0.00000000000E+00  0.99999998245E-14  0.12500000000E+03  0.12500000000E+03 0.  0.
        -13    1    3    3    0    0  0.26646703885E+02 -0.16547765184E+02 -0.16603482670E+02  0.35490310809E+02  0.10566000000E+00 0. -1.
         23    2    1    0    0    0 -0.23579168891E-01  0.16492027783E+02  0.25074400297E+02  0.94988117576E+02  0.90122302423E+02 0.  0.
         13    1    3    3    0    0 -0.26670283054E+02  0.33039792967E+02  0.41677882967E+02  0.59497806767E+02  0.10566000000E+00 0.  1.
         22    1    1    0    0    0  0.23579168891E-01 -0.16492027783E+02 -0.25074400297E+02  0.30011882424E+02  0.00000000000E+00 0.  1.
</event>
<event>
 5    1  0.9034917E-005  0.9118800E+02  0.7818608E-02  0.1130116E+00
         25   -1    0    0    0    0  0.00000000000E+00  0.00000000000E+00  0.99999998245E-14  0.12500000000E+03  0.12500000000E+03 0.  0.
        -13    1    3    3    0    0  0.29492128948E+02  0.87937236478E+01 -0.38735492865E+02  0.49472869504E+02  0.10566000000E+00 0.  1.
         23    2    1    0    0    0  0.28457016688E+02 -0.20316429203E+02 -0.15411000836E+02  0.86789294156E+02  0.77925114944E+02 0.  0.
         13    1    3    3    0    0 -0.10351122603E+01 -0.29110152851E+02  0.23324492028E+02  0.37316424652E+02  0.10566000000E+00 0. -1.
         22    1    1    0    0    0 -0.28457016688E+02  0.20316429203E+02  0.15411000836E+02  0.38210705844E+02  0.00000000000E+00 0.  1.
</event>
<event>
 5    1  0.9034917E-005  0.9118800E+02  0.7818608E-02  0.1130116E+00
         25   -1    0    0    0    0  0.00000000000E+00  0.00000000000E+00  0.99999998245E-14  0.12500000000E+03  0.12500000000E+03 0.  0.
        -13    1    3    3    0    0  0.22457037354E+01  0.51331425681E+01 -0.46554583301E+02  0.46890646490E+02  0.10566000000E+00 0. -1.
         23    2    1    0    0    0 -0.26511457134E+02  0.76085683178E+01 -0.58262196774E+01  0.96809708995E+02  0.92614400872E+02 0.  0.
         13    1    3    3    0    0 -0.28757160869E+02  0.24754257497E+01  0.40728363624E+02  0.49919062505E+02  0.10566000000E+00 0.  1.
         22    1    1    0    0    0  0.26511457134E+02 -0.76085683178E+01  0.58262196774E+01  0.28190291005E+02  0.00000000000E+00 0.  1.
</event>
<event>
 5    1  0.9034917E-005  0.9118800E+02  0.7818608E-02  0.1130116E+00
         25   -1    0    0    0    0  0.00000000000E+00  0.00000000000E+00  0.99999998245E-14  0.12500000000E+03  0.12500000000E+03 0.  0.
        -13    1    3    3    0    0 -0.41680924049E+02  0.13187453157E+02  0.37286199281E+02  0.57458508258E+02  0.10566000000E+00 0. -1.
         23    2    1    0    0    0 -0.26641545388E+02  0.11517943012E+02  0.19366276067E+01  0.95910732591E+02  0.91393014765E+02 0.  0.
         13    1    3    3    0    0  0.15039378661E+02 -0.16695101453E+01 -0.35349571674E+02  0.38452224334E+02  0.10566000000E+00 0.  1.
         22    1    1    0    0    0  0.26641545388E+02 -0.11517943012E+02 -0.19366276067E+01  0.29089267409E+02  0.00000000000E+00 0. -1.
</event>
<event>
 5    1  0.9034917E-005  0.9118800E+02  0.7818608E-02  0.1130116E+00
         25   -1    0    0    0    0  0.00000000000E+00  0.00000000000E+00  0.99999998245E-14  0.12500000000E+03  0.12500000000E+03 0.  0.
        -13    1    3    3    0    0 -0.25397900977E+02  0.21677299856E+02  0.16055685857E+02  0.37050707354E+02  0.10566000000E+00 0. -1.
         23    2    1    0    0    0  0.77042909295E+01 -0.25844738391E+02  0.13040985775E+02  0.95043800121E+02  0.90199501275E+02 0.  0.
         13    1    3    3    0    0  0.33102191906E+02 -0.47522038246E+02 -0.30147000822E+01  0.57993092767E+02  0.10566000000E+00 0.  1.
         22    1    1    0    0    0 -0.77042909295E+01  0.25844738391E+02 -0.13040985775E+02  0.29956199879E+02  0.00000000000E+00 0.  1.
</event>
<event>
 5    1  0.9034917E-005  0.9118800E+02  0.7818608E-02  0.1130116E+00
         25   -1    0    0    0    0  0.00000000000E+00  0.00000000000E+00  0.99999998245E-14  0.12500000000E+03  0.12500000000E+03 0.  0.
        -13    1    3    3    0    0 -0.14515713130E+02  0.59475000921E+02  0.50641851468E+01  0.61429950329E+02  0.10566000000E+00 0. -1.
         23    2    1    0    0    0 -0.13927468043E+02  0.25823471559E+02 -0.10674033330E+01  0.95640752746E+02  0.91023009105E+02 0.  0.
         13    1    3    3    0    0  0.58824508742E+00 -0.33651529362E+02 -0.61315884798E+01  0.34210802417E+02  0.10566000000E+00 0.  1.
         22    1    1    0    0    0  0.13927468043E+02 -0.25823471559E+02  0.10674033330E+01  0.29359247254E+02  0.00000000000E+00 0. -1.
</event>
<event>
 5    1  0.9034917E-005  0.9118800E+02  0.7818608E-02  0.1130116E+00
         25   -1    0    0    0    0  0.00000000000E+00  0.00000000000E+00  0.99999998245E-14  0.12500000000E+03  0.12500000000E+03 0.  0.
        -13    1    3    3    0    0 -0.12099262914E+02  0.21370093139E+02 -0.32379829647E+02  0.40639113867E+02  0.10566000000E+00 0.  1.
         23    2    1    0    0    0  0.23273354957E+02  0.17873904682E+02  0.81468000131E+01  0.94545183140E+02  0.89505842183E+02 0.  0.
         13    1    3    3    0    0  0.35372617871E+02 -0.34961884568E+01  0.40526629660E+02  0.53906069273E+02  0.10566000000E+00 0. -1.
         22    1    1    0    0    0 -0.23273354957E+02 -0.17873904682E+02 -0.81468000131E+01  0.30454816860E+02  0.00000000000E+00 0.  1.
</event>
<event>
 5    1  0.9034917E-005  0.9118800E+02  0.7818608E-02  0.1130116E+00
         25   -1    0    0    0    0  0.00000000000E+00  0.00000000000E+00  0.99999998245E-14  0.12500000000E+03  0.12500000000E+03 0.  0.
        -13    1    3    3    0    0  0.32569223697E+01 -0.23429294434E+02 -0.31617166846E+02  0.39486653244E+02  0.10566000000E+00 0.  1.
         23    2    1    0    0    0  0.13120398929E+02  0.25561057944E+02 -0.59803725252E+01  0.95652471879E+02  0.91039101323E+02 0.  0.
         13    1    3    3    0    0  0.98634765593E+01  0.48990352378E+02  0.25636794321E+02  0.56165818635E+02  0.10566000000E+00 0. -1.
         22    1    1    0    0    0 -0.13120398929E+02 -0.25561057944E+02  0.59803725252E+01  0.29347528121E+02  0.00000000000E+00 0. -1.
</event>
<event>
 5    1  0.9034917E-005  0.9118800E+02  0.7818608E-02  0.1130116E+00
         25   -1    0    0    0    0  0.00000000000E+00  0.00000000000E+00  0.99999998245E-14  0.12500000000E+03  0.12500000000E+03 0.  0.
        -13    1    3    3    0    0  0.17125178382E+02 -0.43423148987E+01  0.39394758189E+02  0.43175057268E+02  0.10566000000E+00 0.  1.
         23    2    1    0    0    0 -0.13026544531E+02  0.24137810101E+02  0.48646551946E+01  0.97143409952E+02  0.93063701238E+02 0.  0.
         13    1    3    3    0    0 -0.30151722913E+02  0.28480125000E+02 -0.34530102994E+02  0.53968352685E+02  0.10566000000E+00 0. -1.
         22    1    1    0    0    0  0.13026544531E+02 -0.24137810101E+02 -0.48646551946E+01  0.27856590048E+02  0.00000000000E+00 0.  1.
</event>
<event>
 5    1  0.9034917E-005  0.9118800E+02  0.7818608E-02  0.1130116E+00
         25   -1    0    0    0    0  0.00000000000E+00  0.00000000000E+00  0.99999998245E-14  0.12500000000E+03  0.12500000000E+03 0.  0.
        -13    1    3    3    0    0 -0.38695473598E+02 -0.10419117438E+02 -0.47007902601E+02  0.61770962079E+02  0.10566000000E+00 0.  1.
         23    2    1    0    0    0 -0.22370632280E+02 -0.76094795774E+01 -0.17553189863E+02  0.95564242113E+02  0.90917877935E+02 0.  0.
         13    1    3    3    0    0  0.16324841319E+02  0.28096378602E+01  0.29454712737E+02  0.33793280034E+02  0.10566000000E+00 0. -1.
         22    1    1    0    0    0  0.22370632280E+02  0.76094795774E+01  0.17553189863E+02  0.29435757887E+02  0.00000000000E+00 0.  1.
</event>
<event>
 5    1  0.9034917E-005  0.9118800E+02  0.7818608E-02  0.1130116E+00
         25   -1    0    0    0    0  0.00000000000E+00  0.00000000000E+00  0.99999998245E-14  0.12500000000E+03  0.12500000000E+03 0.  0.
        -13    1    3    3    0    0  0.60864727130E+01 -0.48673745650E+02 -0.70610984187E+01  0.49558540542E+02  0.10566000000E+00 0.  1.
         23    2    1    0    0    0  0.28296593598E+02 -0.91439612216E+01 -0.17397070393E+01  0.95211817500E+02  0.90432042855E+02 0.  0.
         13    1    3    3    0    0  0.22210120885E+02  0.39529784429E+02  0.53213913794E+01  0.45653276958E+02  0.10566000000E+00 0. -1.
         22    1    1    0    0    0 -0.28296593598E+02  0.91439612216E+01  0.17397070393E+01  0.29788182500E+02  0.00000000000E+00 0. -1.
</event>
<event>
 5    1  0.9034917E-005  0.9118800E+02  0.7818608E-02  0.1130116E+00
         25   -1    0    0    0    0  0.00000000000E+00  0.00000000000E+00  0.99999998245E-14  0.12500000000E+03  0.12500000000E+03 0.  0.
        -13    1    3    3    0    0 -0.16881141281E+01  0.16251600404E+01 -0.58460985549E+02  0.58508023978E+02  0.10566000000E+00 0. -1.
         23    2    1    0    0    0  0.30921562349E+01 -0.14222881314E+02 -0.21157717275E+02  0.99319252671E+02  0.95941717557E+02 0.  0.
         13    1    3    3    0    0  0.47802703630E+01 -0.15848041355E+02  0.37303268273E+02  0.40811228693E+02  0.10566000000E+00 0.  1.
         22    1    1    0    0    0 -0.30921562349E+01  0.14222881314E+02  0.21157717275E+02  0.25680747329E+02  0.00000000000E+00 0. -1.
</event>
<event>
 5    1  0.9034917E-005  0.9118800E+02  0.7818608E-02  0.1130116E+00
         25   -1    0    0    0    0  0.00000000000E+00  0.00000000000E+00  0.99999998245E-14  0.12500000000E+03  0.12500000000E+03 0.  0.
        -13    1    3    3    0    0 -0.36708076952E+02 -0.23450638362E+02  0.41092055254E+02  0.59883082102E+02  0.10566000000E+00 0.  1.
         23    2    1    0    0    0 -0.63094794626E+01 -0.18386383294E+02  0.19139285049E+02  0.97720321595E+02  0.93835389905E+02 0.  0.
         13    1    3    3    0    0  0.30398597489E+02  0.50642550682E+01 -0.21952770205E+02  0.37837239492E+02  0.10566000000E+00 0. -1.
         22    1    1    0    0    0  0.63094794626E+01  0.18386383294E+02 -0.19139285049E+02  0.27279678405E+02  0.00000000000E+00 0.  1.
</event>
<event>
 5    1  0.9034917E-005  0.9118800E+02  0.7818608E-02  0.1130116E+00
         25   -1    0    0    0    0  0.00000000000E+00  0.00000000000E+00  0.99999998245E-14  0.12500000000E+03  0.12500000000E+03 0.  0.
        -13    1    3    3    0    0  0.13621215937E+02  0.37265040777E+02 -0.39323912744E+02  0.55862349264E+02  0.10566000000E+00 0.  1.
         23    2    1    0    0    0  0.25079318591E+02  0.95902551662E+01 -0.16984860673E+02  0.93228460736E+02  0.87647676432E+02 0.  0.
         13    1    3    3    0    0  0.11458102653E+02 -0.27674785611E+02  0.22339052071E+02  0.37366111472E+02  0.10566000000E+00 0. -1.
         22    1    1    0    0    0 -0.25079318591E+02 -0.95902551662E+01  0.16984860673E+02  0.31771539264E+02  0.00000000000E+00 0.  1.
</event>
<event>
 5    1  0.9034917E-005  0.9118800E+02  0.7818608E-02  0.1130116E+00
         25   -1    0    0    0    0  0.00000000000E+00  0.00000000000E+00  0.99999998245E-14  0.12500000000E+03  0.12500000000E+03 0.  0.
        -13    1    3    3    0    0 -0.45309127966E+02 -0.27315931740E+02  0.17223629186E+02  0.55639390455E+02  0.10566000000E+00 0. -1.
         23    2    1    0    0    0 -0.15344112274E+02 -0.27786660992E+02 -0.48899295703E+01  0.92883777904E+02  0.87154715741E+02 0.  0.
         13    1    3    3    0    0  0.29965015692E+02 -0.47072925148E+00 -0.22113558757E+02  0.37244387448E+02  0.10566000000E+00 0.  1.
         22    1    1    0    0    0  0.15344112274E+02  0.27786660992E+02  0.48899295703E+01  0.32116222096E+02  0.00000000000E+00 0. -1.
</event>
<event>
 5    1  0.9034917E-005  0.9118800E+02  0.7818608E-02  0.1130116E+00
         25   -1    0    0    0    0  0.00000000000E+00  0.00000000000E+00  0.99999998245E-14  0.12500000000E+03  0.12500000000E+03 0.  0.
        -13    1    3    3    0    0  0.21101684781E+02 -0.40364999999E+02  0.30111622572E+02  0.54601605319E+02  0.10566000000E+00 0.  1.
         23    2    1    0    0    0 -0.12536499805E+02 -0.21078439967E+02  0.15210064039E+02  0.96141543581E+02  0.91708156100E+02 0.  0.
         13    1    3    3    0    0 -0.33638184586E+02  0.19286560032E+02 -0.14901558532E+02  0.41539938262E+02  0.10566000000E+00 0. -1.
         22    1    1    0    0    0  0.12536499805E+02  0.21078439967E+02 -0.15210064039E+02  0.28858456419E+02  0.00000000000E+00 0.  1.
</event>
<event>
 5    1  0.9034917E-005  0.9118800E+02  0.7818608E-02  0.1130116E+00
         25   -1    0    0    0    0  0.00000000000E+00  0.00000000000E+00  0.99999998245E-14  0.12500000000E+03  0.12500000000E+03 0.  0.
        -13    1    3    3    0    0 -0.10962367176E+02  0.40247027377E+02 -0.38107071058E+02  0.56499174644E+02  0.10566000000E+00 0.  1.
         23    2    1    0    0    0  0.14363439743E+02  0.19215774875E+02 -0.16766874205E+02  0.95730861374E+02  0.91146669405E+02 0.  0.
         13    1    3    3    0    0  0.25325806919E+02 -0.21031252502E+02  0.21340196853E+02  0.39231686730E+02  0.10566000000E+00 0. -1.
         22    1    1    0    0    0 -0.14363439743E+02 -0.19215774875E+02  0.16766874205E+02  0.29269138626E+02  0.00000000000E+00 0. -1.
</event>
<event>
 5    1  0.9034917E-005  0.9118800E+02  0.7818608E-02  0.1130116E+00
         25   -1    0    0    0    0  0.00000000000E+00  0.00000000000E+00  0.99999998245E-14  0.12500000000E+03  0.12500000000E+03 0.  0.
        -13    1    3    3    0    0 -0.14884989428E+02  0.34150597070E+02  0.89586534200E+01  0.38315725566E+02  0.10566000000E+00 0. -1.
         23    2    1    0    0    0  0.27641407354E+02  0.24344417655E+00 -0.95288182583E+01  0.95761240741E+02  0.91188322637E+02 0.  0.
         13    1    3    3    0    0  0.42526396782E+02 -0.33907152894E+02 -0.18487471678E+02  0.57445515175E+02  0.10566000000E+00 0.  1.
         22    1    1    0    0    0 -0.27641407354E+02 -0.24344417655E+00  0.95288182583E+01  0.29238759259E+02  0.00000000000E+00 0.  1.
</event>
<event>
 5    1  0.9034917E-005  0.9118800E+02  0.7818608E-02  0.1130116E+00
         25   -1    0    0    0    0  0.00000000000E+00  0.00000000000E+00  0.99999998245E-14  0.12500000000E+03  0.12500000000E+03 0.  0.
        -13    1    3    3    0    0 -0.23333985586E+02  0.75862472918E+01  0.26058931867E+02  0.35792528904E+02  0.10566000000E+00 0. -1.
         23    2    1    0    0    0  0.70363927066E+01  0.10674821056E+02 -0.25934447152E+02  0.96085329399E+02  0.91631503041E+02 0.  0.
         13    1    3    3    0    0  0.30370378292E+02  0.30885737640E+01 -0.51993379020E+02  0.60292800494E+02  0.10566000000E+00 0.  1.
         22    1    1    0    0    0 -0.70363927066E+01 -0.10674821056E+02  0.25934447152E+02  0.28914670601E+02  0.00000000000E+00 0.  1.
</event>
<event>
 5    1  0.9034917E-005  0.9118800E+02  0.7818608E-02  0.1130116E+00
         25   -1    0    0    0    0  0.00000000000E+00  0.00000000000E+00  0.99999998245E-14  0.12500000000E+03  0.12500000000E+03 0.  0.
        -13    1    3    3    0    0  0.27602255510E+02 -0.14940524423E+02  0.16248379754E+02  0.35342959524E+02  0.10566000000E+00 0. -1.
         23    2    1    0    0    0 -0.17799479177E+02  0.21586727116E+02 -0.33488733837E+01  0.96821582736E+02  0.92630425261E+02 0.  0.
         13    1    3    3    0    0 -0.45401734687E+02  0.36527251538E+02 -0.19597253137E+02  0.61478623212E+02  0.10566000000E+00 0.  1.
         22    1    1    0    0    0  0.17799479177E+02 -0.21586727116E+02  0.33488733837E+01  0.28178417264E+02  0.00000000000E+00 0.  1.
</event>
<event>
 5    1  0.9034917E-005  0.9118800E+02  0.7818608E-02  0.1130116E+00
         25   -1    0    0    0    0  0.00000000000E+00  0.00000000000E+00  0.99999998245E-14  0.12500000000E+03  0.12500000000E+03 0.  0.
        -13    1    3    3    0    0  0.47448605196E+00 -0.17453862823E+02  0.27349503097E+02  0.32447942125E+02  0.10566000000E+00 0. -1.
         23    2    1    0    0    0  0.38078519747E+00  0.43958751283E+01 -0.30446021107E+02  0.94235915148E+02  0.89072884691E+02 0.  0.
         13    1    3    3    0    0 -0.93700854496E-01  0.21849737951E+02 -0.57795524204E+02  0.61787973024E+02  0.10566000000E+00 0.  1.
         22    1    1    0    0    0 -0.38078519747E+00 -0.43958751283E+01  0.30446021107E+02  0.30764084852E+02  0.00000000000E+00 0.  1.
</event>
<event>
 5    1  0.9034917E-005  0.9118800E+02  0.7818608E-02  0.1130116E+00
         25   -1    0    0    0    0  0.00000000000E+00  0.00000000000E+00  0.99999998245E-14  0.12500000000E+03  0.12500000000E+03 0.  0.
        -13    1    3    3    0    0  0.24971412081E+02  0.33068901612E+02 -0.25966680679E+02  0.48901976899E+02  0.10566000000E+00 0. -1.
         23    2    1    0    0    0 -0.14140007792E+02  0.26398843759E+02 -0.26180456922E+01  0.94938514085E+02  0.90053475897E+02 0.  0.
         13    1    3    3    0    0 -0.39111419873E+02 -0.66700578525E+01  0.23348634987E+02  0.46036537186E+02  0.10566000000E+00 0.  1.
         22    1    1    0    0    0  0.14140007792E+02 -0.26398843759E+02  0.26180456922E+01  0.30061485915E+02  0.00000000000E+00 0.  1.
</event>
<event>
 5    1  0.9034917E-005  0.9118800E+02  0.7818608E-02  0.1130116E+00
         25   -1    0    0    0    0  0.00000000000E+00  0.00000000000E+00  0.99999998245E-14  0.12500000000E+03  0.12500000000E+03 0.  0.
        -13    1    3    3    0    0  0.31493142701E+02 -0.27511824331E+02 -0.31024116837E+02  0.52069429656E+02  0.10566000000E+00 0.  1.
         23    2    1    0    0    0 -0.10421006373E+02 -0.85376353201E+01 -0.22372134468E+02  0.98884851305E+02  0.95374067892E+02 0.  0.
         13    1    3    3    0    0 -0.41914149074E+02  0.18974189010E+02  0.86519823690E+01  0.46815421649E+02  0.10566000000E+00 0. -1.
         22    1    1    0    0    0  0.10421006373E+02  0.85376353201E+01  0.22372134468E+02  0.26115148695E+02  0.00000000000E+00 0.  1.
</event>
<event>
 5    1  0.9034917E-005  0.9118800E+02  0.7818608E-02  0.1130116E+00
         25   -1    0    0    0    0  0.00000000000E+00  0.00000000000E+00  0.99999998245E-14  0.12500000000E+03  0.12500000000E+03 0.  0.
        -13    1    3    3    0    0  0.14957670330E+02 -0.29084013857E+02  0.21596229791E+01  0.32776316132E+02  0.10566000000E+00 0.  1.
         23    2    1    0    0    0 -0.17318332682E+02  0.24273848601E+02  0.15865674504E+01  0.95139297244E+02  0.90331745865E+02 0.  0.
         13    1    3    3    0    0 -0.32276003012E+02  0.53357862458E+02 -0.57305552867E+00  0.62362981112E+02  0.10566000000E+00 0. -1.
         22    1    1    0    0    0  0.17318332682E+02 -0.24273848601E+02 -0.15865674504E+01  0.29860702756E+02  0.00000000000E+00 0. -1.
</event>
<event>
 5    1  0.9034917E-005  0.9118800E+02  0.7818608E-02  0.1130116E+00
         25   -1    0    0    0    0  0.00000000000E+00  0.00000000000E+00  0.99999998245E-14  0.12500000000E+03  0.12500000000E+03 0.  0.
        -13    1    3    3    0    0  0.55578098360E+02 -0.21923477983E+02  0.10475830819E+02  0.60657382895E+02  0.10566000000E+00 0. -1.
         23    2    1    0    0    0  0.27613188361E+02 -0.11290057492E+02 -0.56387448579E+01  0.94639680285E+02  0.89637715673E+02 0.  0.
         13    1    3    3    0    0 -0.27964909999E+02  0.10633420491E+02 -0.16114575677E+02  0.33982297390E+02  0.10566000000E+00 0.  1.
         22    1    1    0    0    0 -0.27613188361E+02  0.11290057492E+02  0.56387448579E+01  0.30360319715E+02  0.00000000000E+00 0. -1.
</event>
<event>
 5    1  0.9034917E-005  0.9118800E+02  0.7818608E-02  0.1130116E+00
         25   -1    0    0    0    0  0.00000000000E+00  0.00000000000E+00  0.99999998245E-14  0.12500000000E+03  0.12500000000E+03 0.  0.
        -13    1    3    3    0    0 -0.15885550196E+02  0.31488902928E+02  0.46022305737E+02  0.57982458572E+02  0.10566000000E+00 0.  1.
         23    2    1    0    0    0 -0.25176911859E+01  0.99490495455E-01  0.28596756881E+02  0.96292454453E+02  0.91913620390E+02 0.  0.
         13    1    3    3    0    0  0.13367859010E+02 -0.31389412432E+02 -0.17425548857E+02  0.38309995881E+02  0.10566000000E+00 0. -1.
         22    1    1    0    0    0  0.25176911859E+01 -0.99490495455E-01 -0.28596756881E+02  0.28707545547E+02  0.00000000000E+00 0.  1.
</event>
<event>
 5    1  0.9034917E-005  0.9118800E+02  0.7818608E-02  0.1130116E+00
         25   -1    0    0    0    0  0.00000000000E+00  0.00000000000E+00  0.99999998245E-14  0.12500000000E+03  0.12500000000E+03 0.  0.
        -13    1    3    3    0    0 -0.15573316806E+01 -0.21439043107E+02 -0.49428428330E+02  0.53900264772E+02  0.10566000000E+00 0.  1.
         23    2    1    0    0    0 -0.22304580583E+02 -0.12006484062E+02 -0.13912260658E+02  0.96100156209E+02  0.91651726946E+02 0.  0.
         13    1    3    3    0    0 -0.20747248903E+02  0.94325590450E+01  0.35516167672E+02  0.42199891437E+02  0.10566000000E+00 0. -1.
         22    1    1    0    0    0  0.22304580583E+02  0.12006484062E+02  0.13912260658E+02  0.28899843791E+02  0.00000000000E+00 0.  1.
</event>
<event>
 5    1  0.9034917E-005  0.9118800E+02  0.7818608E-02  0.1130116E+00
         25   -1    0    0    0    0  0.00000000000E+00  0.00000000000E+00  0.99999998245E-14  0.12500000000E+03  0.12500000000E+03 0.  0.
        -13    1    3    3    0    0 -0.16169262450E+02 -0.27799223534E+02 -0.10319128228E+02  0.33774804939E+02  0.10566000000E+00 0. -1.
         23    2    1    0    0    0 -0.26607122045E+01  0.23895420361E+02 -0.26126020212E+02  0.89494515413E+02  0.82150038669E+02 0.  0.
         13    1    3    3    0    0  0.13508550245E+02  0.51694643894E+02 -0.15806891984E+02  0.55719710474E+02  0.10566000000E+00 0.  1.
         22    1    1    0    0    0  0.26607122045E+01 -0.23895420361E+02  0.26126020212E+02  0.35505484587E+02  0.00000000000E+00 0.  1.
</event>
<event>
 5    1  0.9034917E-005  0.9118800E+02  0.7818608E-02  0.1130116E+00
         25   -1    0    0    0    0  0.00000000000E+00  0.00000000000E+00  0.99999998245E-14  0.12500000000E+03  0.12500000000E+03 0.  0.
        -13    1    3    3    0    0  0.13149088772E+02 -0.57708266297E+02  0.23001358853E+01  0.59232122397E+02  0.10566000000E+00 0.  1.
         23    2    1    0    0    0 -0.65338019921E+01 -0.27538503925E+02  0.77264523394E+01  0.95661325308E+02  0.91051256592E+02 0.  0.
         13    1    3    3    0    0 -0.19682890764E+02  0.30169762372E+02  0.54263164540E+01  0.36429202911E+02  0.10566000000E+00 0. -1.
         22    1    1    0    0    0  0.65338019921E+01  0.27538503925E+02 -0.77264523394E+01  0.29338674692E+02  0.00000000000E+00 0.  1.
</event>
<event>
 5    1  0.9034917E-005  0.9118800E+02  0.7818608E-02  0.1130116E+00
         25   -1    0    0    0    0  0.00000000000E+00  0.00000000000E+00  0.99999998245E-14  0.12500000000E+03  0.12500000000E+03 0.  0.
        -13    1    3    3    0    0 -0.35695142373E+02 -0.36663877213E+02  0.24789676840E+02  0.56858792839E+02  0.10566000000E+00 0.  1.
         23    2    1    0    0    0 -0.27985042994E+02 -0.66600910473E+01  0.49275443642E+00  0.96229142330E+02  0.91827477274E+02 0.  0.
         13    1    3    3    0    0  0.77100993786E+01  0.30003786166E+02 -0.24296922403E+02  0.39370349490E+02  0.10566000000E+00 0. -1.
         22    1    1    0    0    0  0.27985042994E+02  0.66600910473E+01 -0.49275443642E+00  0.28770857670E+02  0.00000000000E+00 0.  1.
</event>
<event>
 5    1  0.9034917E-005  0.9118800E+02  0.7818608E-02  0.1130116E+00
         25   -1    0    0    0    0  0.00000000000E+00  0.00000000000E+00  0.99999998245E-14  0.12500000000E+03  0.12500000000E+03 0.  0.
        -13    1    3    3    0    0 -0.29696637369E+02 -0.37807443056E+02 -0.33150969672E+02  0.58397696665E+02  0.10566000000E+00 0.  1.
         23    2    1    0    0    0 -0.63927280214E+01 -0.33122972616E+02 -0.22537444443E+02  0.84429879363E+02  0.74043702236E+02 0.  0.
         13    1    3    3    0    0  0.23303909348E+02  0.46844704405E+01  0.10613525229E+02  0.26032182698E+02  0.10566000000E+00 0. -1.
         22    1    1    0    0    0  0.63927280214E+01  0.33122972616E+02  0.22537444443E+02  0.40570120637E+02  0.00000000000E+00 0.  1.
</event>
<event>
 5    1  0.9034917E-005  0.9118800E+02  0.7818608E-02  0.1130116E+00
         25   -1    0    0    0    0  0.00000000000E+00  0.00000000000E+00  0.99999998245E-14  0.12500000000E+03  0.12500000000E+03 0.  0.
        -13    1    3    3    0    0  0.30698569906E+02 -0.49547209916E+01 -0.43990909401E+02  0.53871724758E+02  0.10566000000E+00 0. -1.
         23    2    1    0    0    0  0.11518424421E+02 -0.23820170830E+02 -0.11248554992E+02  0.96249267333E+02  0.91854868315E+02 0.  0.
         13    1    3    3    0    0 -0.19180145485E+02 -0.18865449838E+02  0.32742354409E+02  0.42377542575E+02  0.10566000000E+00 0.  1.
         22    1    1    0    0    0 -0.11518424421E+02  0.23820170830E+02  0.11248554992E+02  0.28750732667E+02  0.00000000000E+00 0. -1.
</event>
<event>
 5    1  0.9034917E-005  0.9118800E+02  0.7818608E-02  0.1130116E+00
         25   -1    0    0    0    0  0.00000000000E+00  0.00000000000E+00  0.99999998245E-14  0.12500000000E+03  0.12500000000E+03 0.  0.
        -13    1    3    3    0    0 -0.42473280805E+02  0.24586268448E+02  0.33153318087E+02  0.59225145359E+02  0.10566000000E+00 0.  1.
         23    2    1    0    0    0 -0.29541703064E+02  0.28017471889E+02  0.15367273772E+02  0.81481681396E+02  0.68887011468E+02 0.  0.
         13    1    3    3    0    0  0.12931577741E+02  0.34312034405E+01 -0.17786044316E+02  0.22256536037E+02  0.10566000000E+00 0. -1.
         22    1    1    0    0    0  0.29541703064E+02 -0.28017471889E+02 -0.15367273772E+02  0.43518318604E+02  0.00000000000E+00 0.  1.
</event>
<event>
 5    1  0.9034917E-005  0.9118800E+02  0.7818608E-02  0.1130116E+00
         25   -1    0    0    0    0  0.00000000000E+00  0.00000000000E+00  0.99999998245E-14  0.12500000000E+03  0.12500000000E+03 0.  0.
        -13    1    3    3    0    0  0.18117574075E+02 -0.87870329298E+01 -0.44206940944E+02  0.48576982509E+02  0.10566000000E+00 0.  1.
         23    2    1    0    0    0  0.15131604611E+02  0.23237337551E+02 -0.10020447387E+02  0.95515280561E+02  0.90850537369E+02 0.  0.
         13    1    3    3    0    0 -0.29859694636E+01  0.32024370480E+02  0.34186493557E+02  0.46938298052E+02  0.10566000000E+00 0. -1.
         22    1    1    0    0    0 -0.15131604611E+02 -0.23237337551E+02  0.10020447387E+02  0.29484719439E+02  0.00000000000E+00 0.  1.
</event>
<event>
 5    1  0.9034917E-005  0.9118800E+02  0.7818608E-02  0.1130116E+00
         25   -1    0    0    0    0  0.00000000000E+00  0.00000000000E+00  0.99999998245E-14  0.12500000000E+03  0.12500000000E+03 0.  0.
        -13    1    3    3    0    0 -0.37699677341E+02 -0.25625461568E+02 -0.29330903053E+02  0.54205562354E+02  0.10566000000E+00 0.  1.
         23    2    1    0    0    0  0.18340466637E+01 -0.13830069782E+02 -0.25871875363E+02  0.95606318840E+02  0.90975709450E+02 0.  0.
         13    1    3    3    0    0  0.39533724004E+02  0.11795391786E+02  0.34590276898E+01  0.41400756486E+02  0.10566000000E+00 0. -1.
         22    1    1    0    0    0 -0.18340466637E+01  0.13830069782E+02  0.25871875363E+02  0.29393681160E+02  0.00000000000E+00 0.  1.
</event>
<event>
 5    1  0.9034917E-005  0.9118800E+02  0.7818608E-02  0.1130116E+00
         25   -1    0    0    0    0  0.00000000000E+00  0.00000000000E+00  0.99999998245E-14  0.12500000000E+03  0.12500000000E+03 0.  0.
        -13    1    3    3    0    0 -0.10605233594E+02  0.25053799915E+02 -0.22732399619E+02  0.35453307691E+02  0.10566000000E+00 0.  1.
         23    2    1    0    0    0  0.21313212598E+02 -0.30361940490E+01  0.19913519273E+02  0.95673906578E+02  0.91068527190E+02 0.  0.
         13    1    3    3    0    0  0.31918446191E+02 -0.28089993964E+02  0.42645918892E+02  0.60220598887E+02  0.10566000000E+00 0. -1.
         22    1    1    0    0    0 -0.21313212598E+02  0.30361940490E+01 -0.19913519273E+02  0.29326093422E+02  0.00000000000E+00 0. -1.
</event>
<event>
 5    1  0.9034917E-005  0.9118800E+02  0.7818608E-02  0.1130116E+00
         25   -1    0    0    0    0  0.00000000000E+00  0.00000000000E+00  0.99999998245E-14  0.12500000000E+03  0.12500000000E+03 0.  0.
        -13    1    3    3    0    0 -0.33611746542E+02  0.14889454383E+01  0.20658947927E+02  0.39481258308E+02  0.10566000000E+00 0. -1.
         23    2    1    0    0    0 -0.14105107474E+01 -0.19733903027E+02 -0.20929719532E+02  0.96199485614E+02  0.91787098241E+02 0.  0.
         13    1    3    3    0    0  0.32201235795E+02 -0.21222848465E+02 -0.41588667458E+02  0.56718227305E+02  0.10566000000E+00 0.  1.
         22    1    1    0    0    0  0.14105107474E+01  0.19733903027E+02  0.20929719532E+02  0.28800514386E+02  0.00000000000E+00 0.  1.
</event>
<event>
 5    1  0.9034917E-005  0.9118800E+02  0.7818608E-02  0.1130116E+00
         25   -1    0    0    0    0  0.00000000000E+00  0.00000000000E+00  0.99999998245E-14  0.12500000000E+03  0.12500000000E+03 0.  0.
        -13    1    3    3    0    0 -0.64854374376E+01  0.34959920587E+02  0.35166430922E+02  0.50009458846E+02  0.10566000000E+00 0. -1.
         23    2    1    0    0    0  0.34007115027E+01  0.28272542258E+02 -0.85034432229E+01  0.95281150239E+02  0.90527827543E+02 0.  0.
         13    1    3    3    0    0  0.98861489403E+01 -0.66873783289E+01 -0.43669874145E+02  0.45271691393E+02  0.10566000000E+00 0.  1.
         22    1    1    0    0    0 -0.34007115027E+01 -0.28272542258E+02  0.85034432229E+01  0.29718849761E+02  0.00000000000E+00 0. -1.
</event>
<event>
 5    1  0.9034917E-005  0.9118800E+02  0.7818608E-02  0.1130116E+00
         25   -1    0    0    0    0  0.00000000000E+00  0.00000000000E+00  0.99999998245E-14  0.12500000000E+03  0.12500000000E+03 0.  0.
        -13    1    3    3    0    0  0.14789580340E+02  0.13572098910E+02  0.35308788938E+02  0.40615948786E+02  0.10566000000E+00 0.  1.
         23    2    1    0    0    0 -0.45377221168E+01 -0.28711484190E+02  0.68166093817E+01  0.95143570042E+02  0.90337658318E+02 0.  0.
         13    1    3    3    0    0 -0.19327302457E+02 -0.42283583099E+02 -0.28492179556E+02  0.54527621256E+02  0.10566000000E+00 0. -1.
         22    1    1    0    0    0  0.45377221168E+01  0.28711484190E+02 -0.68166093817E+01  0.29856429958E+02  0.00000000000E+00 0. -1.
</event>
<event>
 5    1  0.9034917E-005  0.9118800E+02  0.7818608E-02  0.1130116E+00
         25   -1    0    0    0    0  0.00000000000E+00  0.00000000000E+00  0.99999998245E-14  0.12500000000E+03  0.12500000000E+03 0.  0.
        -13    1    3    3    0    0  0.26465036475E+02 -0.52403511458E+02  0.13708374658E+02  0.60286456759E+02  0.10566000000E+00 0. -1.
         23    2    1    0    0    0  0.20952589757E+01 -0.29719413375E+02  0.41925513762E+01  0.94913273216E+02  0.90018433134E+02 0.  0.
         13    1    3    3    0    0 -0.24369777499E+02  0.22684098083E+02 -0.95158232816E+01  0.34626816457E+02  0.10566000000E+00 0.  1.
         22    1    1    0    0    0 -0.20952589757E+01  0.29719413375E+02 -0.41925513762E+01  0.30086726784E+02  0.00000000000E+00 0. -1.
</event>
<event>
 5    1  0.9034917E-005  0.9118800E+02  0.7818608E-02  0.1130116E+00
         25   -1    0    0    0    0  0.00000000000E+00  0.00000000000E+00  0.99999998245E-14  0.12500000000E+03  0.12500000000E+03 0.  0.
        -13    1    3    3    0    0  0.34243434852E+02  0.12509688663E+02  0.16976127071E+02  0.40215733181E+02  0.10566000000E+00 0.  1.
         23    2    1    0    0    0  0.51072613171E+01  0.21737426983E+01 -0.28919527935E+02  0.95552616900E+02  0.90901893406E+02 0.  0.
         13    1    3    3    0    0 -0.29136173535E+02 -0.10335945964E+02 -0.45895655006E+02  0.55336883719E+02  0.10566000000E+00 0. -1.
         22    1    1    0    0    0 -0.51072613171E+01 -0.21737426983E+01  0.28919527935E+02  0.29447383100E+02  0.00000000000E+00 0. -1.
</event>
<event>
 5    1  0.9034917E-005  0.9118800E+02  0.7818608E-02  0.1130116E+00
         25   -1    0    0    0    0  0.00000000000E+00  0.00000000000E+00  0.99999998245E-14  0.12500000000E+03  0.12500000000E+03 0.  0.
        -13    1    3    3    0    0 -0.18509347617E+02 -0.39393172109E+02  0.27145889547E+02  0.51296475916E+02  0.10566000000E+00 0. -1.
         23    2    1    0    0    0 -0.13711808651E+02  0.47051891336E+01  0.25477997615E+02  0.95686507139E+02  0.91085820986E+02 0.  0.
         13    1    3    3    0    0  0.47975389660E+01  0.44098361243E+02 -0.16678919325E+01  0.44390031223E+02  0.10566000000E+00 0.  1.
         22    1    1    0    0    0  0.13711808651E+02 -0.47051891336E+01 -0.25477997615E+02  0.29313492861E+02  0.00000000000E+00 0. -1.
</event>
<event>
 5    1  0.9034917E-005  0.9118800E+02  0.7818608E-02  0.1130116E+00
         25   -1    0    0    0    0  0.00000000000E+00  0.00000000000E+00  0.99999998245E-14  0.12500000000E+03  0.12500000000E+03 0.  0.
        -13    1    3    3    0    0 -0.29142809194E+00 -0.22484867874E+02 -0.27639115703E+02  0.35631251655E+02  0.10566000000E+00 0. -1.
         23    2    1    0    0    0 -0.29269628779E+02  0.67892525581E+01  0.11856954464E+02  0.92698413533E+02  0.86888453682E+02 0.  0.
         13    1    3    3    0    0 -0.28978200687E+02  0.29274120432E+02  0.39496070167E+02  0.57067161878E+02  0.10566000000E+00 0.  1.
         22    1    1    0    0    0  0.29269628779E+02 -0.67892525581E+01 -0.11856954464E+02  0.32301586467E+02  0.00000000000E+00 0.  1.
</event>
<event>
 5    1  0.9034917E-005  0.9118800E+02  0.7818608E-02  0.1130116E+00
         25   -1    0    0    0    0  0.00000000000E+00  0.00000000000E+00  0.99999998245E-14  0.12500000000E+03  0.12500000000E+03 0.  0.
        -13    1    3    3    0    0 -0.13397508075E+02 -0.41220421590E+02  0.29582949926E+01  0.43443976015E+02  0.10566000000E+00 0.  1.
         23    2    1    0    0    0  0.27426516615E+02 -0.10245940321E+02  0.71556075629E+01  0.94860394391E+02  0.89944975389E+02 0.  0.
         13    1    3    3    0    0  0.40824024690E+02  0.30974481270E+02  0.41973125703E+01  0.51416418376E+02  0.10566000000E+00 0. -1.
         22    1    1    0    0    0 -0.27426516615E+02  0.10245940321E+02 -0.71556075629E+01  0.30139605609E+02  0.00000000000E+00 0. -1.
</event>
<event>
 5    1  0.9034917E-005  0.9118800E+02  0.7818608E-02  0.1130116E+00
         25   -1    0    0    0    0  0.00000000000E+00  0.00000000000E+00  0.99999998245E-14  0.12500000000E+03  0.12500000000E+03 0.  0.
        -13    1    3    3    0    0 -0.45075634133E+02  0.10069794524E+02 -0.17593800681E+02  0.49424351697E+02  0.10566000000E+00 0.  1.
         23    2    1    0    0    0  0.27241074744E+00  0.19604118914E+02 -0.21469007601E+02  0.95925716288E+02  0.91413505960E+02 0.  0.
         13    1    3    3    0    0  0.45348044881E+02  0.95343243900E+01 -0.38752069205E+01  0.46501364591E+02  0.10566000000E+00 0. -1.
         22    1    1    0    0    0 -0.27241074744E+00 -0.19604118914E+02  0.21469007601E+02  0.29074283712E+02  0.00000000000E+00 0. -1.
</event>
<event>
 5    1  0.9034917E-005  0.9118800E+02  0.7818608E-02  0.1130116E+00
         25   -1    0    0    0    0  0.00000000000E+00  0.00000000000E+00  0.99999998245E-14  0.12500000000E+03  0.12500000000E+03 0.  0.
        -13    1    3    3    0    0  0.43145421162E+02  0.40038259315E+02 -0.11166445757E+02  0.59910685617E+02  0.10566000000E+00 0.  1.
         23    2    1    0    0    0  0.11595714387E+02  0.27189378379E+02 -0.92383058122E+01  0.94031157867E+02  0.88785074572E+02 0.  0.
         13    1    3    3    0    0 -0.31549706775E+02 -0.12848880936E+02  0.19281399446E+01  0.34120472250E+02  0.10566000000E+00 0. -1.
         22    1    1    0    0    0 -0.11595714387E+02 -0.27189378379E+02  0.92383058122E+01  0.30968842133E+02  0.00000000000E+00 0.  1.
</event>
<event>
 5    1  0.9034917E-005  0.9118800E+02  0.7818608E-02  0.1130116E+00
         25   -1    0    0    0    0  0.00000000000E+00  0.00000000000E+00  0.99999998245E-14  0.12500000000E+03  0.12500000000E+03 0.  0.
        -13    1    3    3    0    0 -0.22574202861E+02 -0.13111156343E+02 -0.19236367921E+02  0.32427551099E+02  0.10566000000E+00 0. -1.
         23    2    1    0    0    0  0.29844365262E+02  0.87749012900E+01 -0.17607164564E+02  0.89255108414E+02  0.81784944235E+02 0.  0.
         13    1    3    3    0    0  0.52418568123E+02  0.21886057633E+02  0.16292033577E+01  0.56827557315E+02  0.10566000000E+00 0.  1.
         22    1    1    0    0    0 -0.29844365262E+02 -0.87749012900E+01  0.17607164564E+02  0.35744891586E+02  0.00000000000E+00 0.  1.
</event>
<event>
 5    1  0.9034917E-005  0.9118800E+02  0.7818608E-02  0.1130116E+00
         25   -1    0    0    0    0  0.00000000000E+00  0.00000000000E+00  0.99999998245E-14  0.12500000000E+03  0.12500000000E+03 0.  0.
        -13    1    3    3    0    0 -0.48447057584E+02  0.71952540913E+01 -0.13810009406E+01  0.48998034630E+02  0.10566000000E+00 0.  1.
         23    2    1    0    0    0 -0.14107926460E+02 -0.16333868767E+02 -0.20883889104E+02  0.94967256502E+02  0.90093363383E+02 0.  0.
         13    1    3    3    0    0  0.34339131124E+02 -0.23529122858E+02 -0.19502888163E+02  0.45969221872E+02  0.10566000000E+00 0. -1.
         22    1    1    0    0    0  0.14107926460E+02  0.16333868767E+02  0.20883889104E+02  0.30032743498E+02  0.00000000000E+00 0.  1.
</event>
<event>
 5    1  0.9034917E-005  0.9118800E+02  0.7818608E-02  0.1130116E+00
         25   -1    0    0    0    0  0.00000000000E+00  0.00000000000E+00  0.99999998245E-14  0.12500000000E+03  0.12500000000E+03 0.  0.
        -13    1    3    3    0    0 -0.15013738921E+02  0.44994674630E+02  0.64401067432E+01  0.47868771034E+02  0.10566000000E+00 0.  1.
         23    2    1    0    0    0 -0.28438603908E+02  0.24875056599E+01 -0.90378340218E+01  0.95056314180E+02  0.90216841804E+02 0.  0.
         13    1    3    3    0    0 -0.13424864988E+02 -0.42507168970E+02 -0.15477940765E+02  0.47187543146E+02  0.10566000000E+00 0. -1.
         22    1    1    0    0    0  0.28438603908E+02 -0.24875056599E+01  0.90378340218E+01  0.29943685820E+02  0.00000000000E+00 0. -1.
</event>
<event>
 5    1  0.9034917E-005  0.9118800E+02  0.7818608E-02  0.1130116E+00
         25   -1    0    0    0    0  0.00000000000E+00  0.00000000000E+00  0.99999998245E-14  0.12500000000E+03  0.12500000000E+03 0.  0.
        -13    1    3    3    0    0  0.48652347327E+02 -0.12666669819E+02  0.36510039192E+02  0.62132837941E+02  0.10566000000E+00 0.  1.
         23    2    1    0    0    0  0.25721315630E+02 -0.78166740377E+01  0.13745364690E+02  0.94806929252E+02  0.89870642108E+02 0.  0.
         13    1    3    3    0    0 -0.22931031697E+02  0.48499957808E+01 -0.22764674502E+02  0.32674091311E+02  0.10566000000E+00 0. -1.
         22    1    1    0    0    0 -0.25721315630E+02  0.78166740377E+01 -0.13745364690E+02  0.30193070748E+02  0.00000000000E+00 0.  1.
</event>
<event>
 5    1  0.9034917E-005  0.9118800E+02  0.7818608E-02  0.1130116E+00
         25   -1    0    0    0    0  0.00000000000E+00  0.00000000000E+00  0.99999998245E-14  0.12500000000E+03  0.12500000000E+03 0.  0.
        -13    1    3    3    0    0 -0.10498087062E+02  0.34306178905E+02 -0.57270287037E+01  0.36330892706E+02  0.10566000000E+00 0.  1.
         23    2    1    0    0    0  0.10097802306E+00 -0.20039243710E+02  0.19375966728E+02  0.97125108580E+02  0.93039116209E+02 0.  0.
         13    1    3    3    0    0  0.10599065085E+02 -0.54345422616E+02  0.25102995432E+02  0.60794215873E+02  0.10566000000E+00 0. -1.
         22    1    1    0    0    0 -0.10097802306E+00  0.20039243710E+02 -0.19375966728E+02  0.27874891420E+02  0.00000000000E+00 0. -1.
</event>
<event>
 5    1  0.9034917E-005  0.9118800E+02  0.7818608E-02  0.1130116E+00
         25   -1    0    0    0    0  0.00000000000E+00  0.00000000000E+00  0.99999998245E-14  0.12500000000E+03  0.12500000000E+03 0.  0.
        -13    1    3    3    0    0  0.66404053132E+01  0.50984081783E+02  0.31602650424E+01  0.51511843465E+02  0.10566000000E+00 0. -1.
         23    2    1    0    0    0  0.40170977834E+01  0.11225639267E+02 -0.22941641135E+02  0.99145194847E+02  0.95714673440E+02 0.  0.
         13    1    3    3    0    0 -0.26233075298E+01 -0.39758442516E+02 -0.26101906177E+02  0.47633351381E+02  0.10566000000E+00 0.  1.
         22    1    1    0    0    0 -0.40170977834E+01 -0.11225639267E+02  0.22941641135E+02  0.25854805153E+02  0.00000000000E+00 0.  1.
</event>
<event>
 5    1  0.9034917E-005  0.9118800E+02  0.7818608E-02  0.1130116E+00
         25   -1    0    0    0    0  0.00000000000E+00  0.00000000000E+00  0.99999998245E-14  0.12500000000E+03  0.12500000000E+03 0.  0.
        -13    1    3    3    0    0 -0.18690389429E+01  0.30823599670E+02 -0.18732977458E+02  0.36118183947E+02  0.10566000000E+00 0.  1.
         23    2    1    0    0    0 -0.38008449261E+02  0.18003797539E+02  0.70916797977E+01  0.82349433024E+02  0.70444007950E+02 0.  0.
         13    1    3    3    0    0 -0.36139410318E+02 -0.12819802131E+02  0.25824657256E+02  0.46231249077E+02  0.10566000000E+00 0. -1.
         22    1    1    0    0    0  0.38008449261E+02 -0.18003797539E+02 -0.70916797977E+01  0.42650566976E+02  0.00000000000E+00 0. -1.
</event>
<event>
 5    1  0.9034917E-005  0.9118800E+02  0.7818608E-02  0.1130116E+00
         25   -1    0    0    0    0  0.00000000000E+00  0.00000000000E+00  0.99999998245E-14  0.12500000000E+03  0.12500000000E+03 0.  0.
        -13    1    3    3    0    0  0.57586506119E+02 -0.10789652734E+02  0.45702607358E+01  0.58766663512E+02  0.10566000000E+00 0.  1.
         23    2    1    0    0    0  0.27108808337E+02 -0.95598500668E+01 -0.12425075592E+02  0.93684497031E+02  0.88295663867E+02 0.  0.
         13    1    3    3    0    0 -0.30477697782E+02  0.12298026676E+01 -0.16995336328E+02  0.34917833519E+02  0.10566000000E+00 0. -1.
         22    1    1    0    0    0 -0.27108808337E+02  0.95598500668E+01  0.12425075592E+02  0.31315502969E+02  0.00000000000E+00 0.  1.
</event>
<event>
 5    1  0.9034917E-005  0.9118800E+02  0.7818608E-02  0.1130116E+00
         25   -1    0    0    0    0  0.00000000000E+00  0.00000000000E+00  0.99999998245E-14  0.12500000000E+03  0.12500000000E+03 0.  0.
        -13    1    3    3    0    0  0.31239668069E+01  0.50651257264E+02 -0.28659591100E+02  0.58281149243E+02  0.10566000000E+00 0.  1.
         23    2    1    0    0    0 -0.14736259825E+02  0.22891475423E+02 -0.13720336478E+02  0.94513533597E+02  0.89461630877E+02 0.  0.
         13    1    3    3    0    0 -0.17860226632E+02 -0.27759781842E+02  0.14939254622E+02  0.36232384354E+02  0.10566000000E+00 0. -1.
         22    1    1    0    0    0  0.14736259825E+02 -0.22891475423E+02  0.13720336478E+02  0.30486466403E+02  0.00000000000E+00 0.  1.
</event>
<event>
 5    1  0.9034917E-005  0.9118800E+02  0.7818608E-02  0.1130116E+00
         25   -1    0    0    0    0  0.00000000000E+00  0.00000000000E+00  0.99999998245E-14  0.12500000000E+03  0.12500000000E+03 0.  0.
        -13    1    3    3    0    0 -0.41654029070E+02  0.32387220110E+02  0.20956760736E+02  0.56773119950E+02  0.10566000000E+00 0. -1.
         23    2    1    0    0    0 -0.24383809067E+02  0.74875086864E+01 -0.75720141827E+01  0.98392325737E+02  0.94726350263E+02 0.  0.
         13    1    3    3    0    0  0.17270220003E+02 -0.24899711424E+02 -0.28528774919E+02  0.41619205787E+02  0.10566000000E+00 0.  1.
         22    1    1    0    0    0  0.24383809067E+02 -0.74875086864E+01  0.75720141827E+01  0.26607674263E+02  0.00000000000E+00 0. -1.
</event>
<event>
 5    1  0.9034917E-005  0.9118800E+02  0.7818608E-02  0.1130116E+00
         25   -1    0    0    0    0  0.00000000000E+00  0.00000000000E+00  0.99999998245E-14  0.12500000000E+03  0.12500000000E+03 0.  0.
        -13    1    3    3    0    0 -0.17866115753E+00  0.53513649998E+00  0.48193752573E+02  0.48197170477E+02  0.10566000000E+00 0.  1.
         23    2    1    0    0    0 -0.23050289889E+02 -0.14234628295E+02  0.79852486546E+01  0.96756333405E+02  0.92542332752E+02 0.  0.
         13    1    3    3    0    0 -0.22871628732E+02 -0.14769764795E+02 -0.40208503918E+02  0.48559162928E+02  0.10566000000E+00 0. -1.
         22    1    1    0    0    0  0.23050289889E+02  0.14234628295E+02 -0.79852486546E+01  0.28243666595E+02  0.00000000000E+00 0.  1.
</event>
<event>
 5    1  0.9034917E-005  0.9118800E+02  0.7818608E-02  0.1130116E+00
         25   -1    0    0    0    0  0.00000000000E+00  0.00000000000E+00  0.99999998245E-14  0.12500000000E+03  0.12500000000E+03 0.  0.
        -13    1    3    3    0    0 -0.39623665935E+02  0.16682354175E+02  0.54142434048E+01  0.43331986322E+02  0.10566000000E+00 0. -1.
         23    2    1    0    0    0  0.12320200137E+02  0.25796201131E+02  0.43767432342E+01  0.96079640294E+02  0.91623741866E+02 0.  0.
         13    1    3    3    0    0  0.51943866072E+02  0.91138469555E+01 -0.10375001706E+01  0.52747653972E+02  0.10566000000E+00 0.  1.
         22    1    1    0    0    0 -0.12320200137E+02 -0.25796201131E+02 -0.43767432342E+01  0.28920359706E+02  0.00000000000E+00 0.  1.
</event>
<event>
 5    1  0.9034917E-005  0.9118800E+02  0.7818608E-02  0.1130116E+00
         25   -1    0    0    0    0  0.00000000000E+00  0.00000000000E+00  0.99999998245E-14  0.12500000000E+03  0.12500000000E+03 0.  0.
        -13    1    3    3    0    0 -0.54631514202E+01 -0.44590911541E+02  0.39747457933E+02  0.59983889434E+02  0.10566000000E+00 0.  1.
         23    2    1    0    0    0  0.10013711427E+02 -0.18330518911E+02  0.17974916193E+02  0.97443150539E+02  0.93465435508E+02 0.  0.
         13    1    3    3    0    0  0.15476862847E+02  0.26260392630E+02 -0.21772541740E+02  0.37459261105E+02  0.10566000000E+00 0. -1.
         22    1    1    0    0    0 -0.10013711427E+02  0.18330518911E+02 -0.17974916193E+02  0.27556849461E+02  0.00000000000E+00 0.  1.
</event>
<event>
 5    1  0.9034917E-005  0.9118800E+02  0.7818608E-02  0.1130116E+00
         25   -1    0    0    0    0  0.00000000000E+00  0.00000000000E+00  0.99999998245E-14  0.12500000000E+03  0.12500000000E+03 0.  0.
        -13    1    3    3    0    0 -0.99033585431E+01  0.40023093014E+02  0.10155310591E+02  0.42462524443E+02  0.10566000000E+00 0. -1.
         23    2    1    0    0    0 -0.29797781198E+02  0.12807898967E+01 -0.13765542909E+02  0.92151280715E+02  0.86097736200E+02 0.  0.
         13    1    3    3    0    0 -0.19894422655E+02 -0.38742303117E+02 -0.23920853501E+02  0.49688756272E+02  0.10566000000E+00 0.  1.
         22    1    1    0    0    0  0.29797781198E+02 -0.12807898967E+01  0.13765542909E+02  0.32848719285E+02  0.00000000000E+00 0. -1.
</event>
<event>
 5    1  0.9034917E-005  0.9118800E+02  0.7818608E-02  0.1130116E+00
         25   -1    0    0    0    0  0.00000000000E+00  0.00000000000E+00  0.99999998245E-14  0.12500000000E+03  0.12500000000E+03 0.  0.
        -13    1    3    3    0    0  0.14539667376E+01  0.30554552993E+02  0.52179328723E+02  0.60484611579E+02  0.10566000000E+00 0. -1.
         23    2    1    0    0    0 -0.94708777411E+01  0.93627408310E+01  0.25259499890E+02  0.96444776735E+02  0.92120541594E+02 0.  0.
         13    1    3    3    0    0 -0.10924844479E+02 -0.21191812162E+02 -0.26919828833E+02  0.35960165156E+02  0.10566000000E+00 0.  1.
         22    1    1    0    0    0  0.94708777411E+01 -0.93627408310E+01 -0.25259499890E+02  0.28555223265E+02  0.00000000000E+00 0. -1.
</event>
<event>
 5    1  0.9034917E-005  0.9118800E+02  0.7818608E-02  0.1130116E+00
         25   -1    0    0    0    0  0.00000000000E+00  0.00000000000E+00  0.99999998245E-14  0.12500000000E+03  0.12500000000E+03 0.  0.
        -13    1    3    3    0    0 -0.13055637337E+02  0.29737371138E+02  0.19957421045E+02  0.38119164829E+02  0.10566000000E+00 0. -1.
         23    2    1    0    0    0  0.51032809567E+01  0.58326617628E+01 -0.28688974692E+02  0.95282653405E+02  0.90529903078E+02 0.  0.
         13    1    3    3    0    0  0.18158918294E+02 -0.23904709375E+02 -0.48646395737E+02  0.57163488576E+02  0.10566000000E+00 0.  1.
         22    1    1    0    0    0 -0.51032809567E+01 -0.58326617628E+01  0.28688974692E+02  0.29717346595E+02  0.00000000000E+00 0.  1.
</event>
<event>
 5    1  0.9034917E-005  0.9118800E+02  0.7818608E-02  0.1130116E+00
         25   -1    0    0    0    0  0.00000000000E+00  0.00000000000E+00  0.99999998245E-14  0.12500000000E+03  0.12500000000E+03 0.  0.
        -13    1    3    3    0    0  0.22108223515E+02  0.12088347636E+02  0.37519663370E+02  0.45195552868E+02  0.10566000000E+00 0.  1.
         23    2    1    0    0    0  0.36044987584E+02  0.15299403711E+02 -0.52413425942E+00  0.85838953020E+02  0.76385458400E+02 0.  0.
         13    1    3    3    0    0  0.13936764069E+02  0.32110560750E+01 -0.38043797630E+02  0.40643400152E+02  0.10566000000E+00 0. -1.
         22    1    1    0    0    0 -0.36044987584E+02 -0.15299403711E+02  0.52413425942E+00  0.39161046980E+02  0.00000000000E+00 0.  1.
</event>
<event>
 5    1  0.9034917E-005  0.9118800E+02  0.7818608E-02  0.1130116E+00
         25   -1    0    0    0    0  0.00000000000E+00  0.00000000000E+00  0.99999998245E-14  0.12500000000E+03  0.12500000000E+03 0.  0.
        -13    1    3    3    0    0 -0.43728375230E+02  0.67280408313E+01 -0.17074084656E+02  0.47423336709E+02  0.10566000000E+00 0. -1.
         23    2    1    0    0    0 -0.11309581717E+02 -0.26361052970E+02 -0.15710102311E+01  0.96272316044E+02  0.91886228626E+02 0.  0.
         13    1    3    3    0    0  0.32418793514E+02 -0.33089093802E+02  0.15503074425E+02  0.48848979336E+02  0.10566000000E+00 0.  1.
         22    1    1    0    0    0  0.11309581717E+02  0.26361052970E+02  0.15710102311E+01  0.28727683956E+02  0.00000000000E+00 0.  1.
</event>
<event>
 5    1  0.9034917E-005  0.9118800E+02  0.7818608E-02  0.1130116E+00
         25   -1    0    0    0    0  0.00000000000E+00  0.00000000000E+00  0.99999998245E-14  0.12500000000E+03  0.12500000000E+03 0.  0.
        -13    1    3    3    0    0 -0.26350341767E+02  0.26518900743E+02  0.57014960860E+01  0.37816806178E+02  0.10566000000E+00 0. -1.
         23    2    1    0    0    0  0.11687286048E+02 -0.22206187795E+02 -0.13136107815E+00  0.99905684164E+02  0.96702745778E+02 0.  0.
         13    1    3    3    0    0  0.38037627815E+02 -0.48725088538E+02 -0.58328571642E+01  0.62088877986E+02  0.10566000000E+00 0.  1.
         22    1    1    0    0    0 -0.11687286048E+02  0.22206187795E+02  0.13136107815E+00  0.25094315836E+02  0.00000000000E+00 0.  1.
</event>
<event>
 5    1  0.9034917E-005  0.9118800E+02  0.7818608E-02  0.1130116E+00
         25   -1    0    0    0    0  0.00000000000E+00  0.00000000000E+00  0.99999998245E-14  0.12500000000E+03  0.12500000000E+03 0.  0.
        -13    1    3    3    0    0 -0.79448813475E+01 -0.36313113182E+02  0.12064811361E+02  0.39081122884E+02  0.10566000000E+00 0.  1.
         23    2    1    0    0    0 -0.23239535555E+02  0.13662286852E+02 -0.10580803392E+02  0.96039898217E+02  0.91569506684E+02 0.  0.
         13    1    3    3    0    0 -0.15294654208E+02  0.49975400034E+02 -0.22645614753E+02  0.56958775334E+02  0.10566000000E+00 0. -1.
         22    1    1    0    0    0  0.23239535555E+02 -0.13662286852E+02  0.10580803392E+02  0.28960101783E+02  0.00000000000E+00 0. -1.
</event>
<event>
 5    1  0.9034917E-005  0.9118800E+02  0.7818608E-02  0.1130116E+00
         25   -1    0    0    0    0  0.00000000000E+00  0.00000000000E+00  0.99999998245E-14  0.12500000000E+03  0.12500000000E+03 0.  0.
        -13    1    3    3    0    0 -0.20619020149E+02 -0.23780240249E+02 -0.90551748164E+01  0.32751353762E+02  0.10566000000E+00 0.  1.
         23    2    1    0    0    0 -0.21664226967E+02 -0.15595524746E+02  0.36908602178E+02  0.79449983129E+02  0.65096050436E+02 0.  0.
         13    1    3    3    0    0 -0.10452068173E+01  0.81847155032E+01  0.45963776995E+02  0.46698629368E+02  0.10566000000E+00 0. -1.
         22    1    1    0    0    0  0.21664226967E+02  0.15595524746E+02 -0.36908602178E+02  0.45550016871E+02  0.00000000000E+00 0. -1.
</event>
<event>
 5    1  0.9034917E-005  0.9118800E+02  0.7818608E-02  0.1130116E+00
         25   -1    0    0    0    0  0.00000000000E+00  0.00000000000E+00  0.99999998245E-14  0.12500000000E+03  0.12500000000E+03 0.  0.
        -13    1    3    3    0    0 -0.24973915707E+02 -0.55614986271E+02 -0.68781575526E+01  0.61351800129E+02  0.10566000000E+00 0.  1.
         23    2    1    0    0    0 -0.18980013845E+02 -0.22062167554E+02 -0.14924697760E+01  0.95858832749E+02  0.91322002755E+02 0.  0.
         13    1    3    3    0    0  0.59939018621E+01  0.33552818717E+02  0.53856877766E+01  0.34507032620E+02  0.10566000000E+00 0. -1.
         22    1    1    0    0    0  0.18980013845E+02  0.22062167554E+02  0.14924697760E+01  0.29141167251E+02  0.00000000000E+00 0.  1.
</event>
<event>
 5    1  0.9034917E-005  0.9118800E+02  0.7818608E-02  0.1130116E+00
         25   -1    0    0    0    0  0.00000000000E+00  0.00000000000E+00  0.99999998245E-14  0.12500000000E+03  0.12500000000E+03 0.  0.
        -13    1    3    3    0    0 -0.41564311134E+01  0.62176908466E+02 -0.14575894812E+01  0.62332813166E+02  0.10566000000E+00 0. -1.
         23    2    1    0    0    0 -0.39182409267E+01  0.28788627833E+02  0.18596959143E+01  0.95886495000E+02  0.91359858527E+02 0.  0.
         13    1    3    3    0    0  0.23819018670E+00 -0.33388280633E+02  0.33172853955E+01  0.33553681834E+02  0.10566000000E+00 0.  1.
         22    1    1    0    0    0  0.39182409267E+01 -0.28788627833E+02 -0.18596959143E+01  0.29113505000E+02  0.00000000000E+00 0. -1.
</event>
<event>
 5    1  0.9034917E-005  0.9118800E+02  0.7818608E-02  0.1130116E+00
         25   -1    0    0    0    0  0.00000000000E+00  0.00000000000E+00  0.99999998245E-14  0.12500000000E+03  0.12500000000E+03 0.  0.
        -13    1    3    3    0    0  0.16813334557E+02 -0.18808674078E+02 -0.43806129627E+02  0.50551385703E+02  0.10566000000E+00 0. -1.
         23    2    1    0    0    0 -0.15093611587E+02  0.65658878606E+01 -0.24059535336E+02  0.95848855344E+02  0.91308344833E+02 0.  0.
         13    1    3    3    0    0 -0.31906946144E+02  0.25374561938E+02  0.19746594291E+02  0.45297469642E+02  0.10566000000E+00 0.  1.
         22    1    1    0    0    0  0.15093611587E+02 -0.65658878606E+01  0.24059535336E+02  0.29151144656E+02  0.00000000000E+00 0. -1.
</event>
<event>
 5    1  0.9034917E-005  0.9118800E+02  0.7818608E-02  0.1130116E+00
         25   -1    0    0    0    0  0.00000000000E+00  0.00000000000E+00  0.99999998245E-14  0.12500000000E+03  0.12500000000E+03 0.  0.
        -13    1    3    3    0    0  0.10574500703E+02 -0.31316425559E+02 -0.15186786736E+02  0.36375654363E+02  0.10566000000E+00 0. -1.
         23    2    1    0    0    0  0.15265413574E+02  0.17114703967E+02  0.18481775661E+02  0.95546274004E+02  0.90893170815E+02 0.  0.
         13    1    3    3    0    0  0.46909128714E+01  0.48431129526E+02  0.33668562397E+02  0.59170619641E+02  0.10566000000E+00 0.  1.
         22    1    1    0    0    0 -0.15265413574E+02 -0.17114703967E+02 -0.18481775661E+02  0.29453725996E+02  0.00000000000E+00 0.  1.
</event>
<event>
 5    1  0.9034917E-005  0.9118800E+02  0.7818608E-02  0.1130116E+00
         25   -1    0    0    0    0  0.00000000000E+00  0.00000000000E+00  0.99999998245E-14  0.12500000000E+03  0.12500000000E+03 0.  0.
        -13    1    3    3    0    0  0.50286077988E+02 -0.30388943150E+01  0.30057584277E+02  0.58663396208E+02  0.10566000000E+00 0.  1.
         23    2    1    0    0    0  0.14992443982E+02 -0.13377280861E+01  0.26946092735E+02  0.94134893379E+02  0.88931003283E+02 0.  0.
         13    1    3    3    0    0 -0.35293634006E+02  0.17011662289E+01 -0.31114915415E+01  0.35471497171E+02  0.10566000000E+00 0. -1.
         22    1    1    0    0    0 -0.14992443982E+02  0.13377280861E+01 -0.26946092735E+02  0.30865106621E+02  0.00000000000E+00 0.  1.
</event>
<event>
 5    1  0.9034917E-005  0.9118800E+02  0.7818608E-02  0.1130116E+00
         25   -1    0    0    0    0  0.00000000000E+00  0.00000000000E+00  0.99999998245E-14  0.12500000000E+03  0.12500000000E+03 0.  0.
        -13    1    3    3    0    0 -0.27991468011E+02 -0.23599638985E+01  0.24360653606E+02  0.37182580856E+02  0.10566000000E+00 0.  1.
         23    2    1    0    0    0 -0.24132923457E+01 -0.44452763821E+01 -0.28558949386E+02  0.95996585510E+02  0.91510362132E+02 0.  0.
         13    1    3    3    0    0  0.25578175665E+02 -0.20853124835E+01 -0.52919602992E+02  0.58814004653E+02  0.10566000000E+00 0. -1.
         22    1    1    0    0    0  0.24132923457E+01  0.44452763821E+01  0.28558949386E+02  0.29003414490E+02  0.00000000000E+00 0. -1.
</event>
<event>
 5    1  0.9034917E-005  0.9118800E+02  0.7818608E-02  0.1130116E+00
         25   -1    0    0    0    0  0.00000000000E+00  0.00000000000E+00  0.99999998245E-14  0.12500000000E+03  0.12500000000E+03 0.  0.
        -13    1    3    3    0    0 -0.96013709084E+01 -0.23897878667E+02  0.37920469260E+02  0.45839590760E+02  0.10566000000E+00 0.  1.
         23    2    1    0    0    0  0.38489591511E+01  0.21389887436E+02  0.75971121160E+01  0.10197701402E+03  0.99344116606E+02 0.  0.
         13    1    3    3    0    0  0.13450330060E+02  0.45287766103E+02 -0.30323357144E+02  0.56137423257E+02  0.10566000000E+00 0. -1.
         22    1    1    0    0    0 -0.38489591511E+01 -0.21389887436E+02 -0.75971121160E+01  0.23022985983E+02  0.00000000000E+00 0. -1.
</event>
<event>
 5    1  0.9034917E-005  0.9118800E+02  0.7818608E-02  0.1130116E+00
         25   -1    0    0    0    0  0.00000000000E+00  0.00000000000E+00  0.99999998245E-14  0.12500000000E+03  0.12500000000E+03 0.  0.
        -13    1    3    3    0    0 -0.37449426060E+02 -0.41333334476E+02  0.11250986280E+02  0.56899032570E+02  0.10566000000E+00 0. -1.
         23    2    1    0    0    0 -0.17514320752E+02 -0.10442923181E+02  0.21802436148E+02  0.95147825909E+02  0.90343546960E+02 0.  0.
         13    1    3    3    0    0  0.19935105308E+02  0.30890411295E+02  0.10551449868E+02  0.38248793340E+02  0.10566000000E+00 0.  1.
         22    1    1    0    0    0  0.17514320752E+02  0.10442923181E+02 -0.21802436148E+02  0.29852174091E+02  0.00000000000E+00 0. -1.
</event>
<event>
 5    1  0.9034917E-005  0.9118800E+02  0.7818608E-02  0.1130116E+00
         25   -1    0    0    0    0  0.00000000000E+00  0.00000000000E+00  0.99999998245E-14  0.12500000000E+03  0.12500000000E+03 0.  0.
        -13    1    3    3    0    0  0.17014402356E+02  0.20976284437E+01 -0.29997132153E+02  0.34550383993E+02  0.10566000000E+00 0.  1.
         23    2    1    0    0    0 -0.50387742148E+01  0.62882720327E+01  0.27536739956E+02  0.96308474106E+02  0.91935404097E+02 0.  0.
         13    1    3    3    0    0 -0.22053176571E+02  0.41906435890E+01  0.57533872108E+02  0.61758090113E+02  0.10566000000E+00 0. -1.
         22    1    1    0    0    0  0.50387742148E+01 -0.62882720327E+01 -0.27536739956E+02  0.28691525894E+02  0.00000000000E+00 0. -1.
</event>
<event>
 5    1  0.9034917E-005  0.9118800E+02  0.7818608E-02  0.1130116E+00
         25   -1    0    0    0    0  0.00000000000E+00  0.00000000000E+00  0.99999998245E-14  0.12500000000E+03  0.12500000000E+03 0.  0.
        -13    1    3    3    0    0 -0.32894098276E+02 -0.95564263549E+01 -0.13761534144E+02  0.36915281011E+02  0.10566000000E+00 0. -1.
         23    2    1    0    0    0  0.21583756183E+02 -0.22231417478E+02 -0.30486004813E+01  0.93864996885E+02  0.88550828462E+02 0.  0.
         13    1    3    3    0    0  0.54477854459E+02 -0.12674991123E+02  0.10712933662E+02  0.56949715874E+02  0.10566000000E+00 0.  1.
         22    1    1    0    0    0 -0.21583756183E+02  0.22231417478E+02  0.30486004813E+01  0.31135003115E+02  0.00000000000E+00 0.  1.
</event>
<event>
 4    1  0.9034917E-005  0.9118800E+02  0.7818608E-02  0.1130116E+00
         25   -1    0    0    0    0  0.00000000000E+00  0.00000000000E+00  0.99999998245E-14  0.12500000000E+03  0.12500000000E+03 0.  0.
        -13    1    1    0    0    0 -0.11431361107E+02 -0.49210742395E+02 -0.19066784005E+02  0.53999320368E+02  0.10566000000E+00 0.  1.
         13    1    1    0    0    0  0.10189949766E+01 -0.41122591442E+01  0.16035520932E+02  0.16586082166E+02  0.10566000000E+00 0. -1.
         22    1    1    0    0    0  0.10412366131E+02  0.53323001539E+02  0.30312630735E+01  0.54414597466E+02  0.00000000000E+00 0.  1.
</event>
<event>
 5    1  0.9034917E-005  0.9118800E+02  0.7818608E-02  0.1130116E+00
         25   -1    0    0    0    0  0.00000000000E+00  0.00000000000E+00  0.99999998245E-14  0.12500000000E+03  0.12500000000E+03 0.  0.
        -13    1    3    3    0    0  0.23929853694E+02  0.19180072352E+02 -0.52299011199E+02  0.60627640641E+02  0.10566000000E+00 0.  1.
         23    2    1    0    0    0  0.49321427915E+01  0.28364107475E+01 -0.30897170723E+02  0.93583341726E+02  0.88152342178E+02 0.  0.
         13    1    3    3    0    0 -0.18997710902E+02 -0.16343661605E+02  0.21401840476E+02  0.32955701085E+02  0.10566000000E+00 0. -1.
         22    1    1    0    0    0 -0.49321427915E+01 -0.28364107475E+01  0.30897170723E+02  0.31416658274E+02  0.00000000000E+00 0.  1.
</event>
<event>
 5    1  0.9034917E-005  0.9118800E+02  0.7818608E-02  0.1130116E+00
         25   -1    0    0    0    0  0.00000000000E+00  0.00000000000E+00  0.99999998245E-14  0.12500000000E+03  0.12500000000E+03 0.  0.
        -13    1    3    3    0    0  0.16706509116E+02  0.18931645279E+02 -0.52341284676E+02  0.58113130060E+02  0.10566000000E+00 0. -1.
         23    2    1    0    0    0  0.22836695387E+02  0.45538335299E+01 -0.18965471607E+02  0.94967664605E+02  0.90093929602E+02 0.  0.
         13    1    3    3    0    0  0.61301862714E+01 -0.14377811749E+02  0.33375813069E+02  0.36854534544E+02  0.10566000000E+00 0.  1.
         22    1    1    0    0    0 -0.22836695387E+02 -0.45538335299E+01  0.18965471607E+02  0.30032335395E+02  0.00000000000E+00 0. -1.
</event>
<event>
 5    1  0.9034917E-005  0.9118800E+02  0.7818608E-02  0.1130116E+00
         25   -1    0    0    0    0  0.00000000000E+00  0.00000000000E+00  0.99999998245E-14  0.12500000000E+03  0.12500000000E+03 0.  0.
        -13    1    3    3    0    0 -0.10731698493E+02  0.49858261850E+02 -0.19259860717E+02  0.54515768601E+02  0.10566000000E+00 0.  1.
         23    2    1    0    0    0 -0.21004811069E+02  0.27504391406E+02  0.61121261149E+01  0.89856697362E+02  0.82699300725E+02 0.  0.
         13    1    3    3    0    0 -0.10273112576E+02 -0.22353870444E+02  0.25371986832E+02  0.35340928761E+02  0.10566000000E+00 0. -1.
         22    1    1    0    0    0  0.21004811069E+02 -0.27504391406E+02 -0.61121261149E+01  0.35143302638E+02  0.00000000000E+00 0.  1.
</event>
<event>
 5    1  0.9034917E-005  0.9118800E+02  0.7818608E-02  0.1130116E+00
         25   -1    0    0    0    0  0.00000000000E+00  0.00000000000E+00  0.99999998245E-14  0.12500000000E+03  0.12500000000E+03 0.  0.
        -13    1    3    3    0    0 -0.29057832209E+02  0.21646345219E+02 -0.29756506361E+02  0.46886914047E+02  0.10566000000E+00 0.  1.
         23    2    1    0    0    0 -0.24772061023E+02 -0.16309088098E+02  0.56639417473E-01  0.95341197429E+02  0.90610702223E+02 0.  0.
         13    1    3    3    0    0  0.42857711859E+01 -0.37955433316E+02  0.29813145778E+02  0.48454283383E+02  0.10566000000E+00 0. -1.
         22    1    1    0    0    0  0.24772061023E+02  0.16309088098E+02 -0.56639417473E-01  0.29658802571E+02  0.00000000000E+00 0. -1.
</event>
<event>
 5    1  0.9034917E-005  0.9118800E+02  0.7818608E-02  0.1130116E+00
         25   -1    0    0    0    0  0.00000000000E+00  0.00000000000E+00  0.99999998245E-14  0.12500000000E+03  0.12500000000E+03 0.  0.
        -13    1    3    3    0    0 -0.22236668538E+02  0.11879811325E+02 -0.23576710842E+02  0.34517702747E+02  0.10566000000E+00 0.  1.
         23    2    1    0    0    0  0.13589761976E+02  0.45491559002E+01  0.25516855092E+02  0.95734212060E+02  0.91151264473E+02 0.  0.
         13    1    3    3    0    0  0.35826430513E+02 -0.73306554250E+01  0.49093565934E+02  0.61216509313E+02  0.10566000000E+00 0. -1.
         22    1    1    0    0    0 -0.13589761976E+02 -0.45491559002E+01 -0.25516855092E+02  0.29265787940E+02  0.00000000000E+00 0. -1.
</event>
<event>
 5    1  0.9034917E-005  0.9118800E+02  0.7818608E-02  0.1130116E+00
         25   -1    0    0    0    0  0.00000000000E+00  0.00000000000E+00  0.99999998245E-14  0.12500000000E+03  0.12500000000E+03 0.  0.
        -13    1    3    3    0    0  0.12331879594E+02  0.19865470102E+02  0.30832101520E+02  0.38695501093E+02  0.10566000000E+00 0. -1.
         23    2    1    0    0    0  0.20333949608E+02 -0.16589668882E+02 -0.12539327323E+02  0.95915272909E+02  0.91399224434E+02 0.  0.
         13    1    3    3    0    0  0.80020700144E+01 -0.36455138983E+02 -0.43371428842E+02  0.57219771816E+02  0.10566000000E+00 0.  1.
         22    1    1    0    0    0 -0.20333949608E+02  0.16589668882E+02  0.12539327323E+02  0.29084727091E+02  0.00000000000E+00 0.  1.
</event>
<event>
 5    1  0.9034917E-005  0.9118800E+02  0.7818608E-02  0.1130116E+00
         25   -1    0    0    0    0  0.00000000000E+00  0.00000000000E+00  0.99999998245E-14  0.12500000000E+03  0.12500000000E+03 0.  0.
        -13    1    3    3    0    0 -0.23341291909E+02 -0.33092488872E+02  0.14584667243E+02  0.43042448935E+02  0.10566000000E+00 0.  1.
         23    2    1    0    0    0 -0.16808146619E+02 -0.67570192333E+01 -0.26873557938E+02  0.92590754129E+02  0.86733433763E+02 0.  0.
         13    1    3    3    0    0  0.65331452901E+01  0.26335469639E+02 -0.41458225181E+02  0.49548305194E+02  0.10566000000E+00 0. -1.
         22    1    1    0    0    0  0.16808146619E+02  0.67570192333E+01  0.26873557938E+02  0.32409245871E+02  0.00000000000E+00 0. -1.
</event>
<event>
 5    1  0.9034917E-005  0.9118800E+02  0.7818608E-02  0.1130116E+00
         25   -1    0    0    0    0  0.00000000000E+00  0.00000000000E+00  0.99999998245E-14  0.12500000000E+03  0.12500000000E+03 0.  0.
        -13    1    3    3    0    0 -0.22704986578E+02 -0.41952542152E+02  0.40256750409E+02  0.62419142305E+02  0.10566000000E+00 0.  1.
         23    2    1    0    0    0 -0.95871789608E+01 -0.18078904822E+02  0.20191182792E+02  0.96252049420E+02  0.91858654220E+02 0.  0.
         13    1    3    3    0    0  0.13117807617E+02  0.23873637331E+02 -0.20065567616E+02  0.33832907116E+02  0.10566000000E+00 0. -1.
         22    1    1    0    0    0  0.95871789608E+01  0.18078904822E+02 -0.20191182792E+02  0.28747950580E+02  0.00000000000E+00 0.  1.
</event>
<event>
 5    1  0.9034917E-005  0.9118800E+02  0.7818608E-02  0.1130116E+00
         25   -1    0    0    0    0  0.00000000000E+00  0.00000000000E+00  0.99999998245E-14  0.12500000000E+03  0.12500000000E+03 0.  0.
        -13    1    3    3    0    0 -0.42764950919E+02 -0.10225807623E+02 -0.22050233210E+02  0.49189756223E+02  0.10566000000E+00 0.  1.
         23    2    1    0    0    0 -0.22230654984E+02 -0.31888351201E+01  0.18971877220E+02  0.95600972538E+02  0.90968363372E+02 0.  0.
         13    1    3    3    0    0  0.20534295935E+02  0.70369725027E+01  0.41022110431E+02  0.46411216315E+02  0.10566000000E+00 0. -1.
         22    1    1    0    0    0  0.22230654984E+02  0.31888351201E+01 -0.18971877220E+02  0.29399027462E+02  0.00000000000E+00 0. -1.
</event>
<event>
 5    1  0.9034917E-005  0.9118800E+02  0.7818608E-02  0.1130116E+00
         25   -1    0    0    0    0  0.00000000000E+00  0.00000000000E+00  0.99999998245E-14  0.12500000000E+03  0.12500000000E+03 0.  0.
        -13    1    3    3    0    0  0.28398489131E+02  0.25752383658E+02 -0.37945194356E+01  0.38523616014E+02  0.10566000000E+00 0. -1.
         23    2    1    0    0    0 -0.25633843934E+02  0.57376184990E+00  0.52811553670E+01  0.98821501962E+02  0.95291004247E+02 0.  0.
         13    1    3    3    0    0 -0.54032333065E+02 -0.25178621808E+02  0.90756748026E+01  0.60297885948E+02  0.10566000000E+00 0.  1.
         22    1    1    0    0    0  0.25633843934E+02 -0.57376184990E+00 -0.52811553670E+01  0.26178498038E+02  0.00000000000E+00 0.  1.
</event>
<event>
 5    1  0.9034917E-005  0.9118800E+02  0.7818608E-02  0.1130116E+00
         25   -1    0    0    0    0  0.00000000000E+00  0.00000000000E+00  0.99999998245E-14  0.12500000000E+03  0.12500000000E+03 0.  0.
        -13    1    3    3    0    0 -0.11223396143E+02  0.18775754526E+02  0.50298678440E+02  0.54849446633E+02  0.10566000000E+00 0. -1.
         23    2    1    0    0    0  0.15967484935E+02  0.13318451922E+02  0.17325838699E+02  0.97934774648E+02  0.94120633561E+02 0.  0.
         13    1    3    3    0    0  0.27190881078E+02 -0.54573026042E+01 -0.32972839741E+02  0.43085328015E+02  0.10566000000E+00 0.  1.
         22    1    1    0    0    0 -0.15967484935E+02 -0.13318451922E+02 -0.17325838699E+02  0.27065225352E+02  0.00000000000E+00 0. -1.
</event>
<event>
 5    1  0.9034917E-005  0.9118800E+02  0.7818608E-02  0.1130116E+00
         25   -1    0    0    0    0  0.00000000000E+00  0.00000000000E+00  0.99999998245E-14  0.12500000000E+03  0.12500000000E+03 0.  0.
        -13    1    3    3    0    0  0.45639031368E+02 -0.25655266348E+02  0.19873339273E+01  0.52393458902E+02  0.10566000000E+00 0. -1.
         23    2    1    0    0    0  0.33058914943E+02  0.64048225889E+01 -0.11552945646E+02  0.89399660638E+02  0.82005580050E+02 0.  0.
         13    1    3    3    0    0 -0.12580116425E+02  0.32060088937E+02 -0.13540279574E+02  0.37006201735E+02  0.10566000000E+00 0.  1.
         22    1    1    0    0    0 -0.33058914943E+02 -0.64048225889E+01  0.11552945646E+02  0.35600339362E+02  0.00000000000E+00 0. -1.
</event>
<event>
 5    1  0.9034917E-005  0.9118800E+02  0.7818608E-02  0.1130116E+00
         25   -1    0    0    0    0  0.00000000000E+00  0.00000000000E+00  0.99999998245E-14  0.12500000000E+03  0.12500000000E+03 0.  0.
        -13    1    3    3    0    0 -0.21496450095E+02 -0.47104307369E+02 -0.22062762257E+02  0.56282233270E+02  0.10566000000E+00 0. -1.
         23    2    1    0    0    0 -0.19906088273E+01 -0.13122833616E+02 -0.26147497405E+02  0.95676580927E+02  0.91072197908E+02 0.  0.
         13    1    3    3    0    0  0.19505841268E+02  0.33981473754E+02 -0.40847351473E+01  0.39394347657E+02  0.10566000000E+00 0.  1.
         22    1    1    0    0    0  0.19906088273E+01  0.13122833616E+02  0.26147497405E+02  0.29323419073E+02  0.00000000000E+00 0. -1.
</event>
<event>
 5    1  0.9034917E-005  0.9118800E+02  0.7818608E-02  0.1130116E+00
         25   -1    0    0    0    0  0.00000000000E+00  0.00000000000E+00  0.99999998245E-14  0.12500000000E+03  0.12500000000E+03 0.  0.
        -13    1    3    3    0    0  0.21908373965E+02  0.28090648796E+02  0.12908694553E+02  0.37890723914E+02  0.10566000000E+00 0.  1.
         23    2    1    0    0    0  0.27711261235E+01 -0.25519826968E+02 -0.73279095585E+01  0.98304701407E+02  0.94610651366E+02 0.  0.
         13    1    3    3    0    0 -0.19137247842E+02 -0.53610475764E+02 -0.20236604111E+02  0.60413977494E+02  0.10566000000E+00 0. -1.
         22    1    1    0    0    0 -0.27711261235E+01  0.25519826968E+02  0.73279095585E+01  0.26695298593E+02  0.00000000000E+00 0. -1.
</event>
<event>
 5    1  0.9034917E-005  0.9118800E+02  0.7818608E-02  0.1130116E+00
         25   -1    0    0    0    0  0.00000000000E+00  0.00000000000E+00  0.99999998245E-14  0.12500000000E+03  0.12500000000E+03 0.  0.
        -13    1    3    3    0    0 -0.61459364991E+01 -0.40646265953E+02  0.33697864756E+02  0.53154950141E+02  0.10566000000E+00 0.  1.
         23    2    1    0    0    0  0.21205847819E+02 -0.18898026323E+02  0.13080627512E+02  0.93728188464E+02  0.88357496094E+02 0.  0.
         13    1    3    3    0    0  0.27351784318E+02  0.21748239630E+02 -0.20617237244E+02  0.40573238323E+02  0.10566000000E+00 0. -1.
         22    1    1    0    0    0 -0.21205847819E+02  0.18898026323E+02 -0.13080627512E+02  0.31271811536E+02  0.00000000000E+00 0.  1.
</event>
<event>
 5    1  0.9034917E-005  0.9118800E+02  0.7818608E-02  0.1130116E+00
         25   -1    0    0    0    0  0.00000000000E+00  0.00000000000E+00  0.99999998245E-14  0.12500000000E+03  0.12500000000E+03 0.  0.
        -13    1    3    3    0    0  0.19827822225E+02 -0.31061122750E+02  0.15514397029E+02  0.39983040904E+02  0.10566000000E+00 0. -1.
         23    2    1    0    0    0  0.21634465880E+02  0.17578610818E+02  0.22527968722E+02  0.89159142770E+02  0.81638138713E+02 0.  0.
         13    1    3    3    0    0  0.18066436545E+01  0.48639733568E+02  0.70135716932E+01  0.49176101867E+02  0.10566000000E+00 0.  1.
         22    1    1    0    0    0 -0.21634465880E+02 -0.17578610818E+02 -0.22527968722E+02  0.35840857230E+02  0.00000000000E+00 0.  1.
</event>
<event>
 5    1  0.9034917E-005  0.9118800E+02  0.7818608E-02  0.1130116E+00
         25   -1    0    0    0    0  0.00000000000E+00  0.00000000000E+00  0.99999998245E-14  0.12500000000E+03  0.12500000000E+03 0.  0.
        -13    1    3    3    0    0 -0.12752834727E+02 -0.31509850931E+02  0.42450043474E+02  0.54383111848E+02  0.10566000000E+00 0.  1.
         23    2    1    0    0    0 -0.20470113917E+02 -0.20214178126E+02  0.30746035179E+01  0.96067462125E+02  0.91607125985E+02 0.  0.
         13    1    3    3    0    0 -0.77172791901E+01  0.11295672805E+02 -0.39375439956E+02  0.41684350277E+02  0.10566000000E+00 0. -1.
         22    1    1    0    0    0  0.20470113917E+02  0.20214178126E+02 -0.30746035179E+01  0.28932537875E+02  0.00000000000E+00 0.  1.
</event>
<event>
 5    1  0.9034917E-005  0.9118800E+02  0.7818608E-02  0.1130116E+00
         25   -1    0    0    0    0  0.00000000000E+00  0.00000000000E+00  0.99999998245E-14  0.12500000000E+03  0.12500000000E+03 0.  0.
        -13    1    3    3    0    0 -0.40314517874E+02 -0.34949898076E+02  0.96396937904E+01  0.54218913557E+02  0.10566000000E+00 0.  1.
         23    2    1    0    0    0 -0.11039975738E+02 -0.25064455745E+02 -0.15030932911E+02  0.93758409927E+02  0.88400240281E+02 0.  0.
         13    1    3    3    0    0  0.29274542136E+02  0.98854423309E+01 -0.24670626701E+02  0.39539496370E+02  0.10566000000E+00 0. -1.
         22    1    1    0    0    0  0.11039975738E+02  0.25064455745E+02  0.15030932911E+02  0.31241590073E+02  0.00000000000E+00 0.  1.
</event>
<event>
 5    1  0.9034917E-005  0.9118800E+02  0.7818608E-02  0.1130116E+00
         25   -1    0    0    0    0  0.00000000000E+00  0.00000000000E+00  0.99999998245E-14  0.12500000000E+03  0.12500000000E+03 0.  0.
        -13    1    3    3    0    0 -0.28112479081E+02 -0.43092847563E+02  0.13090169365E+02  0.53091135693E+02  0.10566000000E+00 0.  1.
         23    2    1    0    0    0 -0.28210586051E+02 -0.14654215037E+01  0.10718262695E+02  0.94786331227E+02  0.89841987994E+02 0.  0.
         13    1    3    3    0    0 -0.98106970569E-01  0.41627426059E+02 -0.23719066703E+01  0.41695195533E+02  0.10566000000E+00 0. -1.
         22    1    1    0    0    0  0.28210586051E+02  0.14654215037E+01 -0.10718262695E+02  0.30213668773E+02  0.00000000000E+00 0. -1.
</event>
<event>
 5    1  0.9034917E-005  0.9118800E+02  0.7818608E-02  0.1130116E+00
         25   -1    0    0    0    0  0.00000000000E+00  0.00000000000E+00  0.99999998245E-14  0.12500000000E+03  0.12500000000E+03 0.  0.
        -13    1    3    3    0    0  0.22722413246E+02 -0.30579274874E+02  0.20911629453E+02  0.43459262833E+02  0.10566000000E+00 0.  1.
         23    2    1    0    0    0  0.21967569231E+02  0.18277229094E+02  0.48600230315E+00  0.96419107791E+02  0.92085704361E+02 0.  0.
         13    1    3    3    0    0 -0.75484401568E+00  0.48856503968E+02 -0.20425627150E+02  0.52959844958E+02  0.10566000000E+00 0. -1.
         22    1    1    0    0    0 -0.21967569231E+02 -0.18277229094E+02 -0.48600230315E+00  0.28580892209E+02  0.00000000000E+00 0.  1.
</event>
<event>
 5    1  0.9034917E-005  0.9118800E+02  0.7818608E-02  0.1130116E+00
         25   -1    0    0    0    0  0.00000000000E+00  0.00000000000E+00  0.99999998245E-14  0.12500000000E+03  0.12500000000E+03 0.  0.
        -13    1    3    3    0    0  0.23426936797E+02 -0.12587332786E+02  0.54442342894E+02  0.60590776345E+02  0.10566000000E+00 0.  1.
         23    2    1    0    0    0  0.14430806044E+02 -0.15973625090E+02  0.22877882027E+02  0.93586589684E+02  0.88156947662E+02 0.  0.
         13    1    3    3    0    0 -0.89961307526E+01 -0.33862923040E+01 -0.31564460866E+02  0.32995813339E+02  0.10566000000E+00 0. -1.
         22    1    1    0    0    0 -0.14430806044E+02  0.15973625090E+02 -0.22877882027E+02  0.31413410316E+02  0.00000000000E+00 0.  1.
</event>
<event>
 5    1  0.9034917E-005  0.9118800E+02  0.7818608E-02  0.1130116E+00
         25   -1    0    0    0    0  0.00000000000E+00  0.00000000000E+00  0.99999998245E-14  0.12500000000E+03  0.12500000000E+03 0.  0.
        -13    1    3    3    0    0 -0.23383201660E+02 -0.38754155084E+02  0.20269281205E+02  0.49593483249E+02  0.10566000000E+00 0.  1.
         23    2    1    0    0    0  0.47747107869E+00 -0.17244939296E+01  0.30197140606E+02  0.94749889939E+02  0.89791271762E+02 0.  0.
         13    1    3    3    0    0  0.23860672739E+02  0.37029661155E+02  0.99278594010E+01  0.45156406689E+02  0.10566000000E+00 0. -1.
         22    1    1    0    0    0 -0.47747107869E+00  0.17244939296E+01 -0.30197140606E+02  0.30250110061E+02  0.00000000000E+00 0.  1.
</event>
<event>
 5    1  0.9034917E-005  0.9118800E+02  0.7818608E-02  0.1130116E+00
         25   -1    0    0    0    0  0.00000000000E+00  0.00000000000E+00  0.99999998245E-14  0.12500000000E+03  0.12500000000E+03 0.  0.
        -13    1    3    3    0    0 -0.35994688647E+02 -0.62698017821E+01 -0.65844311357E+01  0.37125381111E+02  0.10566000000E+00 0.  1.
         23    2    1    0    0    0  0.60428685683E+01 -0.58130933529E+01  0.30613033217E+02  0.93259393238E+02  0.87691780171E+02 0.  0.
         13    1    3    3    0    0  0.42037557216E+02  0.45670842922E+00  0.37197464352E+02  0.56134012128E+02  0.10566000000E+00 0. -1.
         22    1    1    0    0    0 -0.60428685683E+01  0.58130933529E+01 -0.30613033217E+02  0.31740606762E+02  0.00000000000E+00 0. -1.
</event>
<event>
 5    1  0.9034917E-005  0.9118800E+02  0.7818608E-02  0.1130116E+00
         25   -1    0    0    0    0  0.00000000000E+00  0.00000000000E+00  0.99999998245E-14  0.12500000000E+03  0.12500000000E+03 0.  0.
        -13    1    3    3    0    0 -0.13153180169E+02 -0.29430317405E+02 -0.24473274332E+02  0.40473473432E+02  0.10566000000E+00 0.  1.
         23    2    1    0    0    0  0.19085876175E+02 -0.22002607071E+02  0.15211632855E+02  0.92140006674E+02  0.86081366558E+02 0.  0.
         13    1    3    3    0    0  0.32239056344E+02  0.74277103336E+01  0.39684907187E+02  0.51666533242E+02  0.10566000000E+00 0. -1.
         22    1    1    0    0    0 -0.19085876175E+02  0.22002607071E+02 -0.15211632855E+02  0.32859993326E+02  0.00000000000E+00 0. -1.
</event>
<event>
 5    1  0.9034917E-005  0.9118800E+02  0.7818608E-02  0.1130116E+00
         25   -1    0    0    0    0  0.00000000000E+00  0.00000000000E+00  0.99999998245E-14  0.12500000000E+03  0.12500000000E+03 0.  0.
        -13    1    3    3    0    0 -0.51176706801E+02  0.34486476171E+02  0.58446639289E+01  0.61988253873E+02  0.10566000000E+00 0.  1.
         23    2    1    0    0    0 -0.24895793646E+02  0.11270372022E+02  0.58390499610E+01  0.97055119767E+02  0.92945037209E+02 0.  0.
         13    1    3    3    0    0  0.26280913156E+02 -0.23216104149E+02 -0.56139679461E-02  0.35066865895E+02  0.10566000000E+00 0. -1.
         22    1    1    0    0    0  0.24895793646E+02 -0.11270372022E+02 -0.58390499610E+01  0.27944880233E+02  0.00000000000E+00 0.  1.
</event>
<event>
 5    1  0.9034917E-005  0.9118800E+02  0.7818608E-02  0.1130116E+00
         25   -1    0    0    0    0  0.00000000000E+00  0.00000000000E+00  0.99999998245E-14  0.12500000000E+03  0.12500000000E+03 0.  0.
        -13    1    3    3    0    0 -0.52894467652E+02 -0.92707710437E+01  0.31715029698E+01  0.53794437436E+02  0.10566000000E+00 0.  1.
         23    2    1    0    0    0 -0.16682841956E+02 -0.10530015052E+02  0.22675334699E+02  0.94943898515E+02  0.90060949522E+02 0.  0.
         13    1    3    3    0    0  0.36211625696E+02 -0.12592440086E+01  0.19503831729E+02  0.41149461080E+02  0.10566000000E+00 0. -1.
         22    1    1    0    0    0  0.16682841956E+02  0.10530015052E+02 -0.22675334699E+02  0.30056101485E+02  0.00000000000E+00 0.  1.
</event>
<event>
 5    1  0.9034917E-005  0.9118800E+02  0.7818608E-02  0.1130116E+00
         25   -1    0    0    0    0  0.00000000000E+00  0.00000000000E+00  0.99999998245E-14  0.12500000000E+03  0.12500000000E+03 0.  0.
        -13    1    3    3    0    0  0.32365749696E+02 -0.40782416310E+02  0.22283426900E+02  0.56633113210E+02  0.10566000000E+00 0.  1.
         23    2    1    0    0    0 -0.66837399473E+00 -0.29715453441E+02  0.86566530743E+01  0.94042084381E+02  0.88800456616E+02 0.  0.
         13    1    3    3    0    0 -0.33034123690E+02  0.11066962869E+02 -0.13626773826E+02  0.37408971171E+02  0.10566000000E+00 0. -1.
         22    1    1    0    0    0  0.66837399473E+00  0.29715453441E+02 -0.86566530743E+01  0.30957915619E+02  0.00000000000E+00 0.  1.
</event>
<event>
 5    1  0.9034917E-005  0.9118800E+02  0.7818608E-02  0.1130116E+00
         25   -1    0    0    0    0  0.00000000000E+00  0.00000000000E+00  0.99999998245E-14  0.12500000000E+03  0.12500000000E+03 0.  0.
        -13    1    3    3    0    0 -0.45203077763E+02 -0.85097668910E+01  0.31017455751E+02  0.55478176764E+02  0.10566000000E+00 0.  1.
         23    2    1    0    0    0 -0.14300241737E+02 -0.16745798406E+02 -0.36880116143E+01  0.10267243615E+03  0.10021531338E+03 0.  0.
         13    1    3    3    0    0  0.30902836026E+02 -0.82360315147E+01 -0.34705467365E+02  0.47194259382E+02  0.10566000000E+00 0. -1.
         22    1    1    0    0    0  0.14300241737E+02  0.16745798406E+02  0.36880116143E+01  0.22327563854E+02  0.00000000000E+00 0.  1.
</event>
<event>
 5    1  0.9034917E-005  0.9118800E+02  0.7818608E-02  0.1130116E+00
         25   -1    0    0    0    0  0.00000000000E+00  0.00000000000E+00  0.99999998245E-14  0.12500000000E+03  0.12500000000E+03 0.  0.
        -13    1    3    3    0    0 -0.33220404704E+02  0.99476315621E+01  0.46381610462E+02  0.57912137031E+02  0.10566000000E+00 0.  1.
         23    2    1    0    0    0 -0.52535007306E+01 -0.84037945450E+01  0.26221522515E+02  0.96968031184E+02  0.92827839553E+02 0.  0.
         13    1    3    3    0    0  0.27966903974E+02 -0.18351426107E+02 -0.20160087947E+02  0.39055894153E+02  0.10566000000E+00 0. -1.
         22    1    1    0    0    0  0.52535007306E+01  0.84037945450E+01 -0.26221522515E+02  0.28031968816E+02  0.00000000000E+00 0.  1.
</event>
<event>
 5    1  0.9034917E-005  0.9118800E+02  0.7818608E-02  0.1130116E+00
         25   -1    0    0    0    0  0.00000000000E+00  0.00000000000E+00  0.99999998245E-14  0.12500000000E+03  0.12500000000E+03 0.  0.
        -13    1    3    3    0    0 -0.30786147708E+02 -0.26242780707E+02 -0.47563875510E+02  0.62440402365E+02  0.10566000000E+00 0.  1.
         23    2    1    0    0    0 -0.12740965018E+02 -0.12930672076E+02 -0.22972041696E+02  0.95721182237E+02  0.91133394314E+02 0.  0.
         13    1    3    3    0    0  0.18045182690E+02  0.13312108631E+02  0.24591833814E+02  0.33280779872E+02  0.10566000000E+00 0. -1.
         22    1    1    0    0    0  0.12740965018E+02  0.12930672076E+02  0.22972041696E+02  0.29278817763E+02  0.00000000000E+00 0.  1.
</event>
<event>
 5    1  0.9034917E-005  0.9118800E+02  0.7818608E-02  0.1130116E+00
         25   -1    0    0    0    0  0.00000000000E+00  0.00000000000E+00  0.99999998245E-14  0.12500000000E+03  0.12500000000E+03 0.  0.
        -13    1    3    3    0    0 -0.11777007300E+02 -0.16321090787E+01 -0.33623979697E+02  0.35664335907E+02  0.10566000000E+00 0. -1.
         23    2    1    0    0    0 -0.21358170666E+01  0.15530576258E+02  0.23874118221E+02  0.96438941997E+02  0.92112623994E+02 0.  0.
         13    1    3    3    0    0  0.96411902332E+01  0.17162685337E+02  0.57498097918E+02  0.60774606089E+02  0.10566000000E+00 0.  1.
         22    1    1    0    0    0  0.21358170666E+01 -0.15530576258E+02 -0.23874118221E+02  0.28561058003E+02  0.00000000000E+00 0.  1.
</event>
<event>
 5    1  0.9034917E-005  0.9118800E+02  0.7818608E-02  0.1130116E+00
         25   -1    0    0    0    0  0.00000000000E+00  0.00000000000E+00  0.99999998245E-14  0.12500000000E+03  0.12500000000E+03 0.  0.
        -13    1    3    3    0    0 -0.32417509690E+02 -0.87892820661E+00  0.10199543713E+02  0.33995724809E+02  0.10566000000E+00 0.  1.
         23    2    1    0    0    0  0.20635585284E+02 -0.11732761440E+02 -0.18148793830E+02  0.95119173564E+02  0.90303894661E+02 0.  0.
         13    1    3    3    0    0  0.53053094974E+02 -0.10853833234E+02 -0.28348337542E+02  0.61123448755E+02  0.10566000000E+00 0. -1.
         22    1    1    0    0    0 -0.20635585284E+02  0.11732761440E+02  0.18148793830E+02  0.29880826436E+02  0.00000000000E+00 0. -1.
</event>
<event>
 5    1  0.9034917E-005  0.9118800E+02  0.7818608E-02  0.1130116E+00
         25   -1    0    0    0    0  0.00000000000E+00  0.00000000000E+00  0.99999998245E-14  0.12500000000E+03  0.12500000000E+03 0.  0.
        -13    1    3    3    0    0 -0.43457067933E+02  0.31967790878E+02 -0.55766904621E+01  0.54236215277E+02  0.10566000000E+00 0. -1.
         23    2    1    0    0    0 -0.23001455410E+02 -0.21748430376E+01 -0.17757826143E+02  0.95860039764E+02  0.91323654882E+02 0.  0.
         13    1    3    3    0    0  0.20455612523E+02 -0.34142633916E+02 -0.12181135681E+02  0.41623824487E+02  0.10566000000E+00 0.  1.
         22    1    1    0    0    0  0.23001455410E+02  0.21748430376E+01  0.17757826143E+02  0.29139960236E+02  0.00000000000E+00 0. -1.
</event>
<event>
 5    1  0.9034917E-005  0.9118800E+02  0.7818608E-02  0.1130116E+00
         25   -1    0    0    0    0  0.00000000000E+00  0.00000000000E+00  0.99999998245E-14  0.12500000000E+03  0.12500000000E+03 0.  0.
        -13    1    3    3    0    0 -0.27780215889E+02  0.86927136624E+01 -0.35688370076E+02  0.46054039871E+02  0.10566000000E+00 0.  1.
         23    2    1    0    0    0 -0.25933473914E+02 -0.79764105905E+01  0.11044931401E+02  0.95705654047E+02  0.91112093114E+02 0.  0.
         13    1    3    3    0    0  0.18467419748E+01 -0.16669124253E+02  0.46733301478E+02  0.49651614176E+02  0.10566000000E+00 0. -1.
         22    1    1    0    0    0  0.25933473914E+02  0.79764105905E+01 -0.11044931401E+02  0.29294345953E+02  0.00000000000E+00 0. -1.
</event>
<event>
 5    1  0.9034917E-005  0.9118800E+02  0.7818608E-02  0.1130116E+00
         25   -1    0    0    0    0  0.00000000000E+00  0.00000000000E+00  0.99999998245E-14  0.12500000000E+03  0.12500000000E+03 0.  0.
        -13    1    3    3    0    0 -0.16925870864E+02 -0.59302416960E+01  0.30867686575E+02  0.35699833467E+02  0.10566000000E+00 0. -1.
         23    2    1    0    0    0 -0.14005988823E+02 -0.38701284382E+02 -0.40104849648E+01  0.83647356489E+02  0.72710653429E+02 0.  0.
         13    1    3    3    0    0  0.29198820416E+01 -0.32771042686E+02 -0.34878171540E+02  0.47947523021E+02  0.10566000000E+00 0.  1.
         22    1    1    0    0    0  0.14005988823E+02  0.38701284382E+02  0.40104849648E+01  0.41352643511E+02  0.00000000000E+00 0.  1.
</event>
<event>
 5    1  0.9034917E-005  0.9118800E+02  0.7818608E-02  0.1130116E+00
         25   -1    0    0    0    0  0.00000000000E+00  0.00000000000E+00  0.99999998245E-14  0.12500000000E+03  0.12500000000E+03 0.  0.
        -13    1    3    3    0    0 -0.12827090561E+02 -0.39998539198E+01 -0.34117356630E+02  0.36667946099E+02  0.10566000000E+00 0. -1.
         23    2    1    0    0    0 -0.12469314296E+02 -0.14925512856E+02  0.23032797648E+02  0.94854278902E+02  0.89936476057E+02 0.  0.
         13    1    3    3    0    0  0.35777626538E+00 -0.10925658936E+02  0.57150154278E+02  0.58186332803E+02  0.10566000000E+00 0.  1.
         22    1    1    0    0    0  0.12469314296E+02  0.14925512856E+02 -0.23032797648E+02  0.30145721098E+02  0.00000000000E+00 0.  1.
</event>
<event>
 5    1  0.9034917E-005  0.9118800E+02  0.7818608E-02  0.1130116E+00
         25   -1    0    0    0    0  0.00000000000E+00  0.00000000000E+00  0.99999998245E-14  0.12500000000E+03  0.12500000000E+03 0.  0.
        -13    1    3    3    0    0 -0.31237342828E+02  0.22582203546E+02 -0.19765521400E+02  0.43317600398E+02  0.10566000000E+00 0. -1.
         23    2    1    0    0    0 -0.23705697825E+02 -0.21197449556E+02  0.26751642483E+01  0.93086860374E+02  0.87445497846E+02 0.  0.
         13    1    3    3    0    0  0.75316450037E+01 -0.43779653102E+02  0.22440685648E+02  0.49769259976E+02  0.10566000000E+00 0.  1.
         22    1    1    0    0    0  0.23705697825E+02  0.21197449556E+02 -0.26751642483E+01  0.31913139626E+02  0.00000000000E+00 0.  1.
</event>
<event>
 5    1  0.9034917E-005  0.9118800E+02  0.7818608E-02  0.1130116E+00
         25   -1    0    0    0    0  0.00000000000E+00  0.00000000000E+00  0.99999998245E-14  0.12500000000E+03  0.12500000000E+03 0.  0.
        -13    1    3    3    0    0 -0.24286465265E+02  0.22759148307E+02  0.47701080139E+02  0.58165414442E+02  0.10566000000E+00 0.  1.
         23    2    1    0    0    0 -0.59945342584E+01 -0.25118119670E+01  0.30550954805E+02  0.93765332084E+02  0.88410027830E+02 0.  0.
         13    1    3    3    0    0  0.18291931007E+02 -0.25270960274E+02 -0.17150125333E+02  0.35599917642E+02  0.10566000000E+00 0. -1.
         22    1    1    0    0    0  0.59945342584E+01  0.25118119670E+01 -0.30550954805E+02  0.31234667916E+02  0.00000000000E+00 0.  1.
</event>
<event>
 5    1  0.9034917E-005  0.9118800E+02  0.7818608E-02  0.1130116E+00
         25   -1    0    0    0    0  0.00000000000E+00  0.00000000000E+00  0.99999998245E-14  0.12500000000E+03  0.12500000000E+03 0.  0.
        -13    1    3    3    0    0 -0.82000810899E+01  0.28358007565E+01 -0.53188295576E+02  0.53891456151E+02  0.10566000000E+00 0.  1.
         23    2    1    0    0    0 -0.20211419007E+02  0.18530568381E+02 -0.30138772962E+02  0.84254091512E+02  0.73746341456E+02 0.  0.
         13    1    3    3    0    0 -0.12011337917E+02  0.15694767625E+02  0.23049522613E+02  0.30362635361E+02  0.10566000000E+00 0. -1.
         22    1    1    0    0    0  0.20211419007E+02 -0.18530568381E+02  0.30138772962E+02  0.40745908488E+02  0.00000000000E+00 0.  1.
</event>
<event>
 5    1  0.9034917E-005  0.9118800E+02  0.7818608E-02  0.1130116E+00
         25   -1    0    0    0    0  0.00000000000E+00  0.00000000000E+00  0.99999998245E-14  0.12500000000E+03  0.12500000000E+03 0.  0.
        -13    1    3    3    0    0  0.34441069218E+01  0.26925923806E+01  0.32448857923E+02  0.32742197098E+02  0.10566000000E+00 0. -1.
         23    2    1    0    0    0 -0.13419621248E+01 -0.74611645576E+01 -0.28906460991E+02  0.95116002176E+02  0.90299504673E+02 0.  0.
         13    1    3    3    0    0 -0.47860690467E+01 -0.10153756938E+02 -0.61355318914E+02  0.62373805079E+02  0.10566000000E+00 0.  1.
         22    1    1    0    0    0  0.13419621248E+01  0.74611645576E+01  0.28906460991E+02  0.29883997824E+02  0.00000000000E+00 0.  1.
</event>
<event>
 5    1  0.9034917E-005  0.9118800E+02  0.7818608E-02  0.1130116E+00
         25   -1    0    0    0    0  0.00000000000E+00  0.00000000000E+00  0.99999998245E-14  0.12500000000E+03  0.12500000000E+03 0.  0.
        -13    1    3    3    0    0 -0.10949917601E+02  0.27698138869E+02  0.17418679537E+02  0.34503755638E+02  0.10566000000E+00 0.  1.
         23    2    1    0    0    0  0.12909590393E+02 -0.97057948475E+01 -0.24575245790E+02  0.95592472335E+02  0.90956682457E+02 0.  0.
         13    1    3    3    0    0  0.23859507994E+02 -0.37403933717E+02 -0.41993925327E+02  0.61088716696E+02  0.10566000000E+00 0. -1.
         22    1    1    0    0    0 -0.12909590393E+02  0.97057948475E+01  0.24575245790E+02  0.29407527665E+02  0.00000000000E+00 0. -1.
</event>
<event>
 5    1  0.9034917E-005  0.9118800E+02  0.7818608E-02  0.1130116E+00
         25   -1    0    0    0    0  0.00000000000E+00  0.00000000000E+00  0.99999998245E-14  0.12500000000E+03  0.12500000000E+03 0.  0.
        -13    1    3    3    0    0  0.81122779285E+01  0.18253612039E+02 -0.36333663449E+02  0.41462629793E+02  0.10566000000E+00 0. -1.
         23    2    1    0    0    0 -0.26055766636E+02 -0.11795770865E+02 -0.71529092099E+01  0.95517678255E+02  0.90853836264E+02 0.  0.
         13    1    3    3    0    0 -0.34168044565E+02 -0.30049382904E+02  0.29180754239E+02  0.54055048463E+02  0.10566000000E+00 0.  1.
         22    1    1    0    0    0  0.26055766636E+02  0.11795770865E+02  0.71529092099E+01  0.29482321745E+02  0.00000000000E+00 0.  1.
</event>
<event>
 5    1  0.9034917E-005  0.9118800E+02  0.7818608E-02  0.1130116E+00
         25   -1    0    0    0    0  0.00000000000E+00  0.00000000000E+00  0.99999998245E-14  0.12500000000E+03  0.12500000000E+03 0.  0.
        -13    1    3    3    0    0  0.21327704758E+02 -0.27093792660E+02  0.14818921866E+02  0.37530736741E+02  0.10566000000E+00 0. -1.
         23    2    1    0    0    0 -0.26495793688E+02  0.62480843116E+01  0.98854945542E+01  0.96038151935E+02  0.91567122833E+02 0.  0.
         13    1    3    3    0    0 -0.47823498447E+02  0.33341876972E+02 -0.49334273119E+01  0.58507415195E+02  0.10566000000E+00 0.  1.
         22    1    1    0    0    0  0.26495793688E+02 -0.62480843116E+01 -0.98854945542E+01  0.28961848065E+02  0.00000000000E+00 0.  1.
</event>
<event>
 5    1  0.9034917E-005  0.9118800E+02  0.7818608E-02  0.1130116E+00
         25   -1    0    0    0    0  0.00000000000E+00  0.00000000000E+00  0.99999998245E-14  0.12500000000E+03  0.12500000000E+03 0.  0.
        -13    1    3    3    0    0  0.32070873645E+02  0.81948768963E+01  0.39617465602E+02  0.51626075664E+02  0.10566000000E+00 0. -1.
         23    2    1    0    0    0  0.84717473284E+01  0.24695529157E+02  0.22593345214E+01  0.98794194238E+02  0.95255176025E+02 0.  0.
         13    1    3    3    0    0 -0.23599126316E+02  0.16500652261E+02 -0.37358131081E+02  0.47168118574E+02  0.10566000000E+00 0.  1.
         22    1    1    0    0    0 -0.84717473284E+01 -0.24695529157E+02 -0.22593345214E+01  0.26205805762E+02  0.00000000000E+00 0. -1.
</event>
<event>
 5    1  0.9034917E-005  0.9118800E+02  0.7818608E-02  0.1130116E+00
         25   -1    0    0    0    0  0.00000000000E+00  0.00000000000E+00  0.99999998245E-14  0.12500000000E+03  0.12500000000E+03 0.  0.
        -13    1    3    3    0    0 -0.34790018225E+02  0.18430006302E+02 -0.28462115208E+01  0.39473061503E+02  0.10566000000E+00 0. -1.
         23    2    1    0    0    0 -0.29881830930E+01 -0.27642324376E+02  0.70340722381E+01  0.96320643185E+02  0.91951948300E+02 0.  0.
         13    1    3    3    0    0  0.31801835132E+02 -0.46072330678E+02  0.98802837589E+01  0.56847581681E+02  0.10566000000E+00 0.  1.
         22    1    1    0    0    0  0.29881830930E+01  0.27642324376E+02 -0.70340722381E+01  0.28679356815E+02  0.00000000000E+00 0.  1.
</event>
<event>
 5    1  0.9034917E-005  0.9118800E+02  0.7818608E-02  0.1130116E+00
         25   -1    0    0    0    0  0.00000000000E+00  0.00000000000E+00  0.99999998245E-14  0.12500000000E+03  0.12500000000E+03 0.  0.
        -13    1    3    3    0    0  0.31395009165E+02 -0.46539634568E+02  0.11136423300E+01  0.56150116201E+02  0.10566000000E+00 0. -1.
         23    2    1    0    0    0 -0.48468603812E+01 -0.27457646369E+02  0.51652488302E+00  0.97113064033E+02  0.93022932700E+02 0.  0.
         13    1    3    3    0    0 -0.36241869546E+02  0.19081988198E+02 -0.59711744699E+00  0.40962947832E+02  0.10566000000E+00 0.  1.
         22    1    1    0    0    0  0.48468603812E+01  0.27457646369E+02 -0.51652488302E+00  0.27886935967E+02  0.00000000000E+00 0. -1.
</event>
<event>
 5    1  0.9034917E-005  0.9118800E+02  0.7818608E-02  0.1130116E+00
         25   -1    0    0    0    0  0.00000000000E+00  0.00000000000E+00  0.99999998245E-14  0.12500000000E+03  0.12500000000E+03 0.  0.
        -13    1    3    3    0    0 -0.12013891537E+02  0.26240432467E+02 -0.19818571609E+02  0.35009724800E+02  0.10566000000E+00 0.  1.
         23    2    1    0    0    0  0.34090684487E+02  0.65728123798E+01 -0.19592560896E+02  0.85134663255E+02  0.75224103941E+02 0.  0.
         13    1    3    3    0    0  0.46104576024E+02 -0.19667620087E+02  0.22601071278E+00  0.50124938455E+02  0.10566000000E+00 0. -1.
         22    1    1    0    0    0 -0.34090684487E+02 -0.65728123798E+01  0.19592560896E+02  0.39865336745E+02  0.00000000000E+00 0. -1.
</event>
<event>
 5    1  0.9034917E-005  0.9118800E+02  0.7818608E-02  0.1130116E+00
         25   -1    0    0    0    0  0.00000000000E+00  0.00000000000E+00  0.99999998245E-14  0.12500000000E+03  0.12500000000E+03 0.  0.
        -13    1    3    3    0    0 -0.52275443936E+01  0.17226947977E+02  0.27848253910E+02  0.33160690084E+02  0.10566000000E+00 0.  1.
         23    2    1    0    0    0  0.37714977171E-01 -0.80418372920E+01 -0.28632288613E+02  0.95259782773E+02  0.90498318732E+02 0.  0.
         13    1    3    3    0    0  0.52652593708E+01 -0.25268785269E+02 -0.56480542523E+02  0.62099092690E+02  0.10566000000E+00 0. -1.
         22    1    1    0    0    0 -0.37714977171E-01  0.80418372920E+01  0.28632288613E+02  0.29740217227E+02  0.00000000000E+00 0. -1.
</event>
<event>
 5    1  0.9034917E-005  0.9118800E+02  0.7818608E-02  0.1130116E+00
         25   -1    0    0    0    0  0.00000000000E+00  0.00000000000E+00  0.99999998245E-14  0.12500000000E+03  0.12500000000E+03 0.  0.
        -13    1    3    3    0    0 -0.31191358447E+02 -0.89738187583E+01 -0.35007530953E+02  0.47738544724E+02  0.10566000000E+00 0.  1.
         23    2    1    0    0    0 -0.10364155668E+02  0.25490272231E+02 -0.75871712806E+01  0.96456439095E+02  0.92136365099E+02 0.  0.
         13    1    3    3    0    0  0.20827202779E+02  0.34464090989E+02  0.27420359673E+02  0.48717894371E+02  0.10566000000E+00 0. -1.
         22    1    1    0    0    0  0.10364155668E+02 -0.25490272231E+02  0.75871712806E+01  0.28543560905E+02  0.00000000000E+00 0. -1.
</event>
<event>
 5    1  0.9034917E-005  0.9118800E+02  0.7818608E-02  0.1130116E+00
         25   -1    0    0    0    0  0.00000000000E+00  0.00000000000E+00  0.99999998245E-14  0.12500000000E+03  0.12500000000E+03 0.  0.
        -13    1    3    3    0    0 -0.45000154764E+01  0.11549909143E+02 -0.60640483105E+02  0.61894506183E+02  0.10566000000E+00 0. -1.
         23    2    1    0    0    0  0.30641175222E+01  0.23390959107E+01 -0.29690937214E+02  0.95059860746E+02  0.90221755617E+02 0.  0.
         13    1    3    3    0    0  0.75641329986E+01 -0.92108132327E+01  0.30949545890E+02  0.33165354563E+02  0.10566000000E+00 0.  1.
         22    1    1    0    0    0 -0.30641175222E+01 -0.23390959107E+01  0.29690937214E+02  0.29940139254E+02  0.00000000000E+00 0. -1.
</event>
<event>
 5    1  0.9034917E-005  0.9118800E+02  0.7818608E-02  0.1130116E+00
         25   -1    0    0    0    0  0.00000000000E+00  0.00000000000E+00  0.99999998245E-14  0.12500000000E+03  0.12500000000E+03 0.  0.
        -13    1    3    3    0    0  0.10501910039E+02  0.16338437229E+02  0.42609285654E+02  0.46827310766E+02  0.10566000000E+00 0.  1.
         23    2    1    0    0    0  0.24666027885E+02  0.13663706023E+02 -0.48151990166E+01  0.96394127605E+02  0.92051789235E+02 0.  0.
         13    1    3    3    0    0  0.14164117845E+02 -0.26747312065E+01 -0.47424484670E+02  0.49566816840E+02  0.10566000000E+00 0. -1.
         22    1    1    0    0    0 -0.24666027885E+02 -0.13663706023E+02  0.48151990166E+01  0.28605872395E+02  0.00000000000E+00 0.  1.
</event>
<event>
 5    1  0.9034917E-005  0.9118800E+02  0.7818608E-02  0.1130116E+00
         25   -1    0    0    0    0  0.00000000000E+00  0.00000000000E+00  0.99999998245E-14  0.12500000000E+03  0.12500000000E+03 0.  0.
        -13    1    3    3    0    0  0.29887072412E+02  0.28186327826E+02  0.37780205864E+02  0.55812734146E+02  0.10566000000E+00 0. -1.
         23    2    1    0    0    0  0.23496217376E+02 -0.51046621845E+01  0.16531869066E+02  0.95820683664E+02  0.91269770001E+02 0.  0.
         13    1    3    3    0    0 -0.63908550354E+01 -0.33290990010E+02 -0.21248336798E+02  0.40007949518E+02  0.10566000000E+00 0.  1.
         22    1    1    0    0    0 -0.23496217376E+02  0.51046621845E+01 -0.16531869066E+02  0.29179316336E+02  0.00000000000E+00 0. -1.
</event>
<event>
 5    1  0.9034917E-005  0.9118800E+02  0.7818608E-02  0.1130116E+00
         25   -1    0    0    0    0  0.00000000000E+00  0.00000000000E+00  0.99999998245E-14  0.12500000000E+03  0.12500000000E+03 0.  0.
        -13    1    3    3    0    0 -0.33197008322E+02 -0.23291669146E+00 -0.14150479737E+02  0.36087987649E+02  0.10566000000E+00 0.  1.
         23    2    1    0    0    0  0.20999243021E+02  0.19181338426E+02 -0.13151679256E+02  0.93665376681E+02  0.88268591075E+02 0.  0.
         13    1    3    3    0    0  0.54196251343E+02  0.19414255117E+02  0.99880048082E+00  0.57577389033E+02  0.10566000000E+00 0. -1.
         22    1    1    0    0    0 -0.20999243021E+02 -0.19181338426E+02  0.13151679256E+02  0.31334623319E+02  0.00000000000E+00 0. -1.
</event>
<event>
 5    1  0.9034917E-005  0.9118800E+02  0.7818608E-02  0.1130116E+00
         25   -1    0    0    0    0  0.00000000000E+00  0.00000000000E+00  0.99999998245E-14  0.12500000000E+03  0.12500000000E+03 0.  0.
        -13    1    3    3    0    0 -0.28368699113E+02 -0.51444718605E+02  0.20437959828E+02  0.62201796820E+02  0.10566000000E+00 0.  1.
         23    2    1    0    0    0 -0.17117507528E+02 -0.22124541186E+02  0.98153526280E+01  0.95354670960E+02  0.90629287429E+02 0.  0.
         13    1    3    3    0    0  0.11251191584E+02  0.29320177419E+02 -0.10622607200E+02  0.33152874139E+02  0.10566000000E+00 0. -1.
         22    1    1    0    0    0  0.17117507528E+02  0.22124541186E+02 -0.98153526280E+01  0.29645329040E+02  0.00000000000E+00 0.  1.
</event>
<event>
 5    1  0.9034917E-005  0.9118800E+02  0.7818608E-02  0.1130116E+00
         25   -1    0    0    0    0  0.00000000000E+00  0.00000000000E+00  0.99999998245E-14  0.12500000000E+03  0.12500000000E+03 0.  0.
        -13    1    3    3    0    0  0.24596980582E+02  0.73604787206E+01  0.41938106404E+02  0.49173204427E+02  0.10566000000E+00 0. -1.
         23    2    1    0    0    0  0.27032422320E+02 -0.27779191302E+00 -0.56079980033E+01  0.97390605467E+02  0.93395135670E+02 0.  0.
         13    1    3    3    0    0  0.24354417379E+01 -0.76382706336E+01 -0.47546104408E+02  0.48217401041E+02  0.10566000000E+00 0.  1.
         22    1    1    0    0    0 -0.27032422320E+02  0.27779191302E+00  0.56079980033E+01  0.27609394533E+02  0.00000000000E+00 0. -1.
</event>
<event>
 5    1  0.9034917E-005  0.9118800E+02  0.7818608E-02  0.1130116E+00
         25   -1    0    0    0    0  0.00000000000E+00  0.00000000000E+00  0.99999998245E-14  0.12500000000E+03  0.12500000000E+03 0.  0.
        -13    1    3    3    0    0  0.18589330253E+02  0.24511282850E+02 -0.50681058215E+02  0.59286988556E+02  0.10566000000E+00 0.  1.
         23    2    1    0    0    0  0.19982673675E+02  0.14546407946E+02 -0.15624456994E+02  0.95759123000E+02  0.91185419614E+02 0.  0.
         13    1    3    3    0    0  0.13933434218E+01 -0.99648749033E+01  0.35056601221E+02  0.36472134445E+02  0.10566000000E+00 0. -1.
         22    1    1    0    0    0 -0.19982673675E+02 -0.14546407946E+02  0.15624456994E+02  0.29240877000E+02  0.00000000000E+00 0.  1.
</event>
<event>
 5    1  0.9034917E-005  0.9118800E+02  0.7818608E-02  0.1130116E+00
         25   -1    0    0    0    0  0.00000000000E+00  0.00000000000E+00  0.99999998245E-14  0.12500000000E+03  0.12500000000E+03 0.  0.
        -13    1    3    3    0    0  0.21550295515E+02 -0.20772498684E+02 -0.31123412326E+02  0.43180897364E+02  0.10566000000E+00 0.  1.
         23    2    1    0    0    0 -0.48202790412E+01 -0.26577342736E+02  0.13087446661E+02  0.94985478564E+02  0.90118642028E+02 0.  0.
         13    1    3    3    0    0 -0.26370574556E+02 -0.58048440521E+01  0.44210858987E+02  0.51804581200E+02  0.10566000000E+00 0. -1.
         22    1    1    0    0    0  0.48202790412E+01  0.26577342736E+02 -0.13087446661E+02  0.30014521436E+02  0.00000000000E+00 0.  1.
</event>
<event>
 5    1  0.9034917E-005  0.9118800E+02  0.7818608E-02  0.1130116E+00
         25   -1    0    0    0    0  0.00000000000E+00  0.00000000000E+00  0.99999998245E-14  0.12500000000E+03  0.12500000000E+03 0.  0.
        -13    1    3    3    0    0  0.43045372898E+02  0.28850723807E+02  0.25079665141E+02  0.57569689592E+02  0.10566000000E+00 0. -1.
         23    2    1    0    0    0  0.88914687700E+01  0.14934861154E+02  0.25123641276E+02  0.94449948518E+02  0.89372742654E+02 0.  0.
         13    1    3    3    0    0 -0.34153904128E+02 -0.13915862652E+02  0.43976135699E-01  0.36880258926E+02  0.10566000000E+00 0.  1.
         22    1    1    0    0    0 -0.88914687700E+01 -0.14934861154E+02 -0.25123641276E+02  0.30550051482E+02  0.00000000000E+00 0. -1.
</event>
<event>
 5    1  0.9034917E-005  0.9118800E+02  0.7818608E-02  0.1130116E+00
         25   -1    0    0    0    0  0.00000000000E+00  0.00000000000E+00  0.99999998245E-14  0.12500000000E+03  0.12500000000E+03 0.  0.
        -13    1    3    3    0    0 -0.12820880956E+02 -0.10513059953E-01  0.55812265196E+02  0.57266003958E+02  0.10566000000E+00 0.  1.
         23    2    1    0    0    0  0.63845643539E+01  0.13365290837E+02  0.24711300972E+02  0.96189549520E+02  0.91773565802E+02 0.  0.
         13    1    3    3    0    0  0.19205445310E+02  0.13375803897E+02 -0.31100964224E+02  0.38923545562E+02  0.10566000000E+00 0. -1.
         22    1    1    0    0    0 -0.63845643539E+01 -0.13365290837E+02 -0.24711300972E+02  0.28810450480E+02  0.00000000000E+00 0.  1.
</event>
<event>
 5    1  0.9034917E-005  0.9118800E+02  0.7818608E-02  0.1130116E+00
         25   -1    0    0    0    0  0.00000000000E+00  0.00000000000E+00  0.99999998245E-14  0.12500000000E+03  0.12500000000E+03 0.  0.
        -13    1    3    3    0    0  0.41017135527E+02 -0.49731882075E+01  0.21069717967E+02  0.46379760532E+02  0.10566000000E+00 0. -1.
         23    2    1    0    0    0  0.15385322171E+02 -0.20815414560E+02 -0.16320151901E+02  0.94400376152E+02  0.89303382007E+02 0.  0.
         13    1    3    3    0    0 -0.25631813356E+02 -0.15842226352E+02 -0.37389869868E+02  0.48020615620E+02  0.10566000000E+00 0.  1.
         22    1    1    0    0    0 -0.15385322171E+02  0.20815414560E+02  0.16320151901E+02  0.30599623848E+02  0.00000000000E+00 0.  1.
</event>
<event>
 5    1  0.9034917E-005  0.9118800E+02  0.7818608E-02  0.1130116E+00
         25   -1    0    0    0    0  0.00000000000E+00  0.00000000000E+00  0.99999998245E-14  0.12500000000E+03  0.12500000000E+03 0.  0.
        -13    1    3    3    0    0  0.30754516416E+02  0.34296143690E+02  0.20378009512E+02  0.50372017903E+02  0.10566000000E+00 0.  1.
         23    2    1    0    0    0 -0.12912062901E+02  0.10648951568E+01  0.14493206756E+02  0.10556013343E+03  0.10375467873E+03 0.  0.
         13    1    3    3    0    0 -0.43666579317E+02 -0.33231248533E+02 -0.58848027551E+01  0.55188115530E+02  0.10566000000E+00 0. -1.
         22    1    1    0    0    0  0.12912062901E+02 -0.10648951568E+01 -0.14493206756E+02  0.19439866567E+02  0.00000000000E+00 0. -1.
</event>
<event>
 5    1  0.9034917E-005  0.9118800E+02  0.7818608E-02  0.1130116E+00
         25   -1    0    0    0    0  0.00000000000E+00  0.00000000000E+00  0.99999998245E-14  0.12500000000E+03  0.12500000000E+03 0.  0.
        -13    1    3    3    0    0  0.72469661067E+01  0.18957120098E+02  0.37635061636E+02  0.42758624260E+02  0.10566000000E+00 0. -1.
         23    2    1    0    0    0  0.25395624496E+02 -0.13467222993E+02 -0.83303641748E+00  0.96242430764E+02  0.91845564351E+02 0.  0.
         13    1    3    3    0    0  0.18148658389E+02 -0.32424343092E+02 -0.38468098054E+02  0.53483806504E+02  0.10566000000E+00 0.  1.
         22    1    1    0    0    0 -0.25395624496E+02  0.13467222993E+02  0.83303641748E+00  0.28757569236E+02  0.00000000000E+00 0.  1.
</event>
<event>
 5    1  0.9034917E-005  0.9118800E+02  0.7818608E-02  0.1130116E+00
         25   -1    0    0    0    0  0.00000000000E+00  0.00000000000E+00  0.99999998245E-14  0.12500000000E+03  0.12500000000E+03 0.  0.
        -13    1    3    3    0    0 -0.12610856312E+02 -0.33681712696E+02 -0.32477952947E+02  0.48459468205E+02  0.10566000000E+00 0.  1.
         23    2    1    0    0    0 -0.22288730399E+01  0.61931306695E+01 -0.34659030039E+02  0.89721520643E+02  0.82494728078E+02 0.  0.
         13    1    3    3    0    0  0.10381983272E+02  0.39874843365E+02 -0.21810770921E+01  0.41262052438E+02  0.10566000000E+00 0. -1.
         22    1    1    0    0    0  0.22288730399E+01 -0.61931306695E+01  0.34659030039E+02  0.35278479357E+02  0.00000000000E+00 0.  1.
</event>
<event>
 5    1  0.9034917E-005  0.9118800E+02  0.7818608E-02  0.1130116E+00
         25   -1    0    0    0    0  0.00000000000E+00  0.00000000000E+00  0.99999998245E-14  0.12500000000E+03  0.12500000000E+03 0.  0.
        -13    1    3    3    0    0  0.35918321049E+02 -0.47729321720E+02  0.83011070756E+01  0.60308651797E+02  0.10566000000E+00 0. -1.
         23    2    1    0    0    0  0.12514027259E+02 -0.20815397247E+02  0.14793708956E+02  0.96561725343E+02  0.92279094792E+02 0.  0.
         13    1    3    3    0    0 -0.23404293790E+02  0.26913924472E+02  0.64926018805E+01  0.36253073546E+02  0.10566000000E+00 0.  1.
         22    1    1    0    0    0 -0.12514027259E+02  0.20815397247E+02 -0.14793708956E+02  0.28438274657E+02  0.00000000000E+00 0. -1.
</event>
<event>
 5    1  0.9034917E-005  0.9118800E+02  0.7818608E-02  0.1130116E+00
         25   -1    0    0    0    0  0.00000000000E+00  0.00000000000E+00  0.99999998245E-14  0.12500000000E+03  0.12500000000E+03 0.  0.
        -13    1    3    3    0    0  0.21643200870E+02 -0.19586068011E+01 -0.43934502127E+02  0.49015466189E+02  0.10566000000E+00 0.  1.
         23    2    1    0    0    0  0.28599231122E+02 -0.80454850731E+01  0.13755397538E+01  0.95258817098E+02  0.90496984891E+02 0.  0.
         13    1    3    3    0    0  0.69560302516E+01 -0.60868782719E+01  0.45310041881E+02  0.46243350909E+02  0.10566000000E+00 0. -1.
         22    1    1    0    0    0 -0.28599231122E+02  0.80454850731E+01 -0.13755397538E+01  0.29741182902E+02  0.00000000000E+00 0. -1.
</event>
<event>
 5    1  0.9034917E-005  0.9118800E+02  0.7818608E-02  0.1130116E+00
         25   -1    0    0    0    0  0.00000000000E+00  0.00000000000E+00  0.99999998245E-14  0.12500000000E+03  0.12500000000E+03 0.  0.
        -13    1    3    3    0    0 -0.38020560408E+02  0.15710319135E+01  0.30032959230E+02  0.48477014751E+02  0.10566000000E+00 0. -1.
         23    2    1    0    0    0  0.55275190546E+01  0.16000795129E+02  0.25247268037E+02  0.94602574862E+02  0.89585957133E+02 0.  0.
         13    1    3    3    0    0  0.43548079462E+02  0.14429763216E+02 -0.47856911926E+01  0.46125560111E+02  0.10566000000E+00 0.  1.
         22    1    1    0    0    0 -0.55275190546E+01 -0.16000795129E+02 -0.25247268037E+02  0.30397425138E+02  0.00000000000E+00 0.  1.
</event>
<event>
 5    1  0.9034917E-005  0.9118800E+02  0.7818608E-02  0.1130116E+00
         25   -1    0    0    0    0  0.00000000000E+00  0.00000000000E+00  0.99999998245E-14  0.12500000000E+03  0.12500000000E+03 0.  0.
        -13    1    3    3    0    0 -0.32423328964E+02  0.41500785734E+02  0.21793321745E+02  0.56996030690E+02  0.10566000000E+00 0. -1.
         23    2    1    0    0    0 -0.69977802529E+01  0.28012713376E+02  0.26075603415E+02  0.86094754434E+02  0.76802920572E+02 0.  0.
         13    1    3    3    0    0  0.25425548711E+02 -0.13488072358E+02  0.42822816696E+01  0.29098723744E+02  0.10566000000E+00 0.  1.
         22    1    1    0    0    0  0.69977802529E+01 -0.28012713376E+02 -0.26075603415E+02  0.38905245566E+02  0.00000000000E+00 0. -1.
</event>
<event>
 5    1  0.9034917E-005  0.9118800E+02  0.7818608E-02  0.1130116E+00
         25   -1    0    0    0    0  0.00000000000E+00  0.00000000000E+00  0.99999998245E-14  0.12500000000E+03  0.12500000000E+03 0.  0.
        -13    1    3    3    0    0  0.36616363183E+02  0.13586165711E+01 -0.32197809822E+01  0.36782904254E+02  0.10566000000E+00 0.  1.
         23    2    1    0    0    0 -0.18317697631E+02 -0.16022455554E+02  0.14006106221E+02  0.96921037413E+02  0.92764537153E+02 0.  0.
         13    1    3    3    0    0 -0.54934060815E+02 -0.17381072125E+02  0.17225887203E+02  0.60138133159E+02  0.10566000000E+00 0. -1.
         22    1    1    0    0    0  0.18317697631E+02  0.16022455554E+02 -0.14006106221E+02  0.28078962587E+02  0.00000000000E+00 0. -1.
</event>
<event>
 5    1  0.9034917E-005  0.9118800E+02  0.7818608E-02  0.1130116E+00
         25   -1    0    0    0    0  0.00000000000E+00  0.00000000000E+00  0.99999998245E-14  0.12500000000E+03  0.12500000000E+03 0.  0.
        -13    1    3    3    0    0  0.88377215645E+01  0.43330799692E+02  0.22501503959E+02  0.49618468022E+02  0.10566000000E+00 0.  1.
         23    2    1    0    0    0 -0.54565433250E+00  0.21577274811E+02 -0.18235664622E+02  0.96743744212E+02  0.92525326550E+02 0.  0.
         13    1    3    3    0    0 -0.93833758970E+01 -0.21753524881E+02 -0.40737168581E+02  0.47125276190E+02  0.10566000000E+00 0. -1.
         22    1    1    0    0    0  0.54565433250E+00 -0.21577274811E+02  0.18235664622E+02  0.28256255788E+02  0.00000000000E+00 0.  1.
</event>
<event>
 5    1  0.9034917E-005  0.9118800E+02  0.7818608E-02  0.1130116E+00
         25   -1    0    0    0    0  0.00000000000E+00  0.00000000000E+00  0.99999998245E-14  0.12500000000E+03  0.12500000000E+03 0.  0.
        -13    1    3    3    0    0 -0.22225318970E+02 -0.44349360163E+02  0.12615533421E+02  0.51185871075E+02  0.10566000000E+00 0. -1.
         23    2    1    0    0    0  0.56199734309E+01 -0.24121560486E+02 -0.15633039544E+02  0.95711338252E+02  0.91119891149E+02 0.  0.
         13    1    3    3    0    0  0.27845292401E+02  0.20227799677E+02 -0.28248572965E+02  0.44525467177E+02  0.10566000000E+00 0.  1.
         22    1    1    0    0    0 -0.56199734309E+01  0.24121560486E+02  0.15633039544E+02  0.29288661748E+02  0.00000000000E+00 0. -1.
</event>
<event>
 5    1  0.9034917E-005  0.9118800E+02  0.7818608E-02  0.1130116E+00
         25   -1    0    0    0    0  0.00000000000E+00  0.00000000000E+00  0.99999998245E-14  0.12500000000E+03  0.12500000000E+03 0.  0.
        -13    1    3    3    0    0 -0.38969542456E+02 -0.18134583547E+02  0.10146625658E+02  0.44163939317E+02  0.10566000000E+00 0.  1.
         23    2    1    0    0    0  0.42288378076E+01  0.29063270455E+01  0.28828634194E+02  0.95718265837E+02  0.91129394046E+02 0.  0.
         13    1    3    3    0    0  0.43198380264E+02  0.21040910593E+02  0.18682008536E+02  0.51554326520E+02  0.10566000000E+00 0. -1.
         22    1    1    0    0    0 -0.42288378076E+01 -0.29063270455E+01 -0.28828634194E+02  0.29281734163E+02  0.00000000000E+00 0. -1.
</event>
<event>
 5    1  0.9034917E-005  0.9118800E+02  0.7818608E-02  0.1130116E+00
         25   -1    0    0    0    0  0.00000000000E+00  0.00000000000E+00  0.99999998245E-14  0.12500000000E+03  0.12500000000E+03 0.  0.
        -13    1    3    3    0    0 -0.10397911466E+02 -0.43827468403E+02  0.40411788519E+02  0.60515182928E+02  0.10566000000E+00 0. -1.
         23    2    1    0    0    0 -0.85531150846E+01 -0.25916451239E+02  0.37290219555E+02  0.78789842059E+02  0.63815832791E+02 0.  0.
         13    1    3    3    0    0  0.18447963814E+01  0.17911017164E+02 -0.31215689643E+01  0.18274659131E+02  0.10566000000E+00 0.  1.
         22    1    1    0    0    0  0.85531150846E+01  0.25916451239E+02 -0.37290219555E+02  0.46210157941E+02  0.00000000000E+00 0. -1.
</event>
<event>
 5    1  0.9034917E-005  0.9118800E+02  0.7818608E-02  0.1130116E+00
         25   -1    0    0    0    0  0.00000000000E+00  0.00000000000E+00  0.99999998245E-14  0.12500000000E+03  0.12500000000E+03 0.  0.
        -13    1    3    3    0    0  0.95387651212E+00  0.54927484524E+02  0.42841328591E+01  0.55102662322E+02  0.10566000000E+00 0. -1.
         23    2    1    0    0    0 -0.20807402551E+02  0.22030310767E+02  0.26755872573E+01  0.94578932291E+02  0.89552962389E+02 0.  0.
         13    1    3    3    0    0 -0.21761279063E+02 -0.32897173757E+02 -0.16085456018E+01  0.39476269969E+02  0.10566000000E+00 0.  1.
         22    1    1    0    0    0  0.20807402551E+02 -0.22030310767E+02 -0.26755872573E+01  0.30421067709E+02  0.00000000000E+00 0. -1.
</event>
<event>
 5    1  0.9034917E-005  0.9118800E+02  0.7818608E-02  0.1130116E+00
         25   -1    0    0    0    0  0.00000000000E+00  0.00000000000E+00  0.99999998245E-14  0.12500000000E+03  0.12500000000E+03 0.  0.
        -13    1    3    3    0    0 -0.22310088082E+02 -0.16086158193E+02  0.47930019481E+02  0.55261220102E+02  0.10566000000E+00 0. -1.
         23    2    1    0    0    0  0.11678306268E+01  0.10903889343E+02  0.24862522670E+02  0.97826416050E+02  0.93976614178E+02 0.  0.
         13    1    3    3    0    0  0.23477918709E+02  0.26990047536E+02 -0.23067496811E+02  0.42565195948E+02  0.10566000000E+00 0.  1.
         22    1    1    0    0    0 -0.11678306268E+01 -0.10903889343E+02 -0.24862522670E+02  0.27173583950E+02  0.00000000000E+00 0. -1.
</event>
<event>
 5    1  0.9034917E-005  0.9118800E+02  0.7818608E-02  0.1130116E+00
         25   -1    0    0    0    0  0.00000000000E+00  0.00000000000E+00  0.99999998245E-14  0.12500000000E+03  0.12500000000E+03 0.  0.
        -13    1    3    3    0    0  0.18938840907E+02  0.21015051040E+02  0.33802310538E+02  0.44078559718E+02  0.10566000000E+00 0. -1.
         23    2    1    0    0    0  0.20872838358E+02  0.14974712986E+02 -0.16296975442E+02  0.94577823571E+02  0.89551414800E+02 0.  0.
         13    1    3    3    0    0  0.19339974507E+01 -0.60403380540E+01 -0.50099285980E+02  0.50499263853E+02  0.10566000000E+00 0.  1.
         22    1    1    0    0    0 -0.20872838358E+02 -0.14974712986E+02  0.16296975442E+02  0.30422176429E+02  0.00000000000E+00 0.  1.
</event>
<event>
 5    1  0.9034917E-005  0.9118800E+02  0.7818608E-02  0.1130116E+00
         25   -1    0    0    0    0  0.00000000000E+00  0.00000000000E+00  0.99999998245E-14  0.12500000000E+03  0.12500000000E+03 0.  0.
        -13    1    3    3    0    0  0.72168278560E+01  0.16469441080E+02  0.31987096147E+02  0.36694830396E+02  0.10566000000E+00 0. -1.
         23    2    1    0    0    0  0.21412671096E+02 -0.16731554664E+02 -0.13406545335E+02  0.94698467650E+02  0.89719657336E+02 0.  0.
         13    1    3    3    0    0  0.14195843240E+02 -0.33200995744E+02 -0.45393641482E+02  0.58003637254E+02  0.10566000000E+00 0.  1.
         22    1    1    0    0    0 -0.21412671096E+02  0.16731554664E+02  0.13406545335E+02  0.30301532350E+02  0.00000000000E+00 0.  1.
</event>
<event>
 5    1  0.9034917E-005  0.9118800E+02  0.7818608E-02  0.1130116E+00
         25   -1    0    0    0    0  0.00000000000E+00  0.00000000000E+00  0.99999998245E-14  0.12500000000E+03  0.12500000000E+03 0.  0.
        -13    1    3    3    0    0 -0.22414403087E+02  0.31767209323E+02  0.43024490846E+02  0.57988611213E+02  0.10566000000E+00 0.  1.
         23    2    1    0    0    0 -0.25264495674E+02  0.17689307880E+02  0.12504370275E+02  0.91719891363E+02  0.85469133848E+02 0.  0.
         13    1    3    3    0    0 -0.28500925877E+01 -0.14077901442E+02 -0.30520120571E+02  0.33731280149E+02  0.10566000000E+00 0. -1.
         22    1    1    0    0    0  0.25264495674E+02 -0.17689307880E+02 -0.12504370275E+02  0.33280108637E+02  0.00000000000E+00 0.  1.
</event>
<event>
 5    1  0.9034917E-005  0.9118800E+02  0.7818608E-02  0.1130116E+00
         25   -1    0    0    0    0  0.00000000000E+00  0.00000000000E+00  0.99999998245E-14  0.12500000000E+03  0.12500000000E+03 0.  0.
        -13    1    3    3    0    0 -0.12384694509E+02  0.20066349642E+02 -0.40127130250E+02  0.46542848991E+02  0.10566000000E+00 0. -1.
         23    2    1    0    0    0  0.43085423557E+01 -0.20599893349E+02 -0.23273192129E+02  0.93622291111E+02  0.88207555106E+02 0.  0.
         13    1    3    3    0    0  0.16693236865E+02 -0.40666242992E+02  0.16853938121E+02  0.47079442120E+02  0.10566000000E+00 0.  1.
         22    1    1    0    0    0 -0.43085423557E+01  0.20599893349E+02  0.23273192129E+02  0.31377708889E+02  0.00000000000E+00 0. -1.
</event>
<event>
 5    1  0.9034917E-005  0.9118800E+02  0.7818608E-02  0.1130116E+00
         25   -1    0    0    0    0  0.00000000000E+00  0.00000000000E+00  0.99999998245E-14  0.12500000000E+03  0.12500000000E+03 0.  0.
        -13    1    3    3    0    0 -0.15962140574E+02 -0.30312564661E+02  0.17937317465E+02  0.38670402505E+02  0.10566000000E+00 0.  1.
         23    2    1    0    0    0 -0.18757669344E+02  0.13920440685E+02 -0.17822077799E+02  0.95618793674E+02  0.90992848173E+02 0.  0.
         13    1    3    3    0    0 -0.27955287697E+01  0.44233005346E+02 -0.35759395265E+02  0.56948391169E+02  0.10566000000E+00 0. -1.
         22    1    1    0    0    0  0.18757669344E+02 -0.13920440685E+02  0.17822077799E+02  0.29381206326E+02  0.00000000000E+00 0. -1.
</event>
<event>
 5    1  0.9034917E-005  0.9118800E+02  0.7818608E-02  0.1130116E+00
         25   -1    0    0    0    0  0.00000000000E+00  0.00000000000E+00  0.99999998245E-14  0.12500000000E+03  0.12500000000E+03 0.  0.
        -13    1    3    3    0    0  0.34336703052E+02  0.10155890109E+02 -0.40548659224E+02  0.54095805839E+02  0.10566000000E+00 0. -1.
         23    2    1    0    0    0  0.30229380537E+01 -0.12252161588E+02 -0.27483664455E+02  0.94757555821E+02  0.89801942937E+02 0.  0.
         13    1    3    3    0    0 -0.31313764999E+02 -0.22408051697E+02  0.13064994769E+02  0.40661749982E+02  0.10566000000E+00 0.  1.
         22    1    1    0    0    0 -0.30229380537E+01  0.12252161588E+02  0.27483664455E+02  0.30242444179E+02  0.00000000000E+00 0.  1.
</event>
<event>
 5    1  0.9034917E-005  0.9118800E+02  0.7818608E-02  0.1130116E+00
         25   -1    0    0    0    0  0.00000000000E+00  0.00000000000E+00  0.99999998245E-14  0.12500000000E+03  0.12500000000E+03 0.  0.
        -13    1    3    3    0    0  0.96591303603E+01  0.42606940556E+02 -0.10843274830E+02  0.45013752964E+02  0.10566000000E+00 0. -1.
         23    2    1    0    0    0  0.20362784406E+02 -0.86504196871E+01 -0.16096890188E+02  0.97639762003E+02  0.93728013426E+02 0.  0.
         13    1    3    3    0    0  0.10703654046E+02 -0.51257360243E+02 -0.52536153578E+01  0.52626009039E+02  0.10566000000E+00 0.  1.
         22    1    1    0    0    0 -0.20362784406E+02  0.86504196871E+01  0.16096890188E+02  0.27360237997E+02  0.00000000000E+00 0.  1.
</event>
<event>
 5    1  0.9034917E-005  0.9118800E+02  0.7818608E-02  0.1130116E+00
         25   -1    0    0    0    0  0.00000000000E+00  0.00000000000E+00  0.99999998245E-14  0.12500000000E+03  0.12500000000E+03 0.  0.
        -13    1    3    3    0    0  0.20797247934E+02 -0.75115692736E+01  0.45437749119E+02  0.50532656803E+02  0.10566000000E+00 0.  1.
         23    2    1    0    0    0 -0.17481090128E+02  0.37655129020E+01  0.21375562308E+02  0.97130980221E+02  0.93047004547E+02 0.  0.
         13    1    3    3    0    0 -0.38278338062E+02  0.11277082176E+02 -0.24062186811E+02  0.46598323418E+02  0.10566000000E+00 0. -1.
         22    1    1    0    0    0  0.17481090128E+02 -0.37655129020E+01 -0.21375562308E+02  0.27869019779E+02  0.00000000000E+00 0.  1.
</event>
<event>
 5    1  0.9034917E-005  0.9118800E+02  0.7818608E-02  0.1130116E+00
         25   -1    0    0    0    0  0.00000000000E+00  0.00000000000E+00  0.99999998245E-14  0.12500000000E+03  0.12500000000E+03 0.  0.
        -13    1    3    3    0    0  0.19982260867E+02 -0.24944854084E+02 -0.95144213806E+01  0.33347741646E+02  0.10566000000E+00 0.  1.
         23    2    1    0    0    0  0.20943333380E+02  0.25508995962E+02  0.14156876144E+02  0.89086921182E+02  0.81527481842E+02 0.  0.
         13    1    3    3    0    0  0.96107251237E+00  0.50453850046E+02  0.23671297525E+02  0.55739179536E+02  0.10566000000E+00 0. -1.
         22    1    1    0    0    0 -0.20943333380E+02 -0.25508995962E+02 -0.14156876144E+02  0.35913078818E+02  0.00000000000E+00 0. -1.
</event>
<event>
 5    1  0.9034917E-005  0.9118800E+02  0.7818608E-02  0.1130116E+00
         25   -1    0    0    0    0  0.00000000000E+00  0.00000000000E+00  0.99999998245E-14  0.12500000000E+03  0.12500000000E+03 0.  0.
        -13    1    3    3    0    0  0.81727662319E+01  0.28821004089E+02 -0.26823261331E+02  0.40211228495E+02  0.10566000000E+00 0.  1.
         23    2    1    0    0    0 -0.10609426106E+02  0.15752697348E+02  0.23080057892E+02  0.95110261488E+02  0.90291557590E+02 0.  0.
         13    1    3    3    0    0 -0.18782192338E+02 -0.13068306741E+02  0.49903319223E+02  0.54899032993E+02  0.10566000000E+00 0. -1.
         22    1    1    0    0    0  0.10609426106E+02 -0.15752697348E+02 -0.23080057892E+02  0.29889738512E+02  0.00000000000E+00 0. -1.
</event>
<event>
 5    1  0.9034917E-005  0.9118800E+02  0.7818608E-02  0.1130116E+00
         25   -1    0    0    0    0  0.00000000000E+00  0.00000000000E+00  0.99999998245E-14  0.12500000000E+03  0.12500000000E+03 0.  0.
        -13    1    3    3    0    0 -0.95319695881E+01 -0.54530569614E+02  0.22859672180E+02  0.59891712639E+02  0.10566000000E+00 0. -1.
         23    2    1    0    0    0  0.79570878567E+01 -0.27852514838E+02  0.90503738578E+01  0.94652230775E+02  0.89655215653E+02 0.  0.
         13    1    3    3    0    0  0.17489057445E+02  0.26678054776E+02 -0.13809298322E+02  0.34760518136E+02  0.10566000000E+00 0.  1.
         22    1    1    0    0    0 -0.79570878567E+01  0.27852514838E+02 -0.90503738578E+01  0.30347769225E+02  0.00000000000E+00 0. -1.
</event>
<event>
 5    1  0.9034917E-005  0.9118800E+02  0.7818608E-02  0.1130116E+00
         25   -1    0    0    0    0  0.00000000000E+00  0.00000000000E+00  0.99999998245E-14  0.12500000000E+03  0.12500000000E+03 0.  0.
        -13    1    3    3    0    0  0.59790666862E+02 -0.41362181287E+01 -0.75885409133E+01  0.60412161536E+02  0.10566000000E+00 0. -1.
         23    2    1    0    0    0  0.28855613304E+02  0.28787409458E+01 -0.14038318190E+02  0.92781869294E+02  0.87008432485E+02 0.  0.
         13    1    3    3    0    0 -0.30935053557E+02  0.70149590744E+01 -0.64497772763E+01  0.32369707758E+02  0.10566000000E+00 0.  1.
         22    1    1    0    0    0 -0.28855613304E+02 -0.28787409458E+01  0.14038318190E+02  0.32218130706E+02  0.00000000000E+00 0. -1.
</event>
<event>
 5    1  0.9034917E-005  0.9118800E+02  0.7818608E-02  0.1130116E+00
         25   -1    0    0    0    0  0.00000000000E+00  0.00000000000E+00  0.99999998245E-14  0.12500000000E+03  0.12500000000E+03 0.  0.
        -13    1    3    3    0    0 -0.13377909840E+02 -0.30032193394E+02  0.79594844739E+01  0.33826996155E+02  0.10566000000E+00 0.  1.
         23    2    1    0    0    0 -0.16216642707E+01  0.28243618062E+02 -0.84043443977E+01  0.95487887894E+02  0.90812840355E+02 0.  0.
         13    1    3    3    0    0  0.11756245569E+02  0.58275811456E+02 -0.16363828872E+02  0.61660891739E+02  0.10566000000E+00 0. -1.
         22    1    1    0    0    0  0.16216642707E+01 -0.28243618062E+02  0.84043443977E+01  0.29512112106E+02  0.00000000000E+00 0. -1.
</event>
<event>
 5    1  0.9034917E-005  0.9118800E+02  0.7818608E-02  0.1130116E+00
         25   -1    0    0    0    0  0.00000000000E+00  0.00000000000E+00  0.99999998245E-14  0.12500000000E+03  0.12500000000E+03 0.  0.
        -13    1    3    3    0    0 -0.12951826477E+02  0.24218666547E+02  0.35983532103E+02  0.45267199660E+02  0.10566000000E+00 0. -1.
         23    2    1    0    0    0  0.74900025385E+01  0.29271470858E+02 -0.77510183526E+01  0.93807093278E+02  0.88469052892E+02 0.  0.
         13    1    3    3    0    0  0.20441829015E+02  0.50528043112E+01 -0.43734550456E+02  0.48539893618E+02  0.10566000000E+00 0.  1.
         22    1    1    0    0    0 -0.74900025385E+01 -0.29271470858E+02  0.77510183526E+01  0.31192906722E+02  0.00000000000E+00 0.  1.
</event>
<event>
 5    1  0.9034917E-005  0.9118800E+02  0.7818608E-02  0.1130116E+00
         25   -1    0    0    0    0  0.00000000000E+00  0.00000000000E+00  0.99999998245E-14  0.12500000000E+03  0.12500000000E+03 0.  0.
        -13    1    3    3    0    0 -0.56707989659E+01 -0.31459067259E+02 -0.40362021830E+02  0.51487229911E+02  0.10566000000E+00 0.  1.
         23    2    1    0    0    0 -0.10164977679E+02  0.10379314064E+02 -0.24617354043E+02  0.96415545279E+02  0.92080868370E+02 0.  0.
         13    1    3    3    0    0 -0.44941787133E+01  0.41838381322E+02  0.15744667787E+02  0.44928315367E+02  0.10566000000E+00 0. -1.
         22    1    1    0    0    0  0.10164977679E+02 -0.10379314064E+02  0.24617354043E+02  0.28584454721E+02  0.00000000000E+00 0.  1.
</event>
<event>
 5    1  0.9034917E-005  0.9118800E+02  0.7818608E-02  0.1130116E+00
         25   -1    0    0    0    0  0.00000000000E+00  0.00000000000E+00  0.99999998245E-14  0.12500000000E+03  0.12500000000E+03 0.  0.
        -13    1    3    3    0    0  0.40529454395E+00 -0.11059239223E+02  0.31117603791E+02  0.33027071708E+02  0.10566000000E+00 0. -1.
         23    2    1    0    0    0 -0.14571131221E+02  0.15420074921E+02 -0.22124428685E+02  0.94347317894E+02  0.89229084236E+02 0.  0.
         13    1    3    3    0    0 -0.14976425765E+02  0.26479314144E+02 -0.53242032475E+02  0.61320246187E+02  0.10566000000E+00 0.  1.
         22    1    1    0    0    0  0.14571131221E+02 -0.15420074921E+02  0.22124428685E+02  0.30652682106E+02  0.00000000000E+00 0.  1.
</event>
<event>
 5    1  0.9034917E-005  0.9118800E+02  0.7818608E-02  0.1130116E+00
         25   -1    0    0    0    0  0.00000000000E+00  0.00000000000E+00  0.99999998245E-14  0.12500000000E+03  0.12500000000E+03 0.  0.
        -13    1    3    3    0    0  0.52099707823E-01  0.11745854260E+02 -0.52987872999E+02  0.54274244865E+02  0.10566000000E+00 0.  1.
         23    2    1    0    0    0 -0.20265133852E+02  0.10324606817E+02 -0.13913725047E+02  0.98337950179E+02  0.94654569593E+02 0.  0.
         13    1    3    3    0    0 -0.20317233560E+02 -0.14212474433E+01  0.39074147952E+02  0.44063705315E+02  0.10566000000E+00 0. -1.
         22    1    1    0    0    0  0.20265133852E+02 -0.10324606817E+02  0.13913725047E+02  0.26662049821E+02  0.00000000000E+00 0.  1.
</event>
<event>
 5    1  0.9034917E-005  0.9118800E+02  0.7818608E-02  0.1130116E+00
         25   -1    0    0    0    0  0.00000000000E+00  0.00000000000E+00  0.99999998245E-14  0.12500000000E+03  0.12500000000E+03 0.  0.
        -13    1    3    3    0    0  0.90975384940E+01 -0.99535527662E+01  0.36792066741E+02  0.39185529962E+02  0.10566000000E+00 0. -1.
         23    2    1    0    0    0 -0.52842620795E+01  0.28432614759E+02 -0.25063966270E+01  0.95972099080E+02  0.91476908397E+02 0.  0.
         13    1    3    3    0    0 -0.14381800574E+02  0.38386167526E+02 -0.39298463368E+02  0.56786569118E+02  0.10566000000E+00 0.  1.
         22    1    1    0    0    0  0.52842620795E+01 -0.28432614759E+02  0.25063966270E+01  0.29027900920E+02  0.00000000000E+00 0.  1.
</event>
<event>
 5    1  0.9034917E-005  0.9118800E+02  0.7818608E-02  0.1130116E+00
         25   -1    0    0    0    0  0.00000000000E+00  0.00000000000E+00  0.99999998245E-14  0.12500000000E+03  0.12500000000E+03 0.  0.
        -13    1    3    3    0    0  0.59790638684E+02 -0.19971471643E+01  0.65319496395E+01  0.60179619483E+02  0.10566000000E+00 0.  1.
         23    2    1    0    0    0  0.25151248148E+02 -0.37743434823E+01  0.14438484855E+02  0.95754473897E+02  0.91179046246E+02 0.  0.
         13    1    3    3    0    0 -0.34639390536E+02 -0.17771963180E+01  0.79065352157E+01  0.35574854414E+02  0.10566000000E+00 0. -1.
         22    1    1    0    0    0 -0.25151248148E+02  0.37743434823E+01 -0.14438484855E+02  0.29245526103E+02  0.00000000000E+00 0.  1.
</event>
<event>
 5    1  0.9034917E-005  0.9118800E+02  0.7818608E-02  0.1130116E+00
         25   -1    0    0    0    0  0.00000000000E+00  0.00000000000E+00  0.99999998245E-14  0.12500000000E+03  0.12500000000E+03 0.  0.
        -13    1    3    3    0    0 -0.61692382698E+01  0.34308623851E+02  0.13087248437E+02  0.37234774164E+02  0.10566000000E+00 0. -1.
         23    2    1    0    0    0  0.26521764513E+01 -0.23594664697E+02  0.16785025847E+02  0.95922872653E+02  0.91409617454E+02 0.  0.
         13    1    3    3    0    0  0.88214147211E+01 -0.57903288548E+02  0.36977774106E+01  0.58688098488E+02  0.10566000000E+00 0.  1.
         22    1    1    0    0    0 -0.26521764513E+01  0.23594664697E+02 -0.16785025847E+02  0.29077127347E+02  0.00000000000E+00 0.  1.
</event>
<event>
 5    1  0.9034917E-005  0.9118800E+02  0.7818608E-02  0.1130116E+00
         25   -1    0    0    0    0  0.00000000000E+00  0.00000000000E+00  0.99999998245E-14  0.12500000000E+03  0.12500000000E+03 0.  0.
        -13    1    3    3    0    0 -0.93825887701E+00 -0.30709058663E+02 -0.11316836457E+02  0.32741541887E+02  0.10566000000E+00 0.  1.
         23    2    1    0    0    0 -0.19802424889E+02  0.24948860495E+02  0.22938067087E+01  0.93065015724E+02  0.87414266176E+02 0.  0.
         13    1    3    3    0    0 -0.18864166012E+02  0.55657919158E+02  0.13610643166E+02  0.60323473837E+02  0.10566000000E+00 0. -1.
         22    1    1    0    0    0  0.19802424889E+02 -0.24948860495E+02 -0.22938067087E+01  0.31934984276E+02  0.00000000000E+00 0. -1.
</event>
<event>
 5    1  0.9034917E-005  0.9118800E+02  0.7818608E-02  0.1130116E+00
         25   -1    0    0    0    0  0.00000000000E+00  0.00000000000E+00  0.99999998245E-14  0.12500000000E+03  0.12500000000E+03 0.  0.
        -13    1    3    3    0    0 -0.92553237791E+01 -0.25511358108E+02  0.19742684022E+02  0.33560023051E+02  0.10566000000E+00 0.  1.
         23    2    1    0    0    0  0.30279675885E+02  0.82417804386E+01 -0.81824727103E+01  0.92569480791E+02  0.86702769262E+02 0.  0.
         13    1    3    3    0    0  0.39534999664E+02  0.33753138546E+02 -0.27925156733E+02  0.59009457740E+02  0.10566000000E+00 0. -1.
         22    1    1    0    0    0 -0.30279675885E+02 -0.82417804386E+01  0.81824727103E+01  0.32430519209E+02  0.00000000000E+00 0. -1.
</event>
<event>
 5    1  0.9034917E-005  0.9118800E+02  0.7818608E-02  0.1130116E+00
         25   -1    0    0    0    0  0.00000000000E+00  0.00000000000E+00  0.99999998245E-14  0.12500000000E+03  0.12500000000E+03 0.  0.
        -13    1    3    3    0    0 -0.29238932982E+02  0.79651529727E+01  0.30730614912E+02  0.43159480079E+02  0.10566000000E+00 0.  1.
         23    2    1    0    0    0 -0.11841293575E+02  0.19469027425E+02 -0.17866660636E+02  0.96043535701E+02  0.91574472017E+02 0.  0.
         13    1    3    3    0    0  0.17397639406E+02  0.11503874452E+02 -0.48597275548E+02  0.52884055622E+02  0.10566000000E+00 0. -1.
         22    1    1    0    0    0  0.11841293575E+02 -0.19469027425E+02  0.17866660636E+02  0.28956464299E+02  0.00000000000E+00 0.  1.
</event>
<event>
 5    1  0.9034917E-005  0.9118800E+02  0.7818608E-02  0.1130116E+00
         25   -1    0    0    0    0  0.00000000000E+00  0.00000000000E+00  0.99999998245E-14  0.12500000000E+03  0.12500000000E+03 0.  0.
        -13    1    3    3    0    0  0.17237859080E+02  0.33350235758E+02 -0.15556810050E+02  0.40637513626E+02  0.10566000000E+00 0. -1.
         23    2    1    0    0    0 -0.57056934065E+01 -0.16396055773E+02 -0.23277848222E+02  0.95961339562E+02  0.91462204711E+02 0.  0.
         13    1    3    3    0    0 -0.22943552487E+02 -0.49746291530E+02 -0.77210381722E+01  0.55323825936E+02  0.10566000000E+00 0.  1.
         22    1    1    0    0    0  0.57056934065E+01  0.16396055773E+02  0.23277848222E+02  0.29038660438E+02  0.00000000000E+00 0.  1.
</event>
<event>
 5    1  0.9034917E-005  0.9118800E+02  0.7818608E-02  0.1130116E+00
         25   -1    0    0    0    0  0.00000000000E+00  0.00000000000E+00  0.99999998245E-14  0.12500000000E+03  0.12500000000E+03 0.  0.
        -13    1    3    3    0    0 -0.97828832837E+01 -0.73660749098E+00  0.59217616415E+02  0.60024866963E+02  0.10566000000E+00 0.  1.
         23    2    1    0    0    0 -0.15794405211E+02 -0.62679524094E+01  0.28422897071E+02  0.91884874433E+02  0.85710084636E+02 0.  0.
         13    1    3    3    0    0 -0.60115219275E+01 -0.55313449184E+01 -0.30794719344E+02  0.31860007471E+02  0.10566000000E+00 0. -1.
         22    1    1    0    0    0  0.15794405211E+02  0.62679524094E+01 -0.28422897071E+02  0.33115125567E+02  0.00000000000E+00 0.  1.
</event>
<event>
 5    1  0.9034917E-005  0.9118800E+02  0.7818608E-02  0.1130116E+00
         25   -1    0    0    0    0  0.00000000000E+00  0.00000000000E+00  0.99999998245E-14  0.12500000000E+03  0.12500000000E+03 0.  0.
        -13    1    3    3    0    0  0.16602661966E+02 -0.23374063800E+01  0.22731409972E+02  0.28246061961E+02  0.10566000000E+00 0. -1.
         23    2    1    0    0    0 -0.29696300223E+02  0.12170494320E+02  0.34197697897E+02  0.78101452897E+02  0.62452888037E+02 0.  0.
         13    1    3    3    0    0 -0.46298962189E+02  0.14507900699E+02  0.11466287925E+02  0.49855390936E+02  0.10566000000E+00 0.  1.
         22    1    1    0    0    0  0.29696300223E+02 -0.12170494320E+02 -0.34197697897E+02  0.46898547103E+02  0.00000000000E+00 0.  1.
</event>
<event>
 5    1  0.9034917E-005  0.9118800E+02  0.7818608E-02  0.1130116E+00
         25   -1    0    0    0    0  0.00000000000E+00  0.00000000000E+00  0.99999998245E-14  0.12500000000E+03  0.12500000000E+03 0.  0.
        -13    1    3    3    0    0 -0.25016276905E+02 -0.33448792657E+02  0.18938199120E+02  0.45861774828E+02  0.10566000000E+00 0. -1.
         23    2    1    0    0    0 -0.64360675559E+01  0.12652845788E+02  0.25317198586E+02  0.95974528145E+02  0.91480227570E+02 0.  0.
         13    1    3    3    0    0  0.18580209349E+02  0.46101638446E+02  0.63789994663E+01  0.50112753317E+02  0.10566000000E+00 0.  1.
         22    1    1    0    0    0  0.64360675559E+01 -0.12652845788E+02 -0.25317198586E+02  0.29025471855E+02  0.00000000000E+00 0.  1.
</event>
<event>
 5    1  0.9034917E-005  0.9118800E+02  0.7818608E-02  0.1130116E+00
         25   -1    0    0    0    0  0.00000000000E+00  0.00000000000E+00  0.99999998245E-14  0.12500000000E+03  0.12500000000E+03 0.  0.
        -13    1    3    3    0    0  0.22806009839E+02  0.13654354403E+02 -0.21560259726E+02  0.34225888482E+02  0.10566000000E+00 0.  1.
         23    2    1    0    0    0 -0.99686585647E+01 -0.15868367487E+01  0.27810784030E+02  0.95413991266E+02  0.90711067773E+02 0.  0.
         13    1    3    3    0    0 -0.32774668403E+02 -0.15241191152E+02  0.49371043756E+02  0.61188102784E+02  0.10566000000E+00 0. -1.
         22    1    1    0    0    0  0.99686585647E+01  0.15868367487E+01 -0.27810784030E+02  0.29586008734E+02  0.00000000000E+00 0. -1.
</event>
<event>
 5    1  0.9034917E-005  0.9118800E+02  0.7818608E-02  0.1130116E+00
         25   -1    0    0    0    0  0.00000000000E+00  0.00000000000E+00  0.99999998245E-14  0.12500000000E+03  0.12500000000E+03 0.  0.
        -13    1    3    3    0    0  0.24770404156E+01 -0.24713844516E+02 -0.43088844359E+02  0.49734992834E+02  0.10566000000E+00 0.  1.
         23    2    1    0    0    0 -0.24509209074E+02  0.86830971146E+00 -0.16922600056E+02  0.95203529003E+02  0.90420585326E+02 0.  0.
         13    1    3    3    0    0 -0.26986249490E+02  0.25582154227E+02  0.26166244303E+02  0.45468536169E+02  0.10566000000E+00 0. -1.
         22    1    1    0    0    0  0.24509209074E+02 -0.86830971146E+00  0.16922600056E+02  0.29796470997E+02  0.00000000000E+00 0. -1.
</event>
<event>
 5    1  0.9034917E-005  0.9118800E+02  0.7818608E-02  0.1130116E+00
         25   -1    0    0    0    0  0.00000000000E+00  0.00000000000E+00  0.99999998245E-14  0.12500000000E+03  0.12500000000E+03 0.  0.
        -13    1    3    3    0    0 -0.33329673304E+02 -0.46925432816E+01 -0.15316360444E+01  0.33693384485E+02  0.10566000000E+00 0.  1.
         23    2    1    0    0    0  0.28457113477E+02 -0.38933825057E+01  0.50580799563E+01  0.95835811213E+02  0.91290485831E+02 0.  0.
         13    1    3    3    0    0  0.61786786781E+02  0.79916077588E+00  0.65897160007E+01  0.62142426728E+02  0.10566000000E+00 0. -1.
         22    1    1    0    0    0 -0.28457113477E+02  0.38933825057E+01 -0.50580799563E+01  0.29164188787E+02  0.00000000000E+00 0. -1.
</event>
<event>
 5    1  0.9034917E-005  0.9118800E+02  0.7818608E-02  0.1130116E+00
         25   -1    0    0    0    0  0.00000000000E+00  0.00000000000E+00  0.99999998245E-14  0.12500000000E+03  0.12500000000E+03 0.  0.
        -13    1    3    3    0    0 -0.44208047854E+02 -0.11100912114E+02 -0.40795614260E+02  0.61170867672E+02  0.10566000000E+00 0. -1.
         23    2    1    0    0    0 -0.18901570113E+02  0.21569325959E+01 -0.24224840242E+02  0.94197977409E+02  0.89019629028E+02 0.  0.
         13    1    3    3    0    0  0.25306477741E+02  0.13257844710E+02  0.16570774018E+02  0.33027109737E+02  0.10566000000E+00 0.  1.
         22    1    1    0    0    0  0.18901570113E+02 -0.21569325959E+01  0.24224840242E+02  0.30802022591E+02  0.00000000000E+00 0. -1.
</event>
<event>
 5    1  0.9034917E-005  0.9118800E+02  0.7818608E-02  0.1130116E+00
         25   -1    0    0    0    0  0.00000000000E+00  0.00000000000E+00  0.99999998245E-14  0.12500000000E+03  0.12500000000E+03 0.  0.
        -13    1    3    3    0    0  0.11074484575E+02 -0.27441559962E+02 -0.39908161970E+02  0.49682552045E+02  0.10566000000E+00 0.  1.
         23    2    1    0    0    0  0.50366538854E+01  0.15738802428E+02 -0.23506687390E+02  0.96266010784E+02  0.91877650688E+02 0.  0.
         13    1    3    3    0    0 -0.60378306899E+01  0.43180362391E+02  0.16401474581E+02  0.46583458739E+02  0.10566000000E+00 0. -1.
         22    1    1    0    0    0 -0.50366538854E+01 -0.15738802428E+02  0.23506687390E+02  0.28733989216E+02  0.00000000000E+00 0.  1.
</event>
<event>
 5    1  0.9034917E-005  0.9118800E+02  0.7818608E-02  0.1130116E+00
         25   -1    0    0    0    0  0.00000000000E+00  0.00000000000E+00  0.99999998245E-14  0.12500000000E+03  0.12500000000E+03 0.  0.
        -13    1    3    3    0    0 -0.50302931590E+02 -0.36090384259E+02  0.16065853382E+01  0.61931357510E+02  0.10566000000E+00 0. -1.
         23    2    1    0    0    0 -0.22085404753E+02 -0.18821140980E+02  0.61894056448E+01  0.95329995061E+02  0.90595246924E+02 0.  0.
         13    1    3    3    0    0  0.28217526837E+02  0.17269243280E+02  0.45828203065E+01  0.33398637551E+02  0.10566000000E+00 0.  1.
         22    1    1    0    0    0  0.22085404753E+02  0.18821140980E+02 -0.61894056448E+01  0.29670004939E+02  0.00000000000E+00 0. -1.
</event>
<event>
 5    1  0.9034917E-005  0.9118800E+02  0.7818608E-02  0.1130116E+00
         25   -1    0    0    0    0  0.00000000000E+00  0.00000000000E+00  0.99999998245E-14  0.12500000000E+03  0.12500000000E+03 0.  0.
        -13    1    3    3    0    0 -0.33592448155E+02 -0.83360637141E+01 -0.14556740704E+01  0.34642065215E+02  0.10566000000E+00 0.  1.
         23    2    1    0    0    0  0.12408384941E+02  0.20413652217E+02 -0.21879530897E+02  0.92605570141E+02  0.86754783932E+02 0.  0.
         13    1    3    3    0    0  0.46000833096E+02  0.28749715931E+02 -0.20423856826E+02  0.57963504926E+02  0.10566000000E+00 0. -1.
         22    1    1    0    0    0 -0.12408384941E+02 -0.20413652217E+02  0.21879530897E+02  0.32394429859E+02  0.00000000000E+00 0. -1.
</event>
<event>
 5    1  0.9034917E-005  0.9118800E+02  0.7818608E-02  0.1130116E+00
         25   -1    0    0    0    0  0.00000000000E+00  0.00000000000E+00  0.99999998245E-14  0.12500000000E+03  0.12500000000E+03 0.  0.
        -13    1    3    3    0    0  0.21215117600E+02  0.47428754251E+02  0.15252489815E+02  0.54149954332E+02  0.10566000000E+00 0. -1.
         23    2    1    0    0    0  0.11752422642E+02  0.21409776065E+02 -0.15922886089E+02  0.95844618841E+02  0.91302544928E+02 0.  0.
         13    1    3    3    0    0 -0.94626949581E+01 -0.26018978186E+02 -0.31175375905E+02  0.41694664509E+02  0.10566000000E+00 0.  1.
         22    1    1    0    0    0 -0.11752422642E+02 -0.21409776065E+02  0.15922886089E+02  0.29155381159E+02  0.00000000000E+00 0. -1.
</event>
<event>
 5    1  0.9034917E-005  0.9118800E+02  0.7818608E-02  0.1130116E+00
         25   -1    0    0    0    0  0.00000000000E+00  0.00000000000E+00  0.99999998245E-14  0.12500000000E+03  0.12500000000E+03 0.  0.
        -13    1    3    3    0    0 -0.20545232590E+02 -0.33929103043E+02  0.23422913784E+01  0.39733966683E+02  0.10566000000E+00 0.  1.
         23    2    1    0    0    0 -0.19070545973E+02  0.16374485801E+02 -0.18071679675E+02  0.94042042780E+02  0.88800398057E+02 0.  0.
         13    1    3    3    0    0  0.14746866166E+01  0.50303588843E+02 -0.20413971053E+02  0.54308076097E+02  0.10566000000E+00 0. -1.
         22    1    1    0    0    0  0.19070545973E+02 -0.16374485801E+02  0.18071679675E+02  0.30957957220E+02  0.00000000000E+00 0. -1.
</event>
<event>
 5    1  0.9034917E-005  0.9118800E+02  0.7818608E-02  0.1130116E+00
         25   -1    0    0    0    0  0.00000000000E+00  0.00000000000E+00  0.99999998245E-14  0.12500000000E+03  0.12500000000E+03 0.  0.
        -13    1    3    3    0    0  0.29722892133E+02 -0.24971361426E+02 -0.86070326164E+01  0.39763191304E+02  0.10566000000E+00 0.  1.
         23    2    1    0    0    0 -0.85251079620E+00  0.17676262058E+02 -0.24667174060E+02  0.94641368754E+02  0.89640070218E+02 0.  0.
         13    1    3    3    0    0 -0.30575402929E+02  0.42647623484E+02 -0.16060141443E+02  0.54878177451E+02  0.10566000000E+00 0. -1.
         22    1    1    0    0    0  0.85251079620E+00 -0.17676262058E+02  0.24667174060E+02  0.30358631246E+02  0.00000000000E+00 0. -1.
</event>
<event>
 5    1  0.9034917E-005  0.9118800E+02  0.7818608E-02  0.1130116E+00
         25   -1    0    0    0    0  0.00000000000E+00  0.00000000000E+00  0.99999998245E-14  0.12500000000E+03  0.12500000000E+03 0.  0.
        -13    1    3    3    0    0 -0.27005485646E+02  0.26206274244E+02  0.25392883752E+02  0.45396858636E+02  0.10566000000E+00 0.  1.
         23    2    1    0    0    0  0.33166708209E+01  0.20717625868E+02 -0.17131806175E+02  0.97912750051E+02  0.94091378526E+02 0.  0.
         13    1    3    3    0    0  0.30322156467E+02 -0.54886483755E+01 -0.42524689927E+02  0.52515891416E+02  0.10566000000E+00 0. -1.
         22    1    1    0    0    0 -0.33166708209E+01 -0.20717625868E+02  0.17131806175E+02  0.27087249949E+02  0.00000000000E+00 0.  1.
</event>
<event>
 5    1  0.9034917E-005  0.9118800E+02  0.7818608E-02  0.1130116E+00
         25   -1    0    0    0    0  0.00000000000E+00  0.00000000000E+00  0.99999998245E-14  0.12500000000E+03  0.12500000000E+03 0.  0.
        -13    1    3    3    0    0  0.10013052183E+02 -0.14061325771E+02 -0.31099012002E+02  0.35568831974E+02  0.10566000000E+00 0. -1.
         23    2    1    0    0    0  0.74627568415E+01 -0.50889826761E+01  0.28092573815E+02  0.95490964301E+02  0.90817074800E+02 0.  0.
         13    1    3    3    0    0 -0.25502953414E+01  0.89723430949E+01  0.59191585817E+02  0.59922132326E+02  0.10566000000E+00 0.  1.
         22    1    1    0    0    0 -0.74627568415E+01  0.50889826761E+01 -0.28092573815E+02  0.29509035699E+02  0.00000000000E+00 0.  1.
</event>
<event>
 5    1  0.9034917E-005  0.9118800E+02  0.7818608E-02  0.1130116E+00
         25   -1    0    0    0    0  0.00000000000E+00  0.00000000000E+00  0.99999998245E-14  0.12500000000E+03  0.12500000000E+03 0.  0.
        -13    1    3    3    0    0 -0.42367641061E+02 -0.39782666775E+02 -0.37616450096E+01  0.58239494520E+02  0.10566000000E+00 0. -1.
         23    2    1    0    0    0 -0.27240496499E+02 -0.50148465795E+01 -0.74009899530E+01  0.96330015905E+02  0.91964688747E+02 0.  0.
         13    1    3    3    0    0  0.15127144563E+02  0.34767820195E+02 -0.36393449435E+01  0.38090521385E+02  0.10566000000E+00 0.  1.
         22    1    1    0    0    0  0.27240496499E+02  0.50148465795E+01  0.74009899530E+01  0.28669984095E+02  0.00000000000E+00 0. -1.
</event>
<event>
 5    1  0.9034917E-005  0.9118800E+02  0.7818608E-02  0.1130116E+00
         25   -1    0    0    0    0  0.00000000000E+00  0.00000000000E+00  0.99999998245E-14  0.12500000000E+03  0.12500000000E+03 0.  0.
        -13    1    3    3    0    0 -0.14041177270E+02 -0.35273922779E+02 -0.77070118680E+01  0.38740334063E+02  0.10566000000E+00 0.  1.
         23    2    1    0    0    0  0.46984752060E+01  0.14274921988E+02 -0.26154989666E+02  0.94834911711E+02  0.89909554152E+02 0.  0.
         13    1    3    3    0    0  0.18739652476E+02  0.49548844767E+02 -0.18447977798E+02  0.56094577648E+02  0.10566000000E+00 0. -1.
         22    1    1    0    0    0 -0.46984752060E+01 -0.14274921988E+02  0.26154989666E+02  0.30165088289E+02  0.00000000000E+00 0. -1.
</event>
<event>
 5    1  0.9034917E-005  0.9118800E+02  0.7818608E-02  0.1130116E+00
         25   -1    0    0    0    0  0.00000000000E+00  0.00000000000E+00  0.99999998245E-14  0.12500000000E+03  0.12500000000E+03 0.  0.
        -13    1    3    3    0    0  0.17019968551E+01  0.40376308964E+02  0.51217915010E+01  0.40735574515E+02  0.10566000000E+00 0. -1.
         23    2    1    0    0    0  0.21564577736E+02 -0.86791402584E+01  0.18461719638E+02  0.95315095073E+02  0.90574686134E+02 0.  0.
         13    1    3    3    0    0  0.19862580881E+02 -0.49055449222E+02  0.13339928137E+02  0.54579520558E+02  0.10566000000E+00 0.  1.
         22    1    1    0    0    0 -0.21564577736E+02  0.86791402584E+01 -0.18461719638E+02  0.29684904927E+02  0.00000000000E+00 0.  1.
</event>
<event>
 5    1  0.9034917E-005  0.9118800E+02  0.7818608E-02  0.1130116E+00
         25   -1    0    0    0    0  0.00000000000E+00  0.00000000000E+00  0.99999998245E-14  0.12500000000E+03  0.12500000000E+03 0.  0.
        -13    1    3    3    0    0  0.18615734635E+02 -0.59049100032E+02  0.73991416562E+00  0.61918498266E+02  0.10566000000E+00 0.  1.
         23    2    1    0    0    0  0.10732947904E+02 -0.28298644970E+02 -0.54127106948E+01  0.94254156135E+02  0.89098479414E+02 0.  0.
         13    1    3    3    0    0 -0.78827867303E+01  0.30750455061E+02 -0.61526248604E+01  0.32335657869E+02  0.10566000000E+00 0. -1.
         22    1    1    0    0    0 -0.10732947904E+02  0.28298644970E+02  0.54127106948E+01  0.30745843865E+02  0.00000000000E+00 0.  1.
</event>
<event>
 5    1  0.9034917E-005  0.9118800E+02  0.7818608E-02  0.1130116E+00
         25   -1    0    0    0    0  0.00000000000E+00  0.00000000000E+00  0.99999998245E-14  0.12500000000E+03  0.12500000000E+03 0.  0.
        -13    1    3    3    0    0 -0.33785055807E+02  0.37553580827E+02  0.33620654956E+02  0.60679988732E+02  0.10566000000E+00 0.  1.
         23    2    1    0    0    0 -0.23963753618E+02  0.11002453755E+02  0.13801202793E+02  0.95237797887E+02  0.90467947206E+02 0.  0.
         13    1    3    3    0    0  0.98213021887E+01 -0.26551127072E+02 -0.19819452163E+02  0.34557809154E+02  0.10566000000E+00 0. -1.
         22    1    1    0    0    0  0.23963753618E+02 -0.11002453755E+02 -0.13801202793E+02  0.29762202113E+02  0.00000000000E+00 0.  1.
</event>
<event>
 5    1  0.9034917E-005  0.9118800E+02  0.7818608E-02  0.1130116E+00
         25   -1    0    0    0    0  0.00000000000E+00  0.00000000000E+00  0.99999998245E-14  0.12500000000E+03  0.12500000000E+03 0.  0.
        -13    1    3    3    0    0 -0.32474210118E+02 -0.39374642577E+02 -0.35427300978E+02  0.62129233212E+02  0.10566000000E+00 0. -1.
         23    2    1    0    0    0 -0.17221367059E+02 -0.18789728730E+02 -0.12069520768E+02  0.96798887953E+02  0.92599794753E+02 0.  0.
         13    1    3    3    0    0  0.15252843059E+02  0.20584913847E+02  0.23357780211E+02  0.34669654741E+02  0.10566000000E+00 0.  1.
         22    1    1    0    0    0  0.17221367059E+02  0.18789728730E+02  0.12069520768E+02  0.28201112047E+02  0.00000000000E+00 0. -1.
</event>
<event>
 5    1  0.9034917E-005  0.9118800E+02  0.7818608E-02  0.1130116E+00
         25   -1    0    0    0    0  0.00000000000E+00  0.00000000000E+00  0.99999998245E-14  0.12500000000E+03  0.12500000000E+03 0.  0.
        -13    1    3    3    0    0  0.35451170527E+02 -0.98480094465E+00 -0.37574730419E+02  0.51668431898E+02  0.10566000000E+00 0.  1.
         23    2    1    0    0    0 -0.76161145313E+01 -0.51214312990E+01 -0.27385244735E+02  0.96117723630E+02  0.91675683295E+02 0.  0.
         13    1    3    3    0    0 -0.43067285059E+02 -0.41366303544E+01  0.10189485684E+02  0.44449291733E+02  0.10566000000E+00 0. -1.
         22    1    1    0    0    0  0.76161145313E+01  0.51214312990E+01  0.27385244735E+02  0.28882276370E+02  0.00000000000E+00 0.  1.
</event>
<event>
 5    1  0.9034917E-005  0.9118800E+02  0.7818608E-02  0.1130116E+00
         25   -1    0    0    0    0  0.00000000000E+00  0.00000000000E+00  0.99999998245E-14  0.12500000000E+03  0.12500000000E+03 0.  0.
        -13    1    3    3    0    0  0.22245802406E+02 -0.26937056884E+02 -0.92905323094E+01  0.36149770579E+02  0.10566000000E+00 0.  1.
         23    2    1    0    0    0 -0.84835529286E+01 -0.49510276592E+02 -0.49946932639E+01  0.74520448504E+02  0.54818902998E+02 0.  0.
         13    1    3    3    0    0 -0.30729355335E+02 -0.22573219707E+02  0.42958390456E+01  0.38370677925E+02  0.10566000000E+00 0. -1.
         22    1    1    0    0    0  0.84835529286E+01  0.49510276592E+02  0.49946932639E+01  0.50479551496E+02  0.00000000000E+00 0. -1.
</event>
<event>
 5    1  0.9034917E-005  0.9118800E+02  0.7818608E-02  0.1130116E+00
         25   -1    0    0    0    0  0.00000000000E+00  0.00000000000E+00  0.99999998245E-14  0.12500000000E+03  0.12500000000E+03 0.  0.
        -13    1    3    3    0    0  0.27412601841E+02  0.21032181869E+02 -0.47181752832E+02  0.58480187912E+02  0.10566000000E+00 0.  1.
         23    2    1    0    0    0  0.19163841012E+02 -0.47287435144E+01 -0.22095306601E+02  0.95372033628E+02  0.90653231641E+02 0.  0.
         13    1    3    3    0    0 -0.82487608291E+01 -0.25760925383E+02  0.25086446231E+02  0.36891845716E+02  0.10566000000E+00 0. -1.
         22    1    1    0    0    0 -0.19163841012E+02  0.47287435144E+01  0.22095306601E+02  0.29627966372E+02  0.00000000000E+00 0.  1.
</event>
<event>
 5    1  0.9034917E-005  0.9118800E+02  0.7818608E-02  0.1130116E+00
         25   -1    0    0    0    0  0.00000000000E+00  0.00000000000E+00  0.99999998245E-14  0.12500000000E+03  0.12500000000E+03 0.  0.
        -13    1    3    3    0    0 -0.31368238780E+02 -0.17657966615E+01  0.63781641551E+01  0.32058954818E+02  0.10566000000E+00 0.  1.
         23    2    1    0    0    0  0.30292644334E+02  0.41445273380E+01  0.50082335209E+01  0.94017685519E+02  0.88766104904E+02 0.  0.
         13    1    3    3    0    0  0.61660883114E+02  0.59103239994E+01 -0.13699306342E+01  0.61958730701E+02  0.10566000000E+00 0. -1.
         22    1    1    0    0    0 -0.30292644334E+02 -0.41445273380E+01 -0.50082335209E+01  0.30982314481E+02  0.00000000000E+00 0. -1.
</event>
<event>
 5    1  0.9034917E-005  0.9118800E+02  0.7818608E-02  0.1130116E+00
         25   -1    0    0    0    0  0.00000000000E+00  0.00000000000E+00  0.99999998245E-14  0.12500000000E+03  0.12500000000E+03 0.  0.
        -13    1    3    3    0    0 -0.21931227957E+02  0.73603182748E+01 -0.31366953211E+02  0.38974991502E+02  0.10566000000E+00 0.  1.
         23    2    1    0    0    0  0.11152228845E+02 -0.19384058705E+02  0.11912474534E+02  0.99661866887E+02  0.96387067192E+02 0.  0.
         13    1    3    3    0    0  0.33083456802E+02 -0.26744376980E+02  0.43279427746E+02  0.60686875385E+02  0.10566000000E+00 0. -1.
         22    1    1    0    0    0 -0.11152228845E+02  0.19384058705E+02 -0.11912474534E+02  0.25338133113E+02  0.00000000000E+00 0. -1.
</event>
<event>
 5    1  0.9034917E-005  0.9118800E+02  0.7818608E-02  0.1130116E+00
         25   -1    0    0    0    0  0.00000000000E+00  0.00000000000E+00  0.99999998245E-14  0.12500000000E+03  0.12500000000E+03 0.  0.
        -13    1    3    3    0    0 -0.76506195290E+01  0.39661553754E+02 -0.13996837318E+02  0.42749192323E+02  0.10566000000E+00 0. -1.
         23    2    1    0    0    0  0.24439085354E+01  0.67063560882E+01  0.27439944274E+02  0.96646897124E+02  0.92394395290E+02 0.  0.
         13    1    3    3    0    0  0.10094528064E+02 -0.32955197666E+02  0.41436781592E+02  0.53897704801E+02  0.10566000000E+00 0.  1.
         22    1    1    0    0    0 -0.24439085354E+01 -0.67063560882E+01 -0.27439944274E+02  0.28353102876E+02  0.00000000000E+00 0.  1.
</event>
<event>
 5    1  0.9034917E-005  0.9118800E+02  0.7818608E-02  0.1130116E+00
         25   -1    0    0    0    0  0.00000000000E+00  0.00000000000E+00  0.99999998245E-14  0.12500000000E+03  0.12500000000E+03 0.  0.
        -13    1    3    3    0    0  0.17899243195E+02 -0.34454779391E+01  0.27545057550E+02  0.33030222292E+02  0.10566000000E+00 0. -1.
         23    2    1    0    0    0  0.22793584775E+02  0.78712466856E+01 -0.26911396013E+02  0.88865151631E+02  0.81186747120E+02 0.  0.
         13    1    3    3    0    0  0.48943415792E+01  0.11316724625E+02 -0.54456453562E+02  0.55834929340E+02  0.10566000000E+00 0.  1.
         22    1    1    0    0    0 -0.22793584775E+02 -0.78712466856E+01  0.26911396013E+02  0.36134848369E+02  0.00000000000E+00 0.  1.
</event>
<event>
 5    1  0.9034917E-005  0.9118800E+02  0.7818608E-02  0.1130116E+00
         25   -1    0    0    0    0  0.00000000000E+00  0.00000000000E+00  0.99999998245E-14  0.12500000000E+03  0.12500000000E+03 0.  0.
        -13    1    3    3    0    0 -0.16187268212E+01  0.49602594564E+02 -0.14347312221E+02  0.51661341407E+02  0.10566000000E+00 0.  1.
         23    2    1    0    0    0  0.23456694391E+02  0.13419863212E+02 -0.11039402591E+02  0.95807918027E+02  0.91252284939E+02 0.  0.
         13    1    3    3    0    0  0.25075421212E+02 -0.36182731352E+02  0.33079096296E+01  0.44146576619E+02  0.10566000000E+00 0. -1.
         22    1    1    0    0    0 -0.23456694391E+02 -0.13419863212E+02  0.11039402591E+02  0.29192081973E+02  0.00000000000E+00 0. -1.
</event>
<event>
 5    1  0.9034917E-005  0.9118800E+02  0.7818608E-02  0.1130116E+00
         25   -1    0    0    0    0  0.00000000000E+00  0.00000000000E+00  0.99999998245E-14  0.12500000000E+03  0.12500000000E+03 0.  0.
        -13    1    3    3    0    0 -0.49894828893E+02 -0.52669935323E+01 -0.20156534838E+02  0.54069697908E+02  0.10566000000E+00 0. -1.
         23    2    1    0    0    0 -0.14280721119E+02  0.14596182836E+02 -0.22119498040E+02  0.94895851737E+02  0.89994238340E+02 0.  0.
         13    1    3    3    0    0  0.35614107774E+02  0.19863176369E+02 -0.19629632021E+01  0.40826153830E+02  0.10566000000E+00 0.  1.
         22    1    1    0    0    0  0.14280721119E+02 -0.14596182836E+02  0.22119498040E+02  0.30104148263E+02  0.00000000000E+00 0. -1.
</event>
<event>
 5    1  0.9034917E-005  0.9118800E+02  0.7818608E-02  0.1130116E+00
         25   -1    0    0    0    0  0.00000000000E+00  0.00000000000E+00  0.99999998245E-14  0.12500000000E+03  0.12500000000E+03 0.  0.
        -13    1    3    3    0    0 -0.28386543386E+02  0.37751323110E+02 -0.39309765413E+02  0.61451013521E+02  0.10566000000E+00 0.  1.
         23    2    1    0    0    0 -0.20116636997E+02  0.13504742667E+02 -0.17261804588E+02  0.95250595699E+02  0.90485628278E+02 0.  0.
         13    1    3    3    0    0  0.82699063885E+01 -0.24246580443E+02  0.22047960825E+02  0.33799582178E+02  0.10566000000E+00 0. -1.
         22    1    1    0    0    0  0.20116636997E+02 -0.13504742667E+02  0.17261804588E+02  0.29749404301E+02  0.00000000000E+00 0.  1.
</event>
<event>
 5    1  0.9034917E-005  0.9118800E+02  0.7818608E-02  0.1130116E+00
         25   -1    0    0    0    0  0.00000000000E+00  0.00000000000E+00  0.99999998245E-14  0.12500000000E+03  0.12500000000E+03 0.  0.
        -13    1    3    3    0    0  0.15407496941E+02 -0.24422514330E+02  0.25759050565E+02  0.38696124072E+02  0.10566000000E+00 0. -1.
         23    2    1    0    0    0 -0.13191714014E+02  0.23223706318E+02  0.10267507968E+02  0.96385605482E+02  0.92040216050E+02 0.  0.
         13    1    3    3    0    0 -0.28599210955E+02  0.47646220647E+02 -0.15491542597E+02  0.57689481410E+02  0.10566000000E+00 0.  1.
         22    1    1    0    0    0  0.13191714014E+02 -0.23223706318E+02 -0.10267507968E+02  0.28614394518E+02  0.00000000000E+00 0.  1.
</event>
<event>
 5    1  0.9034917E-005  0.9118800E+02  0.7818608E-02  0.1130116E+00
         25   -1    0    0    0    0  0.00000000000E+00  0.00000000000E+00  0.99999998245E-14  0.12500000000E+03  0.12500000000E+03 0.  0.
        -13    1    3    3    0    0 -0.14133998020E+02  0.31883123488E+02 -0.92457912697E+01  0.36080455701E+02  0.10566000000E+00 0.  1.
         23    2    1    0    0    0 -0.16252348755E+02 -0.24565559070E+02  0.67323771204E+01  0.94785261309E+02  0.89840499371E+02 0.  0.
         13    1    3    3    0    0 -0.21183507357E+01 -0.56448682558E+02  0.15978168390E+02  0.58704805608E+02  0.10566000000E+00 0. -1.
         22    1    1    0    0    0  0.16252348755E+02  0.24565559070E+02 -0.67323771204E+01  0.30214738691E+02  0.00000000000E+00 0. -1.
</event>
<event>
 5    1  0.9034917E-005  0.9118800E+02  0.7818608E-02  0.1130116E+00
         25   -1    0    0    0    0  0.00000000000E+00  0.00000000000E+00  0.99999998245E-14  0.12500000000E+03  0.12500000000E+03 0.  0.
        -13    1    3    3    0    0 -0.30755047771E+02  0.27030027847E+02 -0.42934378627E+01  0.41169650733E+02  0.10566000000E+00 0.  1.
         23    2    1    0    0    0  0.16287407075E+02 -0.13800214396E+02  0.52038936323E+00  0.10364592892E+03  0.10142229651E+03 0.  0.
         13    1    3    3    0    0  0.47042454846E+02 -0.40830242243E+02  0.48138272259E+01  0.62476278187E+02  0.10566000000E+00 0. -1.
         22    1    1    0    0    0 -0.16287407075E+02  0.13800214396E+02 -0.52038936323E+00  0.21354071080E+02  0.00000000000E+00 0. -1.
</event>
<event>
 5    1  0.9034917E-005  0.9118800E+02  0.7818608E-02  0.1130116E+00
         25   -1    0    0    0    0  0.00000000000E+00  0.00000000000E+00  0.99999998245E-14  0.12500000000E+03  0.12500000000E+03 0.  0.
        -13    1    3    3    0    0  0.21052730956E+02  0.48497009753E+02  0.29987014083E+02  0.60781655237E+02  0.10566000000E+00 0. -1.
         23    2    1    0    0    0  0.16087218713E+02  0.15141818318E+02  0.17764638627E+02  0.96651178976E+02  0.92400188009E+02 0.  0.
         13    1    3    3    0    0 -0.49655122433E+01 -0.33355191435E+02 -0.12222375456E+02  0.35869523740E+02  0.10566000000E+00 0.  1.
         22    1    1    0    0    0 -0.16087218713E+02 -0.15141818318E+02 -0.17764638627E+02  0.28348821024E+02  0.00000000000E+00 0. -1.
</event>
<event>
 5    1  0.9034917E-005  0.9118800E+02  0.7818608E-02  0.1130116E+00
         25   -1    0    0    0    0  0.00000000000E+00  0.00000000000E+00  0.99999998245E-14  0.12500000000E+03  0.12500000000E+03 0.  0.
        -13    1    3    3    0    0  0.50097425576E+01 -0.26289225170E+01 -0.43692279178E+02  0.44057180776E+02  0.10566000000E+00 0. -1.
         23    2    1    0    0    0  0.10634030504E+00 -0.29890442820E+02 -0.82120084540E+00  0.95098089509E+02  0.90274705079E+02 0.  0.
         13    1    3    3    0    0 -0.49034022526E+01 -0.27261520303E+02  0.42871078333E+02  0.51040908733E+02  0.10566000000E+00 0.  1.
         22    1    1    0    0    0 -0.10634030504E+00  0.29890442820E+02  0.82120084540E+00  0.29901910491E+02  0.00000000000E+00 0. -1.
</event>
<event>
 5    1  0.9034917E-005  0.9118800E+02  0.7818608E-02  0.1130116E+00
         25   -1    0    0    0    0  0.00000000000E+00  0.00000000000E+00  0.99999998245E-14  0.12500000000E+03  0.12500000000E+03 0.  0.
        -13    1    3    3    0    0 -0.58102155086E+02 -0.16265735241E+02  0.74484815026E+01  0.60794124792E+02  0.10566000000E+00 0.  1.
         23    2    1    0    0    0 -0.16277875282E+02 -0.13340292240E+02 -0.22688634322E+01  0.10383209122E+03  0.10165147714E+03 0.  0.
         13    1    3    3    0    0  0.41824279804E+02  0.29254430016E+01 -0.97173449348E+01  0.43037966431E+02  0.10566000000E+00 0. -1.
         22    1    1    0    0    0  0.16277875282E+02  0.13340292240E+02  0.22688634322E+01  0.21167908777E+02  0.00000000000E+00 0.  1.
</event>
<event>
 5    1  0.9034917E-005  0.9118800E+02  0.7818608E-02  0.1130116E+00
         25   -1    0    0    0    0  0.00000000000E+00  0.00000000000E+00  0.99999998245E-14  0.12500000000E+03  0.12500000000E+03 0.  0.
        -13    1    3    3    0    0 -0.12395911403E+02 -0.31056495971E+02  0.19568388870E+02  0.38744000419E+02  0.10566000000E+00 0.  1.
         23    2    1    0    0    0  0.24431626998E+02  0.11381712602E+02  0.12199967137E+02  0.95414750674E+02  0.90712114232E+02 0.  0.
         13    1    3    3    0    0  0.36827538401E+02  0.42438208573E+02 -0.73684217329E+01  0.56670750255E+02  0.10566000000E+00 0. -1.
         22    1    1    0    0    0 -0.24431626998E+02 -0.11381712602E+02 -0.12199967137E+02  0.29585249326E+02  0.00000000000E+00 0. -1.
</event>
<event>
 5    1  0.9034917E-005  0.9118800E+02  0.7818608E-02  0.1130116E+00
         25   -1    0    0    0    0  0.00000000000E+00  0.00000000000E+00  0.99999998245E-14  0.12500000000E+03  0.12500000000E+03 0.  0.
        -13    1    3    3    0    0  0.39284987200E+02  0.69818714004E+01 -0.14680537576E+02  0.42515715861E+02  0.10566000000E+00 0.  1.
         23    2    1    0    0    0 -0.94698602875E+01  0.26667371358E+02 -0.84722084749E+01  0.95460107220E+02  0.90774593389E+02 0.  0.
         13    1    3    3    0    0 -0.48754847488E+02  0.19685499958E+02  0.62083291014E+01  0.52944391359E+02  0.10566000000E+00 0. -1.
         22    1    1    0    0    0  0.94698602875E+01 -0.26667371358E+02  0.84722084749E+01  0.29539892780E+02  0.00000000000E+00 0. -1.
</event>
<event>
 5    1  0.9034917E-005  0.9118800E+02  0.7818608E-02  0.1130116E+00
         25   -1    0    0    0    0  0.00000000000E+00  0.00000000000E+00  0.99999998245E-14  0.12500000000E+03  0.12500000000E+03 0.  0.
        -13    1    3    3    0    0 -0.22911300672E+02 -0.20761956455E+02 -0.40996794514E+01  0.31189823179E+02  0.10566000000E+00 0. -1.
         23    2    1    0    0    0  0.28107093590E+02  0.85768145807E+01  0.13561009294E+02  0.92635336685E+02  0.86797662245E+02 0.  0.
         13    1    3    3    0    0  0.51018394262E+02  0.29338771036E+02  0.17660688746E+02  0.61445513505E+02  0.10566000000E+00 0.  1.
         22    1    1    0    0    0 -0.28107093590E+02 -0.85768145807E+01 -0.13561009294E+02  0.32364663315E+02  0.00000000000E+00 0.  1.
</event>
<event>
 5    1  0.9034917E-005  0.9118800E+02  0.7818608E-02  0.1130116E+00
         25   -1    0    0    0    0  0.00000000000E+00  0.00000000000E+00  0.99999998245E-14  0.12500000000E+03  0.12500000000E+03 0.  0.
        -13    1    3    3    0    0 -0.21736619633E+02  0.18844986691E+02 -0.21241621892E+02  0.35760758117E+02  0.10566000000E+00 0.  1.
         23    2    1    0    0    0  0.13134574136E+02  0.74242945962E+01  0.25612852348E+02  0.95273658257E+02  0.90517482092E+02 0.  0.
         13    1    3    3    0    0  0.34871193769E+02 -0.11420692095E+02  0.46854474240E+02  0.59512900141E+02  0.10566000000E+00 0. -1.
         22    1    1    0    0    0 -0.13134574136E+02 -0.74242945962E+01 -0.25612852348E+02  0.29726341743E+02  0.00000000000E+00 0. -1.
</event>
<event>
 5    1  0.9034917E-005  0.9118800E+02  0.7818608E-02  0.1130116E+00
         25   -1    0    0    0    0  0.00000000000E+00  0.00000000000E+00  0.99999998245E-14  0.12500000000E+03  0.12500000000E+03 0.  0.
        -13    1    3    3    0    0  0.32480856306E+02  0.13292675511E+02  0.40314587118E+02  0.53450709510E+02  0.10566000000E+00 0. -1.
         23    2    1    0    0    0 -0.25277817726E+01  0.22543791613E+02  0.18528055827E+02  0.95710051661E+02  0.91118126162E+02 0.  0.
         13    1    3    3    0    0 -0.35008638079E+02  0.92511161016E+01 -0.21786531291E+02  0.42259342150E+02  0.10566000000E+00 0.  1.
         22    1    1    0    0    0  0.25277817726E+01 -0.22543791613E+02 -0.18528055827E+02  0.29289948339E+02  0.00000000000E+00 0. -1.
</event>
<event>
 5    1  0.9034917E-005  0.9118800E+02  0.7818608E-02  0.1130116E+00
         25   -1    0    0    0    0  0.00000000000E+00  0.00000000000E+00  0.99999998245E-14  0.12500000000E+03  0.12500000000E+03 0.  0.
        -13    1    3    3    0    0  0.31010544714E+02  0.58282308880E+00 -0.38452131189E+01  0.31253646094E+02  0.10566000000E+00 0. -1.
         23    2    1    0    0    0 -0.30311282063E+02 -0.55697635161E+01 -0.84162014108E+01  0.93052722618E+02  0.87396685603E+02 0.  0.
         13    1    3    3    0    0 -0.61321826777E+02 -0.61525866049E+01 -0.45709882919E+01  0.61799076524E+02  0.10566000000E+00 0.  1.
         22    1    1    0    0    0  0.30311282063E+02  0.55697635161E+01  0.84162014108E+01  0.31947277382E+02  0.00000000000E+00 0.  1.
</event>
<event>
 5    1  0.9034917E-005  0.9118800E+02  0.7818608E-02  0.1130116E+00
         25   -1    0    0    0    0  0.00000000000E+00  0.00000000000E+00  0.99999998245E-14  0.12500000000E+03  0.12500000000E+03 0.  0.
        -13    1    3    3    0    0 -0.32990786290E+02  0.91526915202E+01 -0.18922358599E+02  0.39118161524E+02  0.10566000000E+00 0.  1.
         23    2    1    0    0    0  0.13132936598E+02  0.25996420980E+02  0.75628608193E+01  0.94908725663E+02  0.90012118160E+02 0.  0.
         13    1    3    3    0    0  0.46123722888E+02  0.16843729460E+02  0.26485219418E+02  0.55790564138E+02  0.10566000000E+00 0. -1.
         22    1    1    0    0    0 -0.13132936598E+02 -0.25996420980E+02 -0.75628608193E+01  0.30091274337E+02  0.00000000000E+00 0. -1.
</event>
<event>
 5    1  0.9034917E-005  0.9118800E+02  0.7818608E-02  0.1130116E+00
         25   -1    0    0    0    0  0.00000000000E+00  0.00000000000E+00  0.99999998245E-14  0.12500000000E+03  0.12500000000E+03 0.  0.
        -13    1    3    3    0    0  0.48240834509E+02 -0.25618969564E+02 -0.17743375204E+02  0.57431247970E+02  0.10566000000E+00 0. -1.
         23    2    1    0    0    0  0.11075788817E+02 -0.20553021805E+02 -0.18905419415E+02  0.94958117794E+02  0.90080682993E+02 0.  0.
         13    1    3    3    0    0 -0.37165045693E+02  0.50659477587E+01 -0.11620442102E+01  0.37526869824E+02  0.10566000000E+00 0.  1.
         22    1    1    0    0    0 -0.11075788817E+02  0.20553021805E+02  0.18905419415E+02  0.30041882206E+02  0.00000000000E+00 0.  1.
</event>
<event>
 5    1  0.9034917E-005  0.9118800E+02  0.7818608E-02  0.1130116E+00
         25   -1    0    0    0    0  0.00000000000E+00  0.00000000000E+00  0.99999998245E-14  0.12500000000E+03  0.12500000000E+03 0.  0.
        -13    1    3    3    0    0  0.13328773456E+02 -0.32820677988E+02 -0.48663318318E+02  0.60191218788E+02  0.10566000000E+00 0. -1.
         23    2    1    0    0    0 -0.59743940460E+01 -0.16063727237E+02 -0.21744140474E+02  0.97313462443E+02  0.93291830353E+02 0.  0.
         13    1    3    3    0    0 -0.19303167502E+02  0.16756950752E+02  0.26919177844E+02  0.37122243654E+02  0.10566000000E+00 0.  1.
         22    1    1    0    0    0  0.59743940460E+01  0.16063727237E+02  0.21744140474E+02  0.27686537557E+02  0.00000000000E+00 0. -1.
</event>
<event>
 5    1  0.9034917E-005  0.9118800E+02  0.7818608E-02  0.1130116E+00
         25   -1    0    0    0    0  0.00000000000E+00  0.00000000000E+00  0.99999998245E-14  0.12500000000E+03  0.12500000000E+03 0.  0.
        -13    1    3    3    0    0  0.23265615938E+02 -0.25532982878E+02  0.12198039639E+02  0.36633665319E+02  0.10566000000E+00 0.  1.
         23    2    1    0    0    0  0.10917431112E+02  0.29310354136E+02  0.54023054893E+01  0.93259299531E+02  0.87691646596E+02 0.  0.
         13    1    3    3    0    0 -0.12348184827E+02  0.54843337014E+02 -0.67957341494E+01  0.56625634212E+02  0.10566000000E+00 0. -1.
         22    1    1    0    0    0 -0.10917431112E+02 -0.29310354136E+02 -0.54023054893E+01  0.31740700469E+02  0.00000000000E+00 0. -1.
</event>
<event>
 5    1  0.9034917E-005  0.9118800E+02  0.7818608E-02  0.1130116E+00
         25   -1    0    0    0    0  0.00000000000E+00  0.00000000000E+00  0.99999998245E-14  0.12500000000E+03  0.12500000000E+03 0.  0.
        -13    1    3    3    0    0 -0.31100316413E+02  0.25242026871E+02  0.24884130884E+02  0.47155283219E+02  0.10566000000E+00 0.  1.
         23    2    1    0    0    0  0.15568712518E+02  0.21611946371E+02  0.12506843731E+02  0.95574124048E+02  0.90931463268E+02 0.  0.
         13    1    3    3    0    0  0.46669028932E+02 -0.36300805001E+01 -0.12377287153E+02  0.48418840829E+02  0.10566000000E+00 0. -1.
         22    1    1    0    0    0 -0.15568712518E+02 -0.21611946371E+02 -0.12506843731E+02  0.29425875952E+02  0.00000000000E+00 0.  1.
</event>
<event>
 5    1  0.9034917E-005  0.9118800E+02  0.7818608E-02  0.1130116E+00
         25   -1    0    0    0    0  0.00000000000E+00  0.00000000000E+00  0.99999998245E-14  0.12500000000E+03  0.12500000000E+03 0.  0.
        -13    1    3    3    0    0 -0.19319517352E+02 -0.12507707104E+02  0.54281827717E+02  0.58959430730E+02  0.10566000000E+00 0.  1.
         23    2    1    0    0    0 -0.22232074719E+02 -0.32710546896E+01  0.18918111101E+02  0.95625523447E+02  0.91002092623E+02 0.  0.
         13    1    3    3    0    0 -0.29125573672E+01  0.92366524140E+01 -0.35363716616E+02  0.36666092717E+02  0.10566000000E+00 0. -1.
         22    1    1    0    0    0  0.22232074719E+02  0.32710546896E+01 -0.18918111101E+02  0.29374476553E+02  0.00000000000E+00 0.  1.
</event>
<event>
 5    1  0.9034917E-005  0.9118800E+02  0.7818608E-02  0.1130116E+00
         25   -1    0    0    0    0  0.00000000000E+00  0.00000000000E+00  0.99999998245E-14  0.12500000000E+03  0.12500000000E+03 0.  0.
        -13    1    3    3    0    0 -0.35163223516E+02  0.42018427370E+02 -0.65007404859E+01  0.55174915656E+02  0.10566000000E+00 0. -1.
         23    2    1    0    0    0 -0.10995363143E+02  0.14814937815E+02 -0.23321626396E+02  0.95263176853E+02  0.90503006653E+02 0.  0.
         13    1    3    3    0    0  0.24167860374E+02 -0.27203489554E+02 -0.16820885910E+02  0.40088261197E+02  0.10566000000E+00 0.  1.
         22    1    1    0    0    0  0.10995363143E+02 -0.14814937815E+02  0.23321626396E+02  0.29736823147E+02  0.00000000000E+00 0. -1.
</event>
<event>
 5    1  0.9034917E-005  0.9118800E+02  0.7818608E-02  0.1130116E+00
         25   -1    0    0    0    0  0.00000000000E+00  0.00000000000E+00  0.99999998245E-14  0.12500000000E+03  0.12500000000E+03 0.  0.
        -13    1    3    3    0    0 -0.27893776408E+01 -0.53293269319E+02 -0.73099048866E+01  0.53864636412E+02  0.10566000000E+00 0.  1.
         23    2    1    0    0    0 -0.11268749875E+02 -0.17927781465E+02  0.17198829671E+02  0.97720157368E+02  0.93835171135E+02 0.  0.
         13    1    3    3    0    0 -0.84793722338E+01  0.35365487854E+02  0.24508734558E+02  0.43855520956E+02  0.10566000000E+00 0. -1.
         22    1    1    0    0    0  0.11268749875E+02  0.17927781465E+02 -0.17198829671E+02  0.27279842632E+02  0.00000000000E+00 0. -1.
</event>
<event>
 5    1  0.9034917E-005  0.9118800E+02  0.7818608E-02  0.1130116E+00
         25   -1    0    0    0    0  0.00000000000E+00  0.00000000000E+00  0.99999998245E-14  0.12500000000E+03  0.12500000000E+03 0.  0.
        -13    1    3    3    0    0  0.15980724747E+02  0.26689680664E+02 -0.14982184685E+02  0.34528244081E+02  0.10566000000E+00 0.  1.
         23    2    1    0    0    0 -0.24032720361E+02 -0.87819186412E+01  0.14500222844E+02  0.95589964205E+02  0.90953235518E+02 0.  0.
         13    1    3    3    0    0 -0.40013445108E+02 -0.35471599305E+02  0.29482407529E+02  0.61061720123E+02  0.10566000000E+00 0. -1.
         22    1    1    0    0    0  0.24032720361E+02  0.87819186412E+01 -0.14500222844E+02  0.29410035795E+02  0.00000000000E+00 0. -1.
</event>
<event>
 5    1  0.9034917E-005  0.9118800E+02  0.7818608E-02  0.1130116E+00
         25   -1    0    0    0    0  0.00000000000E+00  0.00000000000E+00  0.99999998245E-14  0.12500000000E+03  0.12500000000E+03 0.  0.
        -13    1    3    3    0    0  0.19063826618E+02  0.45782100858E+02  0.32241190963E+02  0.59151803041E+02  0.10566000000E+00 0.  1.
         23    2    1    0    0    0  0.77170306761E+01  0.28919295828E+02  0.27854594203E+01  0.94939444153E+02  0.90054766882E+02 0.  0.
         13    1    3    3    0    0 -0.11346795942E+02 -0.16862805030E+02 -0.29455731542E+02  0.35787641112E+02  0.10566000000E+00 0. -1.
         22    1    1    0    0    0 -0.77170306761E+01 -0.28919295828E+02 -0.27854594203E+01  0.30060555847E+02  0.00000000000E+00 0.  1.
</event>
<event>
 5    1  0.9034917E-005  0.9118800E+02  0.7818608E-02  0.1130116E+00
         25   -1    0    0    0    0  0.00000000000E+00  0.00000000000E+00  0.99999998245E-14  0.12500000000E+03  0.12500000000E+03 0.  0.
        -13    1    3    3    0    0 -0.82332717577E+00  0.43627397810E+02  0.51759971853E+01  0.43941208657E+02  0.10566000000E+00 0.  1.
         23    2    1    0    0    0  0.14634840578E+02 -0.11102723305E+02 -0.11647622864E+02  0.10324876689E+03  0.10093161904E+03 0.  0.
         13    1    3    3    0    0  0.15458167754E+02 -0.54730121116E+02 -0.16823620049E+02  0.59307558230E+02  0.10566000000E+00 0. -1.
         22    1    1    0    0    0 -0.14634840578E+02  0.11102723305E+02  0.11647622864E+02  0.21751233113E+02  0.00000000000E+00 0. -1.
</event>
<event>
 5    1  0.9034917E-005  0.9118800E+02  0.7818608E-02  0.1130116E+00
         25   -1    0    0    0    0  0.00000000000E+00  0.00000000000E+00  0.99999998245E-14  0.12500000000E+03  0.12500000000E+03 0.  0.
        -13    1    3    3    0    0  0.41623872801E+02  0.22288699118E+01 -0.58492275548E+01  0.42092033392E+02  0.10566000000E+00 0. -1.
         23    2    1    0    0    0 -0.63594116237E+00  0.35850860503E+01  0.28315304148E+02  0.96451554996E+02  0.92129738678E+02 0.  0.
         13    1    3    3    0    0 -0.42259813964E+02  0.13562161385E+01  0.34164531703E+02  0.54359521604E+02  0.10566000000E+00 0.  1.
         22    1    1    0    0    0  0.63594116237E+00 -0.35850860503E+01 -0.28315304148E+02  0.28548445004E+02  0.00000000000E+00 0. -1.
</event>
<event>
 5    1  0.9034917E-005  0.9118800E+02  0.7818608E-02  0.1130116E+00
         25   -1    0    0    0    0  0.00000000000E+00  0.00000000000E+00  0.99999998245E-14  0.12500000000E+03  0.12500000000E+03 0.  0.
        -13    1    3    3    0    0 -0.22139652234E+02  0.51102887697E+02  0.24004852766E+02  0.60645803254E+02  0.10566000000E+00 0. -1.
         23    2    1    0    0    0 -0.15912427004E+02  0.18369931617E+02  0.18587117814E+02  0.94403584043E+02  0.89307872054E+02 0.  0.
         13    1    3    3    0    0  0.62272252297E+01 -0.32732956079E+02 -0.54177349526E+01  0.33757780789E+02  0.10566000000E+00 0.  1.
         22    1    1    0    0    0  0.15912427004E+02 -0.18369931617E+02 -0.18587117814E+02  0.30596415957E+02  0.00000000000E+00 0. -1.
</event>
<event>
 5    1  0.9034917E-005  0.9118800E+02  0.7818608E-02  0.1130116E+00
         25   -1    0    0    0    0  0.00000000000E+00  0.00000000000E+00  0.99999998245E-14  0.12500000000E+03  0.12500000000E+03 0.  0.
        -13    1    3    3    0    0  0.43026802159E+02  0.49431405974E+01  0.38501913495E+02  0.57949537098E+02  0.10566000000E+00 0.  1.
         23    2    1    0    0    0  0.11012401158E+02  0.16425410680E+02  0.20829770959E+02  0.96278118908E+02  0.91894122375E+02 0.  0.
         13    1    3    3    0    0 -0.32014401001E+02  0.11482270083E+02 -0.17672142537E+02  0.38328581810E+02  0.10566000000E+00 0. -1.
         22    1    1    0    0    0 -0.11012401158E+02 -0.16425410680E+02 -0.20829770959E+02  0.28721881092E+02  0.00000000000E+00 0.  1.
</event>
<event>
 5    1  0.9034917E-005  0.9118800E+02  0.7818608E-02  0.1130116E+00
         25   -1    0    0    0    0  0.00000000000E+00  0.00000000000E+00  0.99999998245E-14  0.12500000000E+03  0.12500000000E+03 0.  0.
        -13    1    3    3    0    0 -0.53882176382E+01  0.31151116631E+01  0.38597659204E+02  0.39096384360E+02  0.10566000000E+00 0.  1.
         23    2    1    0    0    0 -0.61893662239E+01  0.22200233172E+02 -0.16002895496E+02  0.96942001650E+02  0.92792782115E+02 0.  0.
         13    1    3    3    0    0 -0.80114858565E+00  0.19085121508E+02 -0.54600554700E+02  0.57845617290E+02  0.10566000000E+00 0. -1.
         22    1    1    0    0    0  0.61893662239E+01 -0.22200233172E+02  0.16002895496E+02  0.28057998350E+02  0.00000000000E+00 0. -1.
</event>
<event>
 5    1  0.9034917E-005  0.9118800E+02  0.7818608E-02  0.1130116E+00
         25   -1    0    0    0    0  0.00000000000E+00  0.00000000000E+00  0.99999998245E-14  0.12500000000E+03  0.12500000000E+03 0.  0.
        -13    1    3    3    0    0  0.21631680958E+02 -0.27845880387E+02  0.37510761367E+02  0.51481948855E+02  0.10566000000E+00 0.  1.
         23    2    1    0    0    0  0.10336334035E+01 -0.28682430671E+02 -0.21894354420E+01  0.96215562281E+02  0.91808989594E+02 0.  0.
         13    1    3    3    0    0 -0.20598047555E+02 -0.83655028403E+00 -0.39700196809E+02  0.44733613426E+02  0.10566000000E+00 0. -1.
         22    1    1    0    0    0 -0.10336334035E+01  0.28682430671E+02  0.21894354420E+01  0.28784437719E+02  0.00000000000E+00 0.  1.
</event>
<event>
 5    1  0.9034917E-005  0.9118800E+02  0.7818608E-02  0.1130116E+00
         25   -1    0    0    0    0  0.00000000000E+00  0.00000000000E+00  0.99999998245E-14  0.12500000000E+03  0.12500000000E+03 0.  0.
        -13    1    3    3    0    0  0.60147874923E+02 -0.15009611732E+02 -0.49854812816E+01  0.62192616039E+02  0.10566000000E+00 0. -1.
         23    2    1    0    0    0  0.27413084371E+02 -0.52131727954E+01 -0.63230898112E+01  0.96388187229E+02  0.92043722258E+02 0.  0.
         13    1    3    3    0    0 -0.32734790553E+02  0.97964389368E+01 -0.13376085296E+01  0.34195571190E+02  0.10566000000E+00 0.  1.
         22    1    1    0    0    0 -0.27413084371E+02  0.52131727954E+01  0.63230898112E+01  0.28611812771E+02  0.00000000000E+00 0. -1.
</event>
<event>
 5    1  0.9034917E-005  0.9118800E+02  0.7818608E-02  0.1130116E+00
         25   -1    0    0    0    0  0.00000000000E+00  0.00000000000E+00  0.99999998245E-14  0.12500000000E+03  0.12500000000E+03 0.  0.
        -13    1    3    3    0    0 -0.13193511791E+02  0.11405993594E+02  0.35970031244E+02  0.39975239273E+02  0.10566000000E+00 0.  1.
         23    2    1    0    0    0  0.10019651907E+02  0.23778238485E+02 -0.13406894919E+02  0.95921779952E+02  0.91408123206E+02 0.  0.
         13    1    3    3    0    0  0.23213163698E+02  0.12372244891E+02 -0.49376926163E+02  0.55946540679E+02  0.10566000000E+00 0. -1.
         22    1    1    0    0    0 -0.10019651907E+02 -0.23778238485E+02  0.13406894919E+02  0.29078220048E+02  0.00000000000E+00 0. -1.
</event>
<event>
 5    1  0.9034917E-005  0.9118800E+02  0.7818608E-02  0.1130116E+00
         25   -1    0    0    0    0  0.00000000000E+00  0.00000000000E+00  0.99999998245E-14  0.12500000000E+03  0.12500000000E+03 0.  0.
        -13    1    3    3    0    0 -0.14467150403E+02 -0.13572730348E+02  0.29968298854E+02  0.35939220222E+02  0.10566000000E+00 0.  1.
         23    2    1    0    0    0 -0.26748634875E+01 -0.27528742256E+01 -0.28338562862E+02  0.96402668721E+02  0.92063386752E+02 0.  0.
         13    1    3    3    0    0  0.11792286916E+02  0.10819856122E+02 -0.58306861716E+02  0.60463448500E+02  0.10566000000E+00 0. -1.
         22    1    1    0    0    0  0.26748634875E+01  0.27528742256E+01  0.28338562862E+02  0.28597331279E+02  0.00000000000E+00 0. -1.
</event>
<event>
 5    1  0.9034917E-005  0.9118800E+02  0.7818608E-02  0.1130116E+00
         25   -1    0    0    0    0  0.00000000000E+00  0.00000000000E+00  0.99999998245E-14  0.12500000000E+03  0.12500000000E+03 0.  0.
        -13    1    3    3    0    0 -0.22106601051E+01  0.27821512374E+02  0.42123724522E+01  0.28225499368E+02  0.10566000000E+00 0.  1.
         23    2    1    0    0    0  0.17259667262E+02 -0.30147423635E+02 -0.44131714972E+01  0.89982299498E+02  0.82888930952E+02 0.  0.
         13    1    3    3    0    0  0.19470327367E+02 -0.57968936009E+02 -0.86255439494E+01  0.61756800129E+02  0.10566000000E+00 0. -1.
         22    1    1    0    0    0 -0.17259667262E+02  0.30147423635E+02  0.44131714972E+01  0.35017700502E+02  0.00000000000E+00 0. -1.
</event>
<event>
 5    1  0.9034917E-005  0.9118800E+02  0.7818608E-02  0.1130116E+00
         25   -1    0    0    0    0  0.00000000000E+00  0.00000000000E+00  0.99999998245E-14  0.12500000000E+03  0.12500000000E+03 0.  0.
        -13    1    3    3    0    0 -0.19554970517E+02 -0.16247576528E+02  0.50103511085E+02  0.56184994456E+02  0.10566000000E+00 0. -1.
         23    2    1    0    0    0 -0.10031197365E+02  0.12537943700E+02  0.23597268165E+02  0.96457820376E+02  0.92138239044E+02 0.  0.
         13    1    3    3    0    0  0.95237731523E+01  0.28785520228E+02 -0.26506242920E+02  0.40272825920E+02  0.10566000000E+00 0.  1.
         22    1    1    0    0    0  0.10031197365E+02 -0.12537943700E+02 -0.23597268165E+02  0.28542179624E+02  0.00000000000E+00 0. -1.
</event>
<event>
 5    1  0.9034917E-005  0.9118800E+02  0.7818608E-02  0.1130116E+00
         25   -1    0    0    0    0  0.00000000000E+00  0.00000000000E+00  0.99999998245E-14  0.12500000000E+03  0.12500000000E+03 0.  0.
        -13    1    3    3    0    0 -0.16694988756E+02 -0.26151039045E+02  0.37936206162E+02  0.49007819730E+02  0.10566000000E+00 0.  1.
         23    2    1    0    0    0  0.17316400589E+02  0.35964765351E+01  0.21663699884E+02  0.97033801376E+02  0.92916362090E+02 0.  0.
         13    1    3    3    0    0  0.34011389345E+02  0.29747515581E+02 -0.16272506278E+02  0.48025981646E+02  0.10566000000E+00 0. -1.
         22    1    1    0    0    0 -0.17316400589E+02 -0.35964765351E+01 -0.21663699884E+02  0.27966198624E+02  0.00000000000E+00 0.  1.
</event>
<event>
 5    1  0.9034917E-005  0.9118800E+02  0.7818608E-02  0.1130116E+00
         25   -1    0    0    0    0  0.00000000000E+00  0.00000000000E+00  0.99999998245E-14  0.12500000000E+03  0.12500000000E+03 0.  0.
        -13    1    3    3    0    0  0.40471239239E+01  0.29936024396E+02 -0.34795861756E+02  0.46079365534E+02  0.10566000000E+00 0.  1.
         23    2    1    0    0    0  0.27986020764E+02  0.13794288668E+01 -0.12185249791E+00  0.96979738934E+02  0.92843603622E+02 0.  0.
         13    1    3    3    0    0  0.23938896840E+02 -0.28556595529E+02  0.34674009258E+02  0.50900373399E+02  0.10566000000E+00 0. -1.
         22    1    1    0    0    0 -0.27986020764E+02 -0.13794288668E+01  0.12185249791E+00  0.28020261066E+02  0.00000000000E+00 0. -1.
</event>
<event>
 5    1  0.9034917E-005  0.9118800E+02  0.7818608E-02  0.1130116E+00
         25   -1    0    0    0    0  0.00000000000E+00  0.00000000000E+00  0.99999998245E-14  0.12500000000E+03  0.12500000000E+03 0.  0.
        -13    1    3    3    0    0 -0.56100504658E+01  0.32850120223E+02  0.16133430047E+02  0.37025691000E+02  0.10566000000E+00 0. -1.
         23    2    1    0    0    0  0.18436039688E+02 -0.20249800990E+02 -0.38621779338E+00  0.97612207761E+02  0.93691258612E+02 0.  0.
         13    1    3    3    0    0  0.24046090154E+02 -0.53099921213E+02 -0.16519647840E+02  0.60586516762E+02  0.10566000000E+00 0.  1.
         22    1    1    0    0    0 -0.18436039688E+02  0.20249800990E+02  0.38621779338E+00  0.27387792239E+02  0.00000000000E+00 0.  1.
</event>
<event>
 5    1  0.9034917E-005  0.9118800E+02  0.7818608E-02  0.1130116E+00
         25   -1    0    0    0    0  0.00000000000E+00  0.00000000000E+00  0.99999998245E-14  0.12500000000E+03  0.12500000000E+03 0.  0.
        -13    1    3    3    0    0  0.96255290575E+01  0.45045237735E+02  0.80049430204E+01  0.46752695420E+02  0.10566000000E+00 0.  1.
         23    2    1    0    0    0 -0.24194535641E+02  0.13205807306E+02 -0.86701638733E+01  0.96104660530E+02  0.91657869998E+02 0.  0.
         13    1    3    3    0    0 -0.33820064699E+02 -0.31839430429E+02 -0.16675106894E+02  0.49351965110E+02  0.10566000000E+00 0. -1.
         22    1    1    0    0    0  0.24194535641E+02 -0.13205807306E+02  0.86701638733E+01  0.28895339470E+02  0.00000000000E+00 0. -1.
</event>
<event>
 5    1  0.9034917E-005  0.9118800E+02  0.7818608E-02  0.1130116E+00
         25   -1    0    0    0    0  0.00000000000E+00  0.00000000000E+00  0.99999998245E-14  0.12500000000E+03  0.12500000000E+03 0.  0.
        -13    1    3    3    0    0 -0.19104067826E+02 -0.11424573373E+02  0.32327682422E+02  0.39250178331E+02  0.10566000000E+00 0.  1.
         23    2    1    0    0    0  0.26410993155E+02  0.94460145327E+01  0.43293151100E+01  0.96618479263E+02  0.92355940880E+02 0.  0.
         13    1    3    3    0    0  0.45515060981E+02  0.20870587905E+02 -0.27998367312E+02  0.57368300932E+02  0.10566000000E+00 0. -1.
         22    1    1    0    0    0 -0.26410993155E+02 -0.94460145327E+01 -0.43293151100E+01  0.28381520737E+02  0.00000000000E+00 0. -1.
</event>
<event>
 5    1  0.9034917E-005  0.9118800E+02  0.7818608E-02  0.1130116E+00
         25   -1    0    0    0    0  0.00000000000E+00  0.00000000000E+00  0.99999998245E-14  0.12500000000E+03  0.12500000000E+03 0.  0.
        -13    1    3    3    0    0  0.17976721898E+02  0.15468431349E+02  0.27422022167E+02  0.36254839157E+02  0.10566000000E+00 0. -1.
         23    2    1    0    0    0 -0.25555762901E+02 -0.16278161028E+02  0.67916607597E+01  0.93948394570E+02  0.88668476035E+02 0.  0.
         13    1    3    3    0    0 -0.43532484799E+02 -0.31746592377E+02 -0.20630361407E+02  0.57693555412E+02  0.10566000000E+00 0.  1.
         22    1    1    0    0    0  0.25555762901E+02  0.16278161028E+02 -0.67916607597E+01  0.31051605430E+02  0.00000000000E+00 0.  1.
</event>
<event>
 5    1  0.9034917E-005  0.9118800E+02  0.7818608E-02  0.1130116E+00
         25   -1    0    0    0    0  0.00000000000E+00  0.00000000000E+00  0.99999998245E-14  0.12500000000E+03  0.12500000000E+03 0.  0.
        -13    1    3    3    0    0  0.20032987398E+02  0.45474275273E+02  0.36772477816E+02  0.61817930930E+02  0.10566000000E+00 0. -1.
         23    2    1    0    0    0  0.11917208198E+02  0.15783117428E+02  0.20006240557E+02  0.96868588585E+02  0.92693835536E+02 0.  0.
         13    1    3    3    0    0 -0.81157792004E+01 -0.29691157845E+02 -0.16766237260E+02  0.35050657655E+02  0.10566000000E+00 0.  1.
         22    1    1    0    0    0 -0.11917208198E+02 -0.15783117428E+02 -0.20006240557E+02  0.28131411415E+02  0.00000000000E+00 0. -1.
</event>
<event>
 5    1  0.9034917E-005  0.9118800E+02  0.7818608E-02  0.1130116E+00
         25   -1    0    0    0    0  0.00000000000E+00  0.00000000000E+00  0.99999998245E-14  0.12500000000E+03  0.12500000000E+03 0.  0.
        -13    1    3    3    0    0 -0.17420627582E+02  0.16979246326E+02 -0.22203795190E+02  0.32936192190E+02  0.10566000000E+00 0.  1.
         23    2    1    0    0    0  0.28194270435E+02 -0.24416927058E+01  0.13116409014E+02  0.93808351533E+02  0.88470830692E+02 0.  0.
         13    1    3    3    0    0  0.45614898017E+02 -0.19420939032E+02  0.35320204204E+02  0.60872159343E+02  0.10566000000E+00 0. -1.
         22    1    1    0    0    0 -0.28194270435E+02  0.24416927058E+01 -0.13116409014E+02  0.31191648467E+02  0.00000000000E+00 0. -1.
</event>
<event>
 5    1  0.9034917E-005  0.9118800E+02  0.7818608E-02  0.1130116E+00
         25   -1    0    0    0    0  0.00000000000E+00  0.00000000000E+00  0.99999998245E-14  0.12500000000E+03  0.12500000000E+03 0.  0.
        -13    1    3    3    0    0  0.51095875575E+02 -0.26182126266E+02  0.16015881873E+02  0.59605468480E+02  0.10566000000E+00 0. -1.
         23    2    1    0    0    0  0.15633723519E+02 -0.22633746008E+02  0.98927269444E+01  0.95767042301E+02  0.91196275008E+02 0.  0.
         13    1    3    3    0    0 -0.35462152056E+02  0.35483802584E+01 -0.61231549282E+01  0.36161573821E+02  0.10566000000E+00 0.  1.
         22    1    1    0    0    0 -0.15633723519E+02  0.22633746008E+02 -0.98927269444E+01  0.29232957699E+02  0.00000000000E+00 0. -1.
</event>
<event>
 5    1  0.9034917E-005  0.9118800E+02  0.7818608E-02  0.1130116E+00
         25   -1    0    0    0    0  0.00000000000E+00  0.00000000000E+00  0.99999998245E-14  0.12500000000E+03  0.12500000000E+03 0.  0.
        -13    1    3    3    0    0  0.21168919985E+02  0.19044594913E+02  0.20342863323E+02  0.34995185682E+02  0.10566000000E+00 0.  1.
         23    2    1    0    0    0 -0.24755252108E+02 -0.81945212684E+01 -0.10762913941E+02  0.96789842215E+02  0.92587583151E+02 0.  0.
         13    1    3    3    0    0 -0.45924172093E+02 -0.27239116181E+02 -0.31105777264E+02  0.61794656533E+02  0.10566000000E+00 0. -1.
         22    1    1    0    0    0  0.24755252108E+02  0.81945212684E+01  0.10762913941E+02  0.28210157785E+02  0.00000000000E+00 0. -1.
</event>
<event>
 5    1  0.9034917E-005  0.9118800E+02  0.7818608E-02  0.1130116E+00
         25   -1    0    0    0    0  0.00000000000E+00  0.00000000000E+00  0.99999998245E-14  0.12500000000E+03  0.12500000000E+03 0.  0.
        -13    1    3    3    0    0 -0.25798013676E+02 -0.24441383455E+02 -0.21130771668E+02  0.41345367457E+02  0.10566000000E+00 0. -1.
         23    2    1    0    0    0  0.18133390673E+02 -0.22357601528E+02  0.92091415819E+01  0.94775994771E+02  0.89827605405E+02 0.  0.
         13    1    3    3    0    0  0.43931404349E+02  0.20837819266E+01  0.30339913250E+02  0.53430627314E+02  0.10566000000E+00 0.  1.
         22    1    1    0    0    0 -0.18133390673E+02  0.22357601528E+02 -0.92091415819E+01  0.30224005229E+02  0.00000000000E+00 0.  1.
</event>
<event>
 5    1  0.9034917E-005  0.9118800E+02  0.7818608E-02  0.1130116E+00
         25   -1    0    0    0    0  0.00000000000E+00  0.00000000000E+00  0.99999998245E-14  0.12500000000E+03  0.12500000000E+03 0.  0.
        -13    1    3    3    0    0 -0.39065882047E+02 -0.59203881684E+01 -0.13075210682E+02  0.41619303629E+02  0.10566000000E+00 0. -1.
         23    2    1    0    0    0  0.88135836899E+01  0.52946415296E+01 -0.29732941969E+02  0.93539543479E+02  0.88090214381E+02 0.  0.
         13    1    3    3    0    0  0.47879465737E+02  0.11215029698E+02 -0.16657731287E+02  0.51920239850E+02  0.10566000000E+00 0.  1.
         22    1    1    0    0    0 -0.88135836899E+01 -0.52946415296E+01  0.29732941969E+02  0.31460456521E+02  0.00000000000E+00 0. -1.
</event>
<event>
 5    1  0.9034917E-005  0.9118800E+02  0.7818608E-02  0.1130116E+00
         25   -1    0    0    0    0  0.00000000000E+00  0.00000000000E+00  0.99999998245E-14  0.12500000000E+03  0.12500000000E+03 0.  0.
        -13    1    3    3    0    0 -0.38291855721E+02 -0.14760624494E+02  0.94325668122E+01  0.42108511380E+02  0.10566000000E+00 0.  1.
         23    2    1    0    0    0  0.63166370265E+01 -0.20484104333E+02 -0.19857611564E+02  0.95779747252E+02  0.91213687640E+02 0.  0.
         13    1    3    3    0    0  0.44608492747E+02 -0.57234798398E+01 -0.29290178376E+02  0.53671235871E+02  0.10566000000E+00 0. -1.
         22    1    1    0    0    0 -0.63166370265E+01  0.20484104333E+02  0.19857611564E+02  0.29220252748E+02  0.00000000000E+00 0. -1.
</event>
<event>
 5    1  0.9034917E-005  0.9118800E+02  0.7818608E-02  0.1130116E+00
         25   -1    0    0    0    0  0.00000000000E+00  0.00000000000E+00  0.99999998245E-14  0.12500000000E+03  0.12500000000E+03 0.  0.
        -13    1    3    3    0    0  0.50557311326E+02  0.35919920207E+02  0.39314919565E+01  0.62142981818E+02  0.10566000000E+00 0. -1.
         23    2    1    0    0    0  0.21136712854E+02  0.20083666609E+02 -0.44068987478E+00  0.95839950234E+02  0.91296153033E+02 0.  0.
         13    1    3    3    0    0 -0.29420598472E+02 -0.15836253598E+02 -0.43721818313E+01  0.33696968416E+02  0.10566000000E+00 0.  1.
         22    1    1    0    0    0 -0.21136712854E+02 -0.20083666609E+02  0.44068987478E+00  0.29160049766E+02  0.00000000000E+00 0. -1.
</event>
<event>
 5    1  0.9034917E-005  0.9118800E+02  0.7818608E-02  0.1130116E+00
         25   -1    0    0    0    0  0.00000000000E+00  0.00000000000E+00  0.99999998245E-14  0.12500000000E+03  0.12500000000E+03 0.  0.
        -13    1    3    3    0    0 -0.28591140336E+02 -0.92908020878E+01 -0.47971330605E+02  0.56613002333E+02  0.10566000000E+00 0.  1.
         23    2    1    0    0    0  0.35678149083E+01 -0.12704682113E+02 -0.26396001523E+02  0.95489202870E+02  0.90814650347E+02 0.  0.
         13    1    3    3    0    0  0.32158955244E+02 -0.34138800250E+01  0.21575329082E+02  0.38876200537E+02  0.10566000000E+00 0. -1.
         22    1    1    0    0    0 -0.35678149083E+01  0.12704682113E+02  0.26396001523E+02  0.29510797130E+02  0.00000000000E+00 0.  1.
</event>
<event>
 5    1  0.9034917E-005  0.9118800E+02  0.7818608E-02  0.1130116E+00
         25   -1    0    0    0    0  0.00000000000E+00  0.00000000000E+00  0.99999998245E-14  0.12500000000E+03  0.12500000000E+03 0.  0.
        -13    1    3    3    0    0 -0.41655448969E+02 -0.20508535413E+02 -0.11212937083E+02  0.47765233965E+02  0.10566000000E+00 0.  1.
         23    2    1    0    0    0 -0.10085719551E+02  0.11936297440E+02 -0.25375835359E+02  0.95198490716E+02  0.90413619986E+02 0.  0.
         13    1    3    3    0    0  0.31569729419E+02  0.32444832853E+02 -0.14162898276E+02  0.47433256751E+02  0.10566000000E+00 0. -1.
         22    1    1    0    0    0  0.10085719551E+02 -0.11936297440E+02  0.25375835359E+02  0.29801509284E+02  0.00000000000E+00 0.  1.
</event>
<event>
 5    1  0.9034917E-005  0.9118800E+02  0.7818608E-02  0.1130116E+00
         25   -1    0    0    0    0  0.00000000000E+00  0.00000000000E+00  0.99999998245E-14  0.12500000000E+03  0.12500000000E+03 0.  0.
        -13    1    3    3    0    0  0.14198283086E+02  0.71578872217E+01  0.38419442415E+02  0.41579938812E+02  0.10566000000E+00 0. -1.
         23    2    1    0    0    0  0.24658798870E+02 -0.14736977680E+02 -0.90410688447E+01  0.94883961105E+02  0.89977721000E+02 0.  0.
         13    1    3    3    0    0  0.10460515784E+02 -0.21894864902E+02 -0.47460511260E+02  0.53304022293E+02  0.10566000000E+00 0.  1.
         22    1    1    0    0    0 -0.24658798870E+02  0.14736977680E+02  0.90410688447E+01  0.30116038895E+02  0.00000000000E+00 0.  1.
</event>
<event>
 5    1  0.9034917E-005  0.9118800E+02  0.7818608E-02  0.1130116E+00
         25   -1    0    0    0    0  0.00000000000E+00  0.00000000000E+00  0.99999998245E-14  0.12500000000E+03  0.12500000000E+03 0.  0.
        -13    1    3    3    0    0  0.19759213846E+02 -0.17910370779E+02  0.39237602539E+02  0.47442686794E+02  0.10566000000E+00 0. -1.
         23    2    1    0    0    0 -0.21852873494E+02 -0.71042416071E+01  0.19974384776E+02  0.94553417664E+02  0.89517341426E+02 0.  0.
         13    1    3    3    0    0 -0.41612087340E+02  0.10806129172E+02 -0.19263217763E+02  0.47110730870E+02  0.10566000000E+00 0.  1.
         22    1    1    0    0    0  0.21852873494E+02  0.71042416071E+01 -0.19974384776E+02  0.30446582336E+02  0.00000000000E+00 0.  1.
</event>
<event>
 5    1  0.9034917E-005  0.9118800E+02  0.7818608E-02  0.1130116E+00
         25   -1    0    0    0    0  0.00000000000E+00  0.00000000000E+00  0.99999998245E-14  0.12500000000E+03  0.12500000000E+03 0.  0.
        -13    1    3    3    0    0  0.24270824284E+01 -0.40382538228E+02 -0.35225828128E+01  0.40608618255E+02  0.10566000000E+00 0.  1.
         23    2    1    0    0    0  0.18611943066E+02  0.88256235933E+01  0.18890427413E+02  0.97051041086E+02  0.92939551708E+02 0.  0.
         13    1    3    3    0    0  0.16184860638E+02  0.49208161821E+02  0.22413010225E+02  0.56442422832E+02  0.10566000000E+00 0. -1.
         22    1    1    0    0    0 -0.18611943066E+02 -0.88256235933E+01 -0.18890427413E+02  0.27948958914E+02  0.00000000000E+00 0. -1.
</event>
<event>
 5    1  0.9034917E-005  0.9118800E+02  0.7818608E-02  0.1130116E+00
         25   -1    0    0    0    0  0.00000000000E+00  0.00000000000E+00  0.99999998245E-14  0.12500000000E+03  0.12500000000E+03 0.  0.
        -13    1    3    3    0    0 -0.28752924309E+02 -0.11142231323E+02  0.12461965289E+02  0.33259460580E+02  0.10566000000E+00 0.  1.
         23    2    1    0    0    0  0.24247005457E+02  0.93775695973E+01 -0.13459313575E+02  0.95725280410E+02  0.91139015259E+02 0.  0.
         13    1    3    3    0    0  0.52999929766E+02  0.20519800921E+02 -0.25921278864E+02  0.62465819830E+02  0.10566000000E+00 0. -1.
         22    1    1    0    0    0 -0.24247005457E+02 -0.93775695973E+01  0.13459313575E+02  0.29274719590E+02  0.00000000000E+00 0. -1.
</event>
<event>
 5    1  0.9034917E-005  0.9118800E+02  0.7818608E-02  0.1130116E+00
         25   -1    0    0    0    0  0.00000000000E+00  0.00000000000E+00  0.99999998245E-14  0.12500000000E+03  0.12500000000E+03 0.  0.
        -13    1    3    3    0    0 -0.65075769841E+01  0.38521477419E+02 -0.13400890037E+02  0.41301910350E+02  0.10566000000E+00 0.  1.
         23    2    1    0    0    0  0.27026394456E+02 -0.51424871730E+01 -0.58646383986E+01  0.96870564258E+02  0.92696499743E+02 0.  0.
         13    1    3    3    0    0  0.33533971440E+02 -0.43663964592E+02  0.75362516383E+01  0.55568653908E+02  0.10566000000E+00 0. -1.
         22    1    1    0    0    0 -0.27026394456E+02  0.51424871730E+01  0.58646383986E+01  0.28129435742E+02  0.00000000000E+00 0. -1.
</event>
<event>
 5    1  0.9034917E-005  0.9118800E+02  0.7818608E-02  0.1130116E+00
         25   -1    0    0    0    0  0.00000000000E+00  0.00000000000E+00  0.99999998245E-14  0.12500000000E+03  0.12500000000E+03 0.  0.
        -13    1    3    3    0    0 -0.34393551850E+02  0.30912569883E+00 -0.13500557137E+02  0.36949806151E+02  0.10566000000E+00 0.  1.
         23    2    1    0    0    0  0.81307451505E+01  0.21415633892E+02  0.19622696921E+02  0.94837297433E+02  0.89912870927E+02 0.  0.
         13    1    3    3    0    0  0.42524297001E+02  0.21106508193E+02  0.33123254058E+02  0.57887491282E+02  0.10566000000E+00 0. -1.
         22    1    1    0    0    0 -0.81307451505E+01 -0.21415633892E+02 -0.19622696921E+02  0.30162702567E+02  0.00000000000E+00 0. -1.
</event>
<event>
 5    1  0.9034917E-005  0.9118800E+02  0.7818608E-02  0.1130116E+00
         25   -1    0    0    0    0  0.00000000000E+00  0.00000000000E+00  0.99999998245E-14  0.12500000000E+03  0.12500000000E+03 0.  0.
        -13    1    3    3    0    0  0.33900860623E+02  0.15071564647E+02  0.33637876149E+01  0.37252471637E+02  0.10566000000E+00 0.  1.
         23    2    1    0    0    0 -0.14609261577E+02 -0.12437273419E+02 -0.19608870215E+02  0.97566004939E+02  0.93629595934E+02 0.  0.
         13    1    3    3    0    0 -0.48510122200E+02 -0.27508838066E+02 -0.22972657830E+02  0.60313533302E+02  0.10566000000E+00 0. -1.
         22    1    1    0    0    0  0.14609261577E+02  0.12437273419E+02  0.19608870215E+02  0.27433995061E+02  0.00000000000E+00 0. -1.
</event>
<event>
 5    1  0.9034917E-005  0.9118800E+02  0.7818608E-02  0.1130116E+00
         25   -1    0    0    0    0  0.00000000000E+00  0.00000000000E+00  0.99999998245E-14  0.12500000000E+03  0.12500000000E+03 0.  0.
        -13    1    3    3    0    0 -0.82082667835E+01  0.32591353930E+01  0.21635272795E+02  0.23368649941E+02  0.10566000000E+00 0.  1.
         23    2    1    0    0    0 -0.10210778771E+02  0.35363080523E+02 -0.25348227872E+02  0.80308388668E+02  0.66724037400E+02 0.  0.
         13    1    3    3    0    0 -0.20025119877E+01  0.32103945130E+02 -0.46983500668E+02  0.56939738727E+02  0.10566000000E+00 0. -1.
         22    1    1    0    0    0  0.10210778771E+02 -0.35363080523E+02  0.25348227872E+02  0.44691611332E+02  0.00000000000E+00 0. -1.
</event>
<event>
 5    1  0.9034917E-005  0.9118800E+02  0.7818608E-02  0.1130116E+00
         25   -1    0    0    0    0  0.00000000000E+00  0.00000000000E+00  0.99999998245E-14  0.12500000000E+03  0.12500000000E+03 0.  0.
        -13    1    3    3    0    0 -0.64195463271E+01 -0.35237414723E+02 -0.43096396340E+02  0.56037456340E+02  0.10566000000E+00 0. -1.
         23    2    1    0    0    0  0.10251307016E+02 -0.23739165352E+01 -0.26566886324E+02  0.96425112000E+02  0.92093854301E+02 0.  0.
         13    1    3    3    0    0  0.16670853343E+02  0.32863498188E+02  0.16529510016E+02  0.40387655661E+02  0.10566000000E+00 0.  1.
         22    1    1    0    0    0 -0.10251307016E+02  0.23739165352E+01  0.26566886324E+02  0.28574888000E+02  0.00000000000E+00 0. -1.
</event>
<event>
 5    1  0.9034917E-005  0.9118800E+02  0.7818608E-02  0.1130116E+00
         25   -1    0    0    0    0  0.00000000000E+00  0.00000000000E+00  0.99999998245E-14  0.12500000000E+03  0.12500000000E+03 0.  0.
        -13    1    3    3    0    0 -0.53112644416E+02  0.62839494861E+01 -0.57936121757E+01  0.53796079077E+02  0.10566000000E+00 0.  1.
         23    2    1    0    0    0 -0.23407802253E+02  0.16996044032E+02 -0.21397827448E+02  0.89018647350E+02  0.81422735385E+02 0.  0.
         13    1    3    3    0    0  0.29704842163E+02  0.10712094546E+02 -0.15604215272E+02  0.35222568273E+02  0.10566000000E+00 0. -1.
         22    1    1    0    0    0  0.23407802253E+02 -0.16996044032E+02  0.21397827448E+02  0.35981352650E+02  0.00000000000E+00 0. -1.
</event>
<event>
 5    1  0.9034917E-005  0.9118800E+02  0.7818608E-02  0.1130116E+00
         25   -1    0    0    0    0  0.00000000000E+00  0.00000000000E+00  0.99999998245E-14  0.12500000000E+03  0.12500000000E+03 0.  0.
        -13    1    3    3    0    0 -0.40098831575E+02  0.14263001071E+02 -0.42033522091E+02  0.59817870546E+02  0.10566000000E+00 0. -1.
         23    2    1    0    0    0 -0.18056008096E+02 -0.58630400401E+01 -0.22819651962E+02  0.95316146097E+02  0.90576136616E+02 0.  0.
         13    1    3    3    0    0  0.22042823479E+02 -0.20126041112E+02  0.19213870128E+02  0.35498275551E+02  0.10566000000E+00 0.  1.
         22    1    1    0    0    0  0.18056008096E+02  0.58630400401E+01  0.22819651962E+02  0.29683853903E+02  0.00000000000E+00 0. -1.
</event>
<event>
 5    1  0.9034917E-005  0.9118800E+02  0.7818608E-02  0.1130116E+00
         25   -1    0    0    0    0  0.00000000000E+00  0.00000000000E+00  0.99999998245E-14  0.12500000000E+03  0.12500000000E+03 0.  0.
        -13    1    3    3    0    0 -0.44208054927E+00 -0.61359201365E+02  0.23514268287E+01  0.61405923163E+02  0.10566000000E+00 0. -1.
         23    2    1    0    0    0 -0.44413061836E+01 -0.26927141105E+02  0.80761182527E+01  0.96539152951E+02  0.92248513472E+02 0.  0.
         13    1    3    3    0    0 -0.39992256343E+01  0.34432060259E+02  0.57246914240E+01  0.35133229788E+02  0.10566000000E+00 0.  1.
         22    1    1    0    0    0  0.44413061836E+01  0.26927141105E+02 -0.80761182527E+01  0.28460847049E+02  0.00000000000E+00 0. -1.
</event>
<event>
 5    1  0.9034917E-005  0.9118800E+02  0.7818608E-02  0.1130116E+00
         25   -1    0    0    0    0  0.00000000000E+00  0.00000000000E+00  0.99999998245E-14  0.12500000000E+03  0.12500000000E+03 0.  0.
        -13    1    3    3    0    0 -0.54371427430E+02  0.14030854269E+02  0.18717379059E+02  0.59190104200E+02  0.10566000000E+00 0. -1.
         23    2    1    0    0    0 -0.24276140486E+02 -0.57785669229E+01  0.16073860086E+02  0.95316809291E+02  0.90577051856E+02 0.  0.
         13    1    3    3    0    0  0.30095286944E+02 -0.19809421191E+02 -0.26435189735E+01  0.36126705092E+02  0.10566000000E+00 0.  1.
         22    1    1    0    0    0  0.24276140486E+02  0.57785669229E+01 -0.16073860086E+02  0.29683190709E+02  0.00000000000E+00 0. -1.
</event>
<event>
 5    1  0.9034917E-005  0.9118800E+02  0.7818608E-02  0.1130116E+00
         25   -1    0    0    0    0  0.00000000000E+00  0.00000000000E+00  0.99999998245E-14  0.12500000000E+03  0.12500000000E+03 0.  0.
        -13    1    3    3    0    0 -0.32567998617E+02  0.15681934643E+02  0.12498069309E+02  0.38246705853E+02  0.10566000000E+00 0.  1.
         23    2    1    0    0    0  0.25591652166E+02  0.90510550088E+01  0.14534986800E+01  0.97816054081E+02  0.93962830524E+02 0.  0.
         13    1    3    3    0    0  0.58159650783E+02 -0.66308796346E+01 -0.11044570629E+02  0.59569348228E+02  0.10566000000E+00 0. -1.
         22    1    1    0    0    0 -0.25591652166E+02 -0.90510550088E+01 -0.14534986800E+01  0.27183945919E+02  0.00000000000E+00 0. -1.
</event>
<event>
 5    1  0.9034917E-005  0.9118800E+02  0.7818608E-02  0.1130116E+00
         25   -1    0    0    0    0  0.00000000000E+00  0.00000000000E+00  0.99999998245E-14  0.12500000000E+03  0.12500000000E+03 0.  0.
        -13    1    3    3    0    0  0.14300752628E+02 -0.27255909558E+02 -0.43102829137E+02  0.52964716323E+02  0.10566000000E+00 0.  1.
         23    2    1    0    0    0 -0.81831086792E+01 -0.12343386732E+01 -0.35974987776E+02  0.88085414737E+02  0.79977207280E+02 0.  0.
         13    1    3    3    0    0 -0.22483861307E+02  0.26021570885E+02  0.71278413610E+01  0.35120698414E+02  0.10566000000E+00 0. -1.
         22    1    1    0    0    0  0.81831086792E+01  0.12343386732E+01  0.35974987776E+02  0.36914585263E+02  0.00000000000E+00 0. -1.
</event>
<event>
 5    1  0.9034917E-005  0.9118800E+02  0.7818608E-02  0.1130116E+00
         25   -1    0    0    0    0  0.00000000000E+00  0.00000000000E+00  0.99999998245E-14  0.12500000000E+03  0.12500000000E+03 0.  0.
        -13    1    3    3    0    0 -0.32064937118E+02 -0.13595829478E+02 -0.16039217377E+02  0.38344157700E+02  0.10566000000E+00 0. -1.
         23    2    1    0    0    0  0.23192012303E+00  0.23602877593E+02  0.15429552917E+02  0.96800341831E+02  0.92601757315E+02 0.  0.
         13    1    3    3    0    0  0.32296857241E+02  0.37198707071E+02  0.31468770294E+02  0.58456184132E+02  0.10566000000E+00 0.  1.
         22    1    1    0    0    0 -0.23192012303E+00 -0.23602877593E+02 -0.15429552917E+02  0.28199658169E+02  0.00000000000E+00 0.  1.
</event>
<event>
 5    1  0.9034917E-005  0.9118800E+02  0.7818608E-02  0.1130116E+00
         25   -1    0    0    0    0  0.00000000000E+00  0.00000000000E+00  0.99999998245E-14  0.12500000000E+03  0.12500000000E+03 0.  0.
        -13    1    3    3    0    0  0.24816898462E+01  0.28848901665E+02  0.32449498784E+02  0.43490217833E+02  0.10566000000E+00 0.  1.
         23    2    1    0    0    0 -0.14770029001E+02 -0.17987537720E+02  0.18365852716E+02  0.95351900298E+02  0.90625465927E+02 0.  0.
         13    1    3    3    0    0 -0.17251718847E+02 -0.46836439386E+02 -0.14083646068E+02  0.51861682465E+02  0.10566000000E+00 0. -1.
         22    1    1    0    0    0  0.14770029001E+02  0.17987537720E+02 -0.18365852716E+02  0.29648099702E+02  0.00000000000E+00 0. -1.
</event>
<event>
 5    1  0.9034917E-005  0.9118800E+02  0.7818608E-02  0.1130116E+00
         25   -1    0    0    0    0  0.00000000000E+00  0.00000000000E+00  0.99999998245E-14  0.12500000000E+03  0.12500000000E+03 0.  0.
        -13    1    3    3    0    0  0.22429095025E+02 -0.42524386187E+02  0.32177450914E+02  0.57851423799E+02  0.10566000000E+00 0. -1.
         23    2    1    0    0    0  0.98497665904E+01 -0.61888723685E+01  0.25626278661E+02  0.96857039937E+02  0.92678260581E+02 0.  0.
         13    1    3    3    0    0 -0.12579328435E+02  0.36335513819E+02 -0.65511722527E+01  0.39005616138E+02  0.10566000000E+00 0.  1.
         22    1    1    0    0    0 -0.98497665904E+01  0.61888723685E+01 -0.25626278661E+02  0.28142960063E+02  0.00000000000E+00 0. -1.
</event>
<event>
 5    1  0.9034917E-005  0.9118800E+02  0.7818608E-02  0.1130116E+00
         25   -1    0    0    0    0  0.00000000000E+00  0.00000000000E+00  0.99999998245E-14  0.12500000000E+03  0.12500000000E+03 0.  0.
        -13    1    3    3    0    0 -0.40821542391E+01 -0.62022053370E+02  0.57768171096E+01  0.62424208985E+02  0.10566000000E+00 0. -1.
         23    2    1    0    0    0 -0.52276899652E+00 -0.33461985625E+02  0.44889132521E+01  0.91234216852E+02  0.84755850612E+02 0.  0.
         13    1    3    3    0    0  0.35593852426E+01  0.28560067745E+02 -0.12879038575E+01  0.28810007867E+02  0.10566000000E+00 0.  1.
         22    1    1    0    0    0  0.52276899652E+00  0.33461985625E+02 -0.44889132521E+01  0.33765783148E+02  0.00000000000E+00 0. -1.
</event>
<event>
 5    1  0.9034917E-005  0.9118800E+02  0.7818608E-02  0.1130116E+00
         25   -1    0    0    0    0  0.00000000000E+00  0.00000000000E+00  0.99999998245E-14  0.12500000000E+03  0.12500000000E+03 0.  0.
        -13    1    3    3    0    0 -0.10760993710E+02 -0.42759607844E+02 -0.70194381467E+01  0.44648255560E+02  0.10566000000E+00 0.  1.
         23    2    1    0    0    0  0.18419049652E+02 -0.31774236263E+01 -0.22073080393E+02  0.96076336867E+02  0.91619234972E+02 0.  0.
         13    1    3    3    0    0  0.29180043362E+02  0.39582184218E+02 -0.15053642246E+02  0.51428081308E+02  0.10566000000E+00 0. -1.
         22    1    1    0    0    0 -0.18419049652E+02  0.31774236263E+01  0.22073080393E+02  0.28923663133E+02  0.00000000000E+00 0. -1.
</event>
<event>
 5    1  0.9034917E-005  0.9118800E+02  0.7818608E-02  0.1130116E+00
         25   -1    0    0    0    0  0.00000000000E+00  0.00000000000E+00  0.99999998245E-14  0.12500000000E+03  0.12500000000E+03 0.  0.
        -13    1    3    3    0    0 -0.56331620140E+02 -0.17908052744E+00  0.15421195022E+02  0.58404690885E+02  0.10566000000E+00 0.  1.
         23    2    1    0    0    0 -0.25497239376E+02  0.15009496494E+02  0.18634860610E+01  0.95354312605E+02  0.90628793169E+02 0.  0.
         13    1    3    3    0    0  0.30834380763E+02  0.15188577021E+02 -0.13557708961E+02  0.36949621720E+02  0.10566000000E+00 0. -1.
         22    1    1    0    0    0  0.25497239376E+02 -0.15009496494E+02 -0.18634860610E+01  0.29645687395E+02  0.00000000000E+00 0.  1.
</event>
<event>
 5    1  0.9034917E-005  0.9118800E+02  0.7818608E-02  0.1130116E+00
         25   -1    0    0    0    0  0.00000000000E+00  0.00000000000E+00  0.99999998245E-14  0.12500000000E+03  0.12500000000E+03 0.  0.
        -13    1    3    3    0    0 -0.55357894833E+02 -0.84881281293E+01  0.93762278450E+01  0.56784413814E+02  0.10566000000E+00 0. -1.
         23    2    1    0    0    0 -0.19476300400E+02 -0.19359137000E+02 -0.52735443612E+01  0.97037297470E+02  0.92921065252E+02 0.  0.
         13    1    3    3    0    0  0.35881594433E+02 -0.10871008870E+02 -0.14649772206E+02  0.40252883657E+02  0.10566000000E+00 0.  1.
         22    1    1    0    0    0  0.19476300400E+02  0.19359137000E+02  0.52735443612E+01  0.27962702530E+02  0.00000000000E+00 0. -1.
</event>
<event>
 5    1  0.9034917E-005  0.9118800E+02  0.7818608E-02  0.1130116E+00
         25   -1    0    0    0    0  0.00000000000E+00  0.00000000000E+00  0.99999998245E-14  0.12500000000E+03  0.12500000000E+03 0.  0.
        -13    1    3    3    0    0  0.17862760642E+02 -0.16608030971E+02  0.19380223944E+02  0.31152995918E+02  0.10566000000E+00 0.  1.
         23    2    1    0    0    0 -0.23318773058E+02  0.17228972755E+02 -0.12683507880E+02  0.93353925184E+02  0.87826427093E+02 0.  0.
         13    1    3    3    0    0 -0.41181533700E+02  0.33837003725E+02 -0.32063731824E+02  0.62200929266E+02  0.10566000000E+00 0. -1.
         22    1    1    0    0    0  0.23318773058E+02 -0.17228972755E+02  0.12683507880E+02  0.31646074816E+02  0.00000000000E+00 0. -1.
</event>
<event>
 5    1  0.9034917E-005  0.9118800E+02  0.7818608E-02  0.1130116E+00
         25   -1    0    0    0    0  0.00000000000E+00  0.00000000000E+00  0.99999998245E-14  0.12500000000E+03  0.12500000000E+03 0.  0.
        -13    1    3    3    0    0  0.70682711239E+01 -0.11847944100E+02  0.30647060715E+02  0.33609339931E+02  0.10566000000E+00 0.  1.
         23    2    1    0    0    0 -0.73531674178E+01  0.31281390197E+01 -0.28025908788E+02  0.95857146876E+02  0.91319695132E+02 0.  0.
         13    1    3    3    0    0 -0.14421438542E+02  0.14976083120E+02 -0.58672969503E+02  0.62247806946E+02  0.10566000000E+00 0. -1.
         22    1    1    0    0    0  0.73531674178E+01 -0.31281390197E+01  0.28025908788E+02  0.29142853124E+02  0.00000000000E+00 0. -1.
</event>
<event>
 5    1  0.9034917E-005  0.9118800E+02  0.7818608E-02  0.1130116E+00
         25   -1    0    0    0    0  0.00000000000E+00  0.00000000000E+00  0.99999998245E-14  0.12500000000E+03  0.12500000000E+03 0.  0.
        -13    1    3    3    0    0 -0.23536788085E+02  0.29575459713E+02  0.44144467715E+02  0.58115689830E+02  0.10566000000E+00 0.  1.
         23    2    1    0    0    0 -0.68363402725E+01  0.30181507405E+02  0.17839979661E+02  0.89279924246E+02  0.81822863929E+02 0.  0.
         13    1    3    3    0    0  0.16700447812E+02  0.60604769197E+00 -0.26304488053E+02  0.31164234416E+02  0.10566000000E+00 0. -1.
         22    1    1    0    0    0  0.68363402725E+01 -0.30181507405E+02 -0.17839979661E+02  0.35720075754E+02  0.00000000000E+00 0.  1.
</event>
<event>
 5    1  0.9034917E-005  0.9118800E+02  0.7818608E-02  0.1130116E+00
         25   -1    0    0    0    0  0.00000000000E+00  0.00000000000E+00  0.99999998245E-14  0.12500000000E+03  0.12500000000E+03 0.  0.
        -13    1    3    3    0    0 -0.51267860210E+02  0.31715630348E+01  0.19432869209E+01  0.51402722016E+02  0.10566000000E+00 0. -1.
         23    2    1    0    0    0 -0.22250176148E+02 -0.15232484915E+02  0.21115527551E+02  0.90751431576E+02  0.84040810884E+02 0.  0.
         13    1    3    3    0    0  0.29017684061E+02 -0.18404047950E+02  0.19172240630E+02  0.39348709560E+02  0.10566000000E+00 0.  1.
         22    1    1    0    0    0  0.22250176148E+02  0.15232484915E+02 -0.21115527551E+02  0.34248568424E+02  0.00000000000E+00 0. -1.
</event>
<event>
 5    1  0.9034917E-005  0.9118800E+02  0.7818608E-02  0.1130116E+00
         25   -1    0    0    0    0  0.00000000000E+00  0.00000000000E+00  0.99999998245E-14  0.12500000000E+03  0.12500000000E+03 0.  0.
        -13    1    3    3    0    0  0.40933948470E+02  0.20058357460E+02  0.58533680599E+01  0.45958665375E+02  0.10566000000E+00 0.  1.
         23    2    1    0    0    0  0.12929424923E+02 -0.22249313659E+02  0.11117960042E+02  0.96967678965E+02  0.92827365261E+02 0.  0.
         13    1    3    3    0    0 -0.28004523548E+02 -0.42307671119E+02  0.52645919821E+01  0.51009013590E+02  0.10566000000E+00 0. -1.
         22    1    1    0    0    0 -0.12929424923E+02  0.22249313659E+02 -0.11117960042E+02  0.28032321035E+02  0.00000000000E+00 0.  1.
</event>
<event>
 5    1  0.9034917E-005  0.9118800E+02  0.7818608E-02  0.1130116E+00
         25   -1    0    0    0    0  0.00000000000E+00  0.00000000000E+00  0.99999998245E-14  0.12500000000E+03  0.12500000000E+03 0.  0.
        -13    1    3    3    0    0 -0.34862030153E+02  0.38174293945E+02 -0.34526173597E+02  0.62166757129E+02  0.10566000000E+00 0.  1.
         23    2    1    0    0    0 -0.19610241763E+02  0.16310948798E+02 -0.13357712517E+02  0.96206995357E+02  0.91797324793E+02 0.  0.
         13    1    3    3    0    0  0.15251788390E+02 -0.21863345147E+02  0.21168461080E+02  0.34040238228E+02  0.10566000000E+00 0. -1.
         22    1    1    0    0    0  0.19610241763E+02 -0.16310948798E+02  0.13357712517E+02  0.28793004643E+02  0.00000000000E+00 0.  1.
</event>
<event>
 5    1  0.9034917E-005  0.9118800E+02  0.7818608E-02  0.1130116E+00
         25   -1    0    0    0    0  0.00000000000E+00  0.00000000000E+00  0.99999998245E-14  0.12500000000E+03  0.12500000000E+03 0.  0.
        -13    1    3    3    0    0 -0.22917371645E+02  0.81730742924E+01 -0.28365434734E+02  0.37371300729E+02  0.10566000000E+00 0.  1.
         23    2    1    0    0    0  0.28060552797E+02 -0.83822875516E+01 -0.11075454724E+02  0.93689888770E+02  0.88303296612E+02 0.  0.
         13    1    3    3    0    0  0.50977924442E+02 -0.16555361844E+02  0.17289980011E+02  0.56318588041E+02  0.10566000000E+00 0. -1.
         22    1    1    0    0    0 -0.28060552797E+02  0.83822875516E+01  0.11075454724E+02  0.31310111230E+02  0.00000000000E+00 0. -1.
</event>
<event>
 5    1  0.9034917E-005  0.9118800E+02  0.7818608E-02  0.1130116E+00
         25   -1    0    0    0    0  0.00000000000E+00  0.00000000000E+00  0.99999998245E-14  0.12500000000E+03  0.12500000000E+03 0.  0.
        -13    1    3    3    0    0 -0.18342330471E+02  0.26631572524E+02  0.11143728314E+02  0.34203444081E+02  0.10566000000E+00 0. -1.
         23    2    1    0    0    0  0.46373619894E+01 -0.21916654422E+02 -0.18849802315E+02  0.95722706502E+02  0.91135484996E+02 0.  0.
         13    1    3    3    0    0  0.22979692460E+02 -0.48548226947E+02 -0.29993530629E+02  0.61519262421E+02  0.10566000000E+00 0.  1.
         22    1    1    0    0    0 -0.46373619894E+01  0.21916654422E+02  0.18849802315E+02  0.29277293498E+02  0.00000000000E+00 0.  1.
</event>
<event>
 5    1  0.9034917E-005  0.9118800E+02  0.7818608E-02  0.1130116E+00
         25   -1    0    0    0    0  0.00000000000E+00  0.00000000000E+00  0.99999998245E-14  0.12500000000E+03  0.12500000000E+03 0.  0.
        -13    1    3    3    0    0 -0.45520058482E+02  0.36743671214E+02  0.16671492491E+02  0.60828635727E+02  0.10566000000E+00 0.  1.
         23    2    1    0    0    0 -0.16255190446E+02  0.24787284587E+02  0.32234916029E+01  0.95183367196E+02  0.90392708771E+02 0.  0.
         13    1    3    3    0    0  0.29264868036E+02 -0.11956386627E+02 -0.13448000889E+02  0.34354731468E+02  0.10566000000E+00 0. -1.
         22    1    1    0    0    0  0.16255190446E+02 -0.24787284587E+02 -0.32234916029E+01  0.29816632804E+02  0.00000000000E+00 0.  1.
</event>
<event>
 5    1  0.9034917E-005  0.9118800E+02  0.7818608E-02  0.1130116E+00
         25   -1    0    0    0    0  0.00000000000E+00  0.00000000000E+00  0.99999998245E-14  0.12500000000E+03  0.12500000000E+03 0.  0.
        -13    1    3    3    0    0  0.58926123060E+02  0.47959702945E+00 -0.17310392264E+02  0.61418066043E+02  0.10566000000E+00 0.  1.
         23    2    1    0    0    0  0.28733858302E+02 -0.37537734849E+01 -0.97677836343E+00  0.96005525970E+02  0.91522573677E+02 0.  0.
         13    1    3    3    0    0 -0.30192264757E+02 -0.42333705144E+01  0.16333613900E+02  0.34587459926E+02  0.10566000000E+00 0. -1.
         22    1    1    0    0    0 -0.28733858302E+02  0.37537734849E+01  0.97677836343E+00  0.28994474030E+02  0.00000000000E+00 0.  1.
</event>
<event>
 5    1  0.9034917E-005  0.9118800E+02  0.7818608E-02  0.1130116E+00
         25   -1    0    0    0    0  0.00000000000E+00  0.00000000000E+00  0.99999998245E-14  0.12500000000E+03  0.12500000000E+03 0.  0.
        -13    1    3    3    0    0 -0.15185862694E+02  0.79718856643E+01  0.36107696696E+02  0.39974220587E+02  0.10566000000E+00 0.  1.
         23    2    1    0    0    0  0.38594683959E+01  0.39222749938E+02  0.25424435818E+02  0.78098810829E+02  0.62447599692E+02 0.  0.
         13    1    3    3    0    0  0.19045331090E+02  0.31250864273E+02 -0.10683260878E+02  0.38124590243E+02  0.10566000000E+00 0. -1.
         22    1    1    0    0    0 -0.38594683959E+01 -0.39222749938E+02 -0.25424435818E+02  0.46901189171E+02  0.00000000000E+00 0. -1.
</event>
<event>
 5    1  0.9034917E-005  0.9118800E+02  0.7818608E-02  0.1130116E+00
         25   -1    0    0    0    0  0.00000000000E+00  0.00000000000E+00  0.99999998245E-14  0.12500000000E+03  0.12500000000E+03 0.  0.
        -13    1    3    3    0    0  0.33385328851E+02 -0.50802009205E+02 -0.45469528308E+01  0.60959907036E+02  0.10566000000E+00 0. -1.
         23    2    1    0    0    0  0.16248121053E+02 -0.22934628771E+02 -0.11877735808E+02  0.94486408888E+02  0.89423722926E+02 0.  0.
         13    1    3    3    0    0 -0.17137207798E+02  0.27867380434E+02 -0.73307829774E+01  0.33526501852E+02  0.10566000000E+00 0.  1.
         22    1    1    0    0    0 -0.16248121053E+02  0.22934628771E+02  0.11877735808E+02  0.30513591112E+02  0.00000000000E+00 0. -1.
</event>
<event>
 5    1  0.9034917E-005  0.9118800E+02  0.7818608E-02  0.1130116E+00
         25   -1    0    0    0    0  0.00000000000E+00  0.00000000000E+00  0.99999998245E-14  0.12500000000E+03  0.12500000000E+03 0.  0.
        -13    1    3    3    0    0 -0.69934231536E+01 -0.61035807262E+02  0.10758913212E+02  0.62370210141E+02  0.10566000000E+00 0.  1.
         23    2    1    0    0    0 -0.26466061632E+01 -0.28826243463E+02  0.22618725112E+01  0.95964282278E+02  0.91466226387E+02 0.  0.
         13    1    3    3    0    0  0.43468169904E+01  0.32209563798E+02 -0.84970407007E+01  0.33594072137E+02  0.10566000000E+00 0. -1.
         22    1    1    0    0    0  0.26466061632E+01  0.28826243463E+02 -0.22618725112E+01  0.29035717722E+02  0.00000000000E+00 0.  1.
</event>
<event>
 5    1  0.9034917E-005  0.9118800E+02  0.7818608E-02  0.1130116E+00
         25   -1    0    0    0    0  0.00000000000E+00  0.00000000000E+00  0.99999998245E-14  0.12500000000E+03  0.12500000000E+03 0.  0.
        -13    1    3    3    0    0 -0.31629249716E+02 -0.32010290172E+02  0.41371712341E+02  0.61128535566E+02  0.10566000000E+00 0. -1.
         23    2    1    0    0    0 -0.84776052814E+01 -0.12535674738E+02  0.25638472726E+02  0.95228466345E+02  0.90455052851E+02 0.  0.
         13    1    3    3    0    0  0.23151644434E+02  0.19474615434E+02 -0.15733239615E+02  0.34099930779E+02  0.10566000000E+00 0.  1.
         22    1    1    0    0    0  0.84776052814E+01  0.12535674738E+02 -0.25638472726E+02  0.29771533655E+02  0.00000000000E+00 0. -1.
</event>
<event>
 5    1  0.9034917E-005  0.9118800E+02  0.7818608E-02  0.1130116E+00
         25   -1    0    0    0    0  0.00000000000E+00  0.00000000000E+00  0.99999998245E-14  0.12500000000E+03  0.12500000000E+03 0.  0.
        -13    1    3    3    0    0 -0.36806175439E+02 -0.56440142610E+01 -0.15011052170E+02  0.40148378532E+02  0.10566000000E+00 0. -1.
         23    2    1    0    0    0 -0.82352433899E+00  0.22921211263E+02  0.17262317332E+02  0.96293768659E+02  0.91915407658E+02 0.  0.
         13    1    3    3    0    0  0.35982651100E+02  0.28565225524E+02  0.32273369503E+02  0.56145390127E+02  0.10566000000E+00 0.  1.
         22    1    1    0    0    0  0.82352433899E+00 -0.22921211263E+02 -0.17262317332E+02  0.28706231341E+02  0.00000000000E+00 0.  1.
</event>
<event>
 5    1  0.9034917E-005  0.9118800E+02  0.7818608E-02  0.1130116E+00
         25   -1    0    0    0    0  0.00000000000E+00  0.00000000000E+00  0.99999998245E-14  0.12500000000E+03  0.12500000000E+03 0.  0.
        -13    1    3    3    0    0  0.48125435111E+02 -0.17404094326E+02 -0.19144351854E+02  0.54639522105E+02  0.10566000000E+00 0. -1.
         23    2    1    0    0    0  0.30062631984E+02  0.12238896154E+02 -0.48463026260E+01  0.92181726584E+02  0.86141927341E+02 0.  0.
         13    1    3    3    0    0 -0.18062803127E+02  0.29642990479E+02  0.14298049228E+02  0.37542204479E+02  0.10566000000E+00 0.  1.
         22    1    1    0    0    0 -0.30062631984E+02 -0.12238896154E+02  0.48463026260E+01  0.32818273416E+02  0.00000000000E+00 0. -1.
</event>
<event>
 5    1  0.9034917E-005  0.9118800E+02  0.7818608E-02  0.1130116E+00
         25   -1    0    0    0    0  0.00000000000E+00  0.00000000000E+00  0.99999998245E-14  0.12500000000E+03  0.12500000000E+03 0.  0.
        -13    1    3    3    0    0  0.27814770751E+02 -0.32468228550E+02  0.30721449702E+02  0.52646614069E+02  0.10566000000E+00 0.  1.
         23    2    1    0    0    0  0.19072287718E+02  0.86428973958E+01  0.20047032164E+02  0.96011462045E+02  0.91530680710E+02 0.  0.
         13    1    3    3    0    0 -0.87424830337E+01  0.41111125946E+02 -0.10674417538E+02  0.43364847976E+02  0.10566000000E+00 0. -1.
         22    1    1    0    0    0 -0.19072287718E+02 -0.86428973958E+01 -0.20047032164E+02  0.28988537955E+02  0.00000000000E+00 0.  1.
</event>
<event>
 5    1  0.9034917E-005  0.9118800E+02  0.7818608E-02  0.1130116E+00
         25   -1    0    0    0    0  0.00000000000E+00  0.00000000000E+00  0.99999998245E-14  0.12500000000E+03  0.12500000000E+03 0.  0.
        -13    1    3    3    0    0  0.89042189365E+01 -0.38444105154E+02 -0.14029010701E+02  0.41881483274E+02  0.10566000000E+00 0.  1.
         23    2    1    0    0    0  0.25764573609E+01  0.15790325256E+02 -0.22761812656E+02  0.97177839415E+02  0.93109934238E+02 0.  0.
         13    1    3    3    0    0 -0.63277615756E+01  0.54234430410E+02 -0.87328019542E+01  0.55296356141E+02  0.10566000000E+00 0. -1.
         22    1    1    0    0    0 -0.25764573609E+01 -0.15790325256E+02  0.22761812656E+02  0.27822160585E+02  0.00000000000E+00 0. -1.
</event>
<event>
 5    1  0.9034917E-005  0.9118800E+02  0.7818608E-02  0.1130116E+00
         25   -1    0    0    0    0  0.00000000000E+00  0.00000000000E+00  0.99999998245E-14  0.12500000000E+03  0.12500000000E+03 0.  0.
        -13    1    3    3    0    0  0.43891566724E+02  0.22256573462E+01  0.24613605259E+02  0.50371260735E+02  0.10566000000E+00 0. -1.
         23    2    1    0    0    0  0.81315601472E+01 -0.23025994669E+02  0.18040736433E+02  0.94639056801E+02  0.89636846219E+02 0.  0.
         13    1    3    3    0    0 -0.35760006577E+02 -0.25251652015E+02 -0.65728688261E+01  0.44267796066E+02  0.10566000000E+00 0.  1.
         22    1    1    0    0    0 -0.81315601472E+01  0.23025994669E+02 -0.18040736433E+02  0.30360943199E+02  0.00000000000E+00 0. -1.
</event>
<event>
 5    1  0.9034917E-005  0.9118800E+02  0.7818608E-02  0.1130116E+00
         25   -1    0    0    0    0  0.00000000000E+00  0.00000000000E+00  0.99999998245E-14  0.12500000000E+03  0.12500000000E+03 0.  0.
        -13    1    3    3    0    0 -0.85451301962E+01  0.36872710385E+02  0.97481288458E+00  0.37862612765E+02  0.10566000000E+00 0. -1.
         23    2    1    0    0    0 -0.20850974432E+02 -0.19512086930E+02 -0.54386860694E+01  0.95930015870E+02  0.91419385076E+02 0.  0.
         13    1    3    3    0    0 -0.12305844236E+02 -0.56384797315E+02 -0.64134989540E+01  0.58067403106E+02  0.10566000000E+00 0.  1.
         22    1    1    0    0    0  0.20850974432E+02  0.19512086930E+02  0.54386860694E+01  0.29069984130E+02  0.00000000000E+00 0.  1.
</event>
<event>
 5    1  0.9034917E-005  0.9118800E+02  0.7818608E-02  0.1130116E+00
         25   -1    0    0    0    0  0.00000000000E+00  0.00000000000E+00  0.99999998245E-14  0.12500000000E+03  0.12500000000E+03 0.  0.
        -13    1    3    3    0    0 -0.42442005310E+02  0.89881387054E+01 -0.29917727214E+02  0.52699070369E+02  0.10566000000E+00 0. -1.
         23    2    1    0    0    0  0.39972806962E+00  0.13814492705E+02 -0.25445915224E+02  0.96043228896E+02  0.91574053224E+02 0.  0.
         13    1    3    3    0    0  0.42841733379E+02  0.48263539992E+01  0.44718119902E+01  0.43344158527E+02  0.10566000000E+00 0.  1.
         22    1    1    0    0    0 -0.39972806962E+00 -0.13814492705E+02  0.25445915224E+02  0.28956771104E+02  0.00000000000E+00 0. -1.
</event>
<event>
 5    1  0.9034917E-005  0.9118800E+02  0.7818608E-02  0.1130116E+00
         25   -1    0    0    0    0  0.00000000000E+00  0.00000000000E+00  0.99999998245E-14  0.12500000000E+03  0.12500000000E+03 0.  0.
        -13    1    3    3    0    0 -0.19299318556E+02  0.37358636271E+02  0.92481231002E+01  0.43054272096E+02  0.10566000000E+00 0.  1.
         23    2    1    0    0    0 -0.12410112569E+02  0.67256294393E+00 -0.27119065714E+02  0.95168691613E+02  0.90372412291E+02 0.  0.
         13    1    3    3    0    0  0.68892059871E+01 -0.36686073328E+02 -0.36367188814E+02  0.52114419517E+02  0.10566000000E+00 0. -1.
         22    1    1    0    0    0  0.12410112569E+02 -0.67256294393E+00  0.27119065714E+02  0.29831308387E+02  0.00000000000E+00 0. -1.
</event>
<event>
 5    1  0.9034917E-005  0.9118800E+02  0.7818608E-02  0.1130116E+00
         25   -1    0    0    0    0  0.00000000000E+00  0.00000000000E+00  0.99999998245E-14  0.12500000000E+03  0.12500000000E+03 0.  0.
        -13    1    3    3    0    0  0.22715711888E+02 -0.13828688704E+02 -0.19464216461E+02  0.32956078110E+02  0.10566000000E+00 0.  1.
         23    2    1    0    0    0 -0.22033003454E+02  0.16826704004E+02  0.11007371562E+02  0.95171264902E+02  0.90375971505E+02 0.  0.
         13    1    3    3    0    0 -0.44748715343E+02  0.30655392708E+02  0.30471588023E+02  0.62215186792E+02  0.10566000000E+00 0. -1.
         22    1    1    0    0    0  0.22033003454E+02 -0.16826704004E+02 -0.11007371562E+02  0.29828735098E+02  0.00000000000E+00 0. -1.
</event>
<event>
 5    1  0.9034917E-005  0.9118800E+02  0.7818608E-02  0.1130116E+00
         25   -1    0    0    0    0  0.00000000000E+00  0.00000000000E+00  0.99999998245E-14  0.12500000000E+03  0.12500000000E+03 0.  0.
        -13    1    3    3    0    0  0.45590354866E+02  0.88500865040E+01 -0.17459701071E+02  0.49615086551E+02  0.10566000000E+00 0.  1.
         23    2    1    0    0    0  0.23273638125E+02 -0.14070462129E+02  0.13938645383E+02  0.94439797592E+02  0.89358544068E+02 0.  0.
         13    1    3    3    0    0 -0.22316716741E+02 -0.22920548633E+02  0.31398346455E+02  0.44824711041E+02  0.10566000000E+00 0. -1.
         22    1    1    0    0    0 -0.23273638125E+02  0.14070462129E+02 -0.13938645383E+02  0.30560202408E+02  0.00000000000E+00 0.  1.
</event>
<event>
 5    1  0.9034917E-005  0.9118800E+02  0.7818608E-02  0.1130116E+00
         25   -1    0    0    0    0  0.00000000000E+00  0.00000000000E+00  0.99999998245E-14  0.12500000000E+03  0.12500000000E+03 0.  0.
        -13    1    3    3    0    0 -0.48590872736E+02  0.33862547189E+02  0.13592487250E+02  0.60766042236E+02  0.10566000000E+00 0.  1.
         23    2    1    0    0    0 -0.21005436302E+02  0.16967984298E+02 -0.41815666266E+01  0.97675535782E+02  0.93775710850E+02 0.  0.
         13    1    3    3    0    0  0.27585436434E+02 -0.16894562891E+02 -0.17774053877E+02  0.36909493545E+02  0.10566000000E+00 0. -1.
         22    1    1    0    0    0  0.21005436302E+02 -0.16967984298E+02  0.41815666266E+01  0.27324464218E+02  0.00000000000E+00 0.  1.
</event>
<event>
 5    1  0.9034917E-005  0.9118800E+02  0.7818608E-02  0.1130116E+00
         25   -1    0    0    0    0  0.00000000000E+00  0.00000000000E+00  0.99999998245E-14  0.12500000000E+03  0.12500000000E+03 0.  0.
        -13    1    3    3    0    0 -0.82949233524E+00 -0.10262218537E+02 -0.32302708091E+02  0.33903942262E+02  0.10566000000E+00 0. -1.
         23    2    1    0    0    0 -0.79903254989E+01  0.14693483849E+02  0.23908783892E+02  0.95821690995E+02  0.91271149597E+02 0.  0.
         13    1    3    3    0    0 -0.71608331637E+01  0.24955702386E+02  0.56211491983E+02  0.61917748733E+02  0.10566000000E+00 0.  1.
         22    1    1    0    0    0  0.79903254989E+01 -0.14693483849E+02 -0.23908783892E+02  0.29178309005E+02  0.00000000000E+00 0.  1.
</event>
<event>
 5    1  0.9034917E-005  0.9118800E+02  0.7818608E-02  0.1130116E+00
         25   -1    0    0    0    0  0.00000000000E+00  0.00000000000E+00  0.99999998245E-14  0.12500000000E+03  0.12500000000E+03 0.  0.
        -13    1    3    3    0    0  0.32784778419E+02  0.39500379365E+02  0.10540912662E+02  0.52404614966E+02  0.10566000000E+00 0. -1.
         23    2    1    0    0    0  0.13017398838E+02  0.36975193754E+01  0.25646249441E+02  0.96002509894E+02  0.91518454279E+02 0.  0.
         13    1    3    3    0    0 -0.19767379581E+02 -0.35802859990E+02  0.15105336779E+02  0.43597894928E+02  0.10566000000E+00 0.  1.
         22    1    1    0    0    0 -0.13017398838E+02 -0.36975193754E+01 -0.25646249441E+02  0.28997490106E+02  0.00000000000E+00 0.  1.
</event>
<event>
 5    1  0.9034917E-005  0.9118800E+02  0.7818608E-02  0.1130116E+00
         25   -1    0    0    0    0  0.00000000000E+00  0.00000000000E+00  0.99999998245E-14  0.12500000000E+03  0.12500000000E+03 0.  0.
        -13    1    3    3    0    0 -0.96996114687E+01  0.49448376296E+02  0.27612100237E+02  0.57460104634E+02  0.10566000000E+00 0.  1.
         23    2    1    0    0    0  0.90112407215E+01  0.17939278560E+02  0.23120112843E+02  0.94380401824E+02  0.89275419103E+02 0.  0.
         13    1    3    3    0    0  0.18710852190E+02 -0.31509097736E+02 -0.44919873947E+01  0.36920297190E+02  0.10566000000E+00 0. -1.
         22    1    1    0    0    0 -0.90112407215E+01 -0.17939278560E+02 -0.23120112843E+02  0.30619598176E+02  0.00000000000E+00 0.  1.
</event>
<event>
 5    1  0.9034917E-005  0.9118800E+02  0.7818608E-02  0.1130116E+00
         25   -1    0    0    0    0  0.00000000000E+00  0.00000000000E+00  0.99999998245E-14  0.12500000000E+03  0.12500000000E+03 0.  0.
        -13    1    3    3    0    0 -0.84144108529E-01 -0.42892613407E+02 -0.22881653188E+02  0.48614448282E+02  0.10566000000E+00 0.  1.
         23    2    1    0    0    0  0.21759151259E+02  0.31389133581E-01  0.25722374678E+01  0.10308931643E+03  0.10073395211E+03 0.  0.
         13    1    3    3    0    0  0.21843295367E+02  0.42924002540E+02  0.25453890656E+02  0.54474868152E+02  0.10566000000E+00 0. -1.
         22    1    1    0    0    0 -0.21759151259E+02 -0.31389133581E-01 -0.25722374678E+01  0.21910683567E+02  0.00000000000E+00 0. -1.
</event>
<event>
 5    1  0.9034917E-005  0.9118800E+02  0.7818608E-02  0.1130116E+00
         25   -1    0    0    0    0  0.00000000000E+00  0.00000000000E+00  0.99999998245E-14  0.12500000000E+03  0.12500000000E+03 0.  0.
        -13    1    3    3    0    0  0.20042048926E+01 -0.45371198074E+02  0.41210793585E+02  0.61326202588E+02  0.10566000000E+00 0.  1.
         23    2    1    0    0    0  0.81455999238E+01 -0.25533590879E+02  0.16829838603E+02  0.93352590490E+02  0.87824527454E+02 0.  0.
         13    1    3    3    0    0  0.61413950312E+01  0.19837607196E+02 -0.24380954982E+02  0.32026387902E+02  0.10566000000E+00 0. -1.
         22    1    1    0    0    0 -0.81455999238E+01  0.25533590879E+02 -0.16829838603E+02  0.31647409510E+02  0.00000000000E+00 0.  1.
</event>
<event>
 5    1  0.9034917E-005  0.9118800E+02  0.7818608E-02  0.1130116E+00
         25   -1    0    0    0    0  0.00000000000E+00  0.00000000000E+00  0.99999998245E-14  0.12500000000E+03  0.12500000000E+03 0.  0.
        -13    1    3    3    0    0 -0.19504190828E+02 -0.51963766934E+02 -0.15394666537E+02  0.57599075128E+02  0.10566000000E+00 0. -1.
         23    2    1    0    0    0  0.63620817098E+01 -0.29078354903E+02 -0.45153162723E+00  0.95230373056E+02  0.90457687700E+02 0.  0.
         13    1    3    3    0    0  0.25866272538E+02  0.22885412030E+02  0.14943134910E+02  0.37631297928E+02  0.10566000000E+00 0.  1.
         22    1    1    0    0    0 -0.63620817098E+01  0.29078354903E+02  0.45153162723E+00  0.29769626944E+02  0.00000000000E+00 0. -1.
</event>
<event>
 5    1  0.9034917E-005  0.9118800E+02  0.7818608E-02  0.1130116E+00
         25   -1    0    0    0    0  0.00000000000E+00  0.00000000000E+00  0.99999998245E-14  0.12500000000E+03  0.12500000000E+03 0.  0.
        -13    1    3    3    0    0  0.38756452900E+02 -0.38091700086E+00  0.11845178558E+02  0.40528103314E+02  0.10566000000E+00 0. -1.
         23    2    1    0    0    0 -0.96339055091E+01  0.26178679323E+02  0.85395290363E+01  0.95827085463E+02  0.91278537267E+02 0.  0.
         13    1    3    3    0    0 -0.48390358409E+02  0.26559596324E+02 -0.33056495216E+01  0.55298982148E+02  0.10566000000E+00 0.  1.
         22    1    1    0    0    0  0.96339055091E+01 -0.26178679323E+02 -0.85395290363E+01  0.29172914537E+02  0.00000000000E+00 0.  1.
</event>
<event>
 5    1  0.9034917E-005  0.9118800E+02  0.7818608E-02  0.1130116E+00
         25   -1    0    0    0    0  0.00000000000E+00  0.00000000000E+00  0.99999998245E-14  0.12500000000E+03  0.12500000000E+03 0.  0.
        -13    1    3    3    0    0 -0.63443465838E+01 -0.56413496013E+02 -0.12478682719E+02  0.58124538298E+02  0.10566000000E+00 0. -1.
         23    2    1    0    0    0 -0.10876384695E+02 -0.17708596519E+02 -0.18029331611E+02  0.97487331408E+02  0.93524504019E+02 0.  0.
         13    1    3    3    0    0 -0.45320381114E+01  0.38704899494E+02 -0.55506488924E+01  0.39362793110E+02  0.10566000000E+00 0.  1.
         22    1    1    0    0    0  0.10876384695E+02  0.17708596519E+02  0.18029331611E+02  0.27512668592E+02  0.00000000000E+00 0. -1.
</event>
<event>
 5    1  0.9034917E-005  0.9118800E+02  0.7818608E-02  0.1130116E+00
         25   -1    0    0    0    0  0.00000000000E+00  0.00000000000E+00  0.99999998245E-14  0.12500000000E+03  0.12500000000E+03 0.  0.
        -13    1    3    3    0    0  0.16154433597E+02 -0.50551846502E+02  0.10428480023E+02  0.54085296239E+02  0.10566000000E+00 0. -1.
         23    2    1    0    0    0 -0.11246790192E+02 -0.22400348705E+02  0.18061356387E+02  0.94105364442E+02  0.88889488189E+02 0.  0.
         13    1    3    3    0    0 -0.27401223789E+02  0.28151497797E+02  0.76328763640E+01  0.40020068203E+02  0.10566000000E+00 0.  1.
         22    1    1    0    0    0  0.11246790192E+02  0.22400348705E+02 -0.18061356387E+02  0.30894635558E+02  0.00000000000E+00 0. -1.
</event>
<event>
 5    1  0.9034917E-005  0.9118800E+02  0.7818608E-02  0.1130116E+00
         25   -1    0    0    0    0  0.00000000000E+00  0.00000000000E+00  0.99999998245E-14  0.12500000000E+03  0.12500000000E+03 0.  0.
        -13    1    3    3    0    0 -0.35071308950E+02  0.27479377059E+01 -0.30244239607E+01  0.35308726647E+02  0.10566000000E+00 0. -1.
         23    2    1    0    0    0  0.21257361712E+02 -0.10094040113E+02 -0.18439352895E+02  0.95103933236E+02  0.90282796307E+02 0.  0.
         13    1    3    3    0    0  0.56328670662E+02 -0.12841977819E+02 -0.15414928934E+02  0.59795206589E+02  0.10566000000E+00 0.  1.
         22    1    1    0    0    0 -0.21257361712E+02  0.10094040113E+02  0.18439352895E+02  0.29896066764E+02  0.00000000000E+00 0.  1.
</event>
<event>
 5    1  0.9034917E-005  0.9118800E+02  0.7818608E-02  0.1130116E+00
         25   -1    0    0    0    0  0.00000000000E+00  0.00000000000E+00  0.99999998245E-14  0.12500000000E+03  0.12500000000E+03 0.  0.
        -13    1    3    3    0    0 -0.37296545772E+02  0.11082153859E+02  0.54965536425E+01  0.39294652647E+02  0.10566000000E+00 0. -1.
         23    2    1    0    0    0  0.11482013245E+02 -0.28078479231E+01  0.27869164830E+02  0.94727719174E+02  0.89760402147E+02 0.  0.
         13    1    3    3    0    0  0.48778559017E+02 -0.13890001782E+02  0.22372611187E+02  0.55433066527E+02  0.10566000000E+00 0.  1.
         22    1    1    0    0    0 -0.11482013245E+02  0.28078479231E+01 -0.27869164830E+02  0.30272280826E+02  0.00000000000E+00 0. -1.
</event>
<event>
 5    1  0.9034917E-005  0.9118800E+02  0.7818608E-02  0.1130116E+00
         25   -1    0    0    0    0  0.00000000000E+00  0.00000000000E+00  0.99999998245E-14  0.12500000000E+03  0.12500000000E+03 0.  0.
        -13    1    3    3    0    0  0.17438626515E+02  0.12561423023E+02  0.34611010000E+02  0.40740989437E+02  0.10566000000E+00 0.  1.
         23    2    1    0    0    0  0.11287450284E+02  0.20838781700E+02 -0.18556848987E+02  0.94899867094E+02  0.89999815408E+02 0.  0.
         13    1    3    3    0    0 -0.61511762313E+01  0.82773586769E+01 -0.53167858987E+02  0.54158877656E+02  0.10566000000E+00 0. -1.
         22    1    1    0    0    0 -0.11287450284E+02 -0.20838781700E+02  0.18556848987E+02  0.30100132906E+02  0.00000000000E+00 0. -1.
</event>
<event>
 5    1  0.9034917E-005  0.9118800E+02  0.7818608E-02  0.1130116E+00
         25   -1    0    0    0    0  0.00000000000E+00  0.00000000000E+00  0.99999998245E-14  0.12500000000E+03  0.12500000000E+03 0.  0.
        -13    1    3    3    0    0 -0.74487540776E+01  0.30260298395E+02 -0.23240796648E+02  0.38875640048E+02  0.10566000000E+00 0.  1.
         23    2    1    0    0    0 -0.20970676611E+02 -0.15314869481E+02  0.10308936941E+02  0.97060982737E+02  0.92952921871E+02 0.  0.
         13    1    3    3    0    0 -0.13521922534E+02 -0.45575167876E+02  0.33549733589E+02  0.58185342689E+02  0.10566000000E+00 0. -1.
         22    1    1    0    0    0  0.20970676611E+02  0.15314869481E+02 -0.10308936941E+02  0.27939017263E+02  0.00000000000E+00 0. -1.
</event>
<event>
 5    1  0.9034917E-005  0.9118800E+02  0.7818608E-02  0.1130116E+00
         25   -1    0    0    0    0  0.00000000000E+00  0.00000000000E+00  0.99999998245E-14  0.12500000000E+03  0.12500000000E+03 0.  0.
        -13    1    3    3    0    0 -0.27011217977E+02 -0.28553455050E+02  0.47754124584E+02  0.61849602025E+02  0.10566000000E+00 0. -1.
         23    2    1    0    0    0 -0.90217737076E+01 -0.12515789000E+02  0.28078973298E+02  0.92961490100E+02  0.87266101810E+02 0.  0.
         13    1    3    3    0    0  0.17989444270E+02  0.16037666049E+02 -0.19675151286E+02  0.31111888075E+02  0.10566000000E+00 0.  1.
         22    1    1    0    0    0  0.90217737076E+01  0.12515789000E+02 -0.28078973298E+02  0.32038509900E+02  0.00000000000E+00 0. -1.
</event>
<event>
 4    1  0.9034917E-005  0.9118800E+02  0.7818608E-02  0.1130116E+00
         25   -1    0    0    0    0  0.00000000000E+00  0.00000000000E+00  0.99999998245E-14  0.12500000000E+03  0.12500000000E+03 0.  0.
        -13    1    1    0    0    0  0.15010787400E+02 -0.40924425899E+02  0.15558899367E+02  0.46284153737E+02  0.10566000000E+00 0.  1.
         13    1    1    0    0    0  0.24450766993E+02  0.78858256848E+01 -0.47374614875E+01  0.26124336521E+02  0.10566000000E+00 0. -1.
         22    1    1    0    0    0 -0.39461554393E+02  0.33038600215E+02 -0.10821437880E+02  0.52591509743E+02  0.00000000000E+00 0.  1.
</event>
<event>
 5    1  0.9034917E-005  0.9118800E+02  0.7818608E-02  0.1130116E+00
         25   -1    0    0    0    0  0.00000000000E+00  0.00000000000E+00  0.99999998245E-14  0.12500000000E+03  0.12500000000E+03 0.  0.
        -13    1    3    3    0    0 -0.17774288411E+02 -0.21890306137E+02  0.27984752752E+02  0.39727426068E+02  0.10566000000E+00 0.  1.
         23    2    1    0    0    0 -0.19763675489E+02  0.20058265630E+02 -0.87397326306E+01  0.95515770056E+02  0.90851210856E+02 0.  0.
         13    1    3    3    0    0 -0.19893870781E+01  0.41948571768E+02 -0.36724485383E+02  0.55788343988E+02  0.10566000000E+00 0. -1.
         22    1    1    0    0    0  0.19763675489E+02 -0.20058265630E+02  0.87397326306E+01  0.29484229944E+02  0.00000000000E+00 0. -1.
</event>
<event>
 5    1  0.9034917E-005  0.9118800E+02  0.7818608E-02  0.1130116E+00
         25   -1    0    0    0    0  0.00000000000E+00  0.00000000000E+00  0.99999998245E-14  0.12500000000E+03  0.12500000000E+03 0.  0.
        -13    1    3    3    0    0  0.25834860176E+02 -0.29593931124E+02  0.16792320034E+02  0.42722756651E+02  0.10566000000E+00 0.  1.
         23    2    1    0    0    0 -0.53516895234E+01 -0.38425568206E+02  0.28148566803E+02  0.77067686413E+02  0.60348335548E+02 0.  0.
         13    1    3    3    0    0 -0.31186549699E+02 -0.88316370819E+01  0.11356246769E+02  0.34344929763E+02  0.10566000000E+00 0. -1.
         22    1    1    0    0    0  0.53516895234E+01  0.38425568206E+02 -0.28148566803E+02  0.47932313587E+02  0.00000000000E+00 0.  1.
</event>
<event>
 5    1  0.9034917E-005  0.9118800E+02  0.7818608E-02  0.1130116E+00
         25   -1    0    0    0    0  0.00000000000E+00  0.00000000000E+00  0.99999998245E-14  0.12500000000E+03  0.12500000000E+03 0.  0.
        -13    1    3    3    0    0  0.14327213324E+02 -0.51042261063E+01  0.74704795705E+01  0.16945246969E+02  0.10566000000E+00 0.  1.
         23    2    1    0    0    0 -0.96916970916E+01  0.21269625159E+02 -0.41404499628E+02  0.77453617000E+02  0.61142491363E+02 0.  0.
         13    1    3    3    0    0 -0.24018910416E+02  0.26373851266E+02 -0.48874979199E+02  0.60508370031E+02  0.10566000000E+00 0. -1.
         22    1    1    0    0    0  0.96916970916E+01 -0.21269625159E+02  0.41404499628E+02  0.47546383000E+02  0.00000000000E+00 0. -1.
</event>
<event>
 5    1  0.9034917E-005  0.9118800E+02  0.7818608E-02  0.1130116E+00
         25   -1    0    0    0    0  0.00000000000E+00  0.00000000000E+00  0.99999998245E-14  0.12500000000E+03  0.12500000000E+03 0.  0.
        -13    1    3    3    0    0  0.56541003221E+02 -0.14879396858E+02 -0.10558169832E+02  0.59411847390E+02  0.10566000000E+00 0.  1.
         23    2    1    0    0    0  0.20707240164E+02 -0.15755085408E+02 -0.14055851330E+02  0.95426710227E+02  0.90728592829E+02 0.  0.
         13    1    3    3    0    0 -0.35833763057E+02 -0.87568855049E+00 -0.34976814977E+01  0.36014862837E+02  0.10566000000E+00 0. -1.
         22    1    1    0    0    0 -0.20707240164E+02  0.15755085408E+02  0.14055851330E+02  0.29573289773E+02  0.00000000000E+00 0.  1.
</event>
<event>
 5    1  0.9034917E-005  0.9118800E+02  0.7818608E-02  0.1130116E+00
         25   -1    0    0    0    0  0.00000000000E+00  0.00000000000E+00  0.99999998245E-14  0.12500000000E+03  0.12500000000E+03 0.  0.
        -13    1    3    3    0    0 -0.17726903006E+02  0.38148771559E+02 -0.47296045335E+01  0.42331456208E+02  0.10566000000E+00 0.  1.
         23    2    1    0    0    0  0.97579966842E+01 -0.72995047266E+00  0.24787127111E+02  0.98351304020E+02  0.94672202916E+02 0.  0.
         13    1    3    3    0    0  0.27484899690E+02 -0.38878722032E+02  0.29516731645E+02  0.56019847812E+02  0.10566000000E+00 0. -1.
         22    1    1    0    0    0 -0.97579966842E+01  0.72995047266E+00 -0.24787127111E+02  0.26648695980E+02  0.00000000000E+00 0. -1.
</event>
<event>
 5    1  0.9034917E-005  0.9118800E+02  0.7818608E-02  0.1130116E+00
         25   -1    0    0    0    0  0.00000000000E+00  0.00000000000E+00  0.99999998245E-14  0.12500000000E+03  0.12500000000E+03 0.  0.
        -13    1    3    3    0    0  0.57220015708E+02  0.78084935864E+01  0.11203617379E+02  0.58827161890E+02  0.10566000000E+00 0. -1.
         23    2    1    0    0    0  0.21458462740E+02  0.17651457412E+02  0.81479168889E+01  0.96044376684E+02  0.91575619960E+02 0.  0.
         13    1    3    3    0    0 -0.35761552967E+02  0.98429638260E+01 -0.30557004902E+01  0.37217214794E+02  0.10566000000E+00 0.  1.
         22    1    1    0    0    0 -0.21458462740E+02 -0.17651457412E+02 -0.81479168889E+01  0.28955623316E+02  0.00000000000E+00 0. -1.
</event>
<event>
 5    1  0.9034917E-005  0.9118800E+02  0.7818608E-02  0.1130116E+00
         25   -1    0    0    0    0  0.00000000000E+00  0.00000000000E+00  0.99999998245E-14  0.12500000000E+03  0.12500000000E+03 0.  0.
        -13    1    3    3    0    0  0.19567145928E+02 -0.36252410658E+01  0.38694672156E+02  0.43512117736E+02  0.10566000000E+00 0.  1.
         23    2    1    0    0    0  0.11839897758E+02  0.23817859083E+02 -0.71124708319E+01  0.97467095475E+02  0.93497453809E+02 0.  0.
         13    1    3    3    0    0 -0.77272481700E+01  0.27443100149E+02 -0.45807142988E+02  0.53954977739E+02  0.10566000000E+00 0. -1.
         22    1    1    0    0    0 -0.11839897758E+02 -0.23817859083E+02  0.71124708319E+01  0.27532904525E+02  0.00000000000E+00 0.  1.
</event>
<event>
 5    1  0.9034917E-005  0.9118800E+02  0.7818608E-02  0.1130116E+00
         25   -1    0    0    0    0  0.00000000000E+00  0.00000000000E+00  0.99999998245E-14  0.12500000000E+03  0.12500000000E+03 0.  0.
        -13    1    3    3    0    0 -0.13595319531E+02 -0.48038151583E+02  0.30528113202E+01  0.50018272078E+02  0.10566000000E+00 0.  1.
         23    2    1    0    0    0 -0.22109168642E+02 -0.75760261546E+01 -0.17124063240E+02  0.96026821849E+02  0.91551654612E+02 0.  0.
         13    1    3    3    0    0 -0.85138491105E+01  0.40462125429E+02 -0.20176874561E+02  0.46008549770E+02  0.10566000000E+00 0. -1.
         22    1    1    0    0    0  0.22109168642E+02  0.75760261546E+01  0.17124063240E+02  0.28973178151E+02  0.00000000000E+00 0.  1.
</event>
<event>
 5    1  0.9034917E-005  0.9118800E+02  0.7818608E-02  0.1130116E+00
         25   -1    0    0    0    0  0.00000000000E+00  0.00000000000E+00  0.99999998245E-14  0.12500000000E+03  0.12500000000E+03 0.  0.
        -13    1    3    3    0    0 -0.47186838815E+02 -0.40128213331E+02  0.54542158700E+01  0.62182239404E+02  0.10566000000E+00 0.  1.
         23    2    1    0    0    0 -0.22957772411E+02 -0.18172948573E+02  0.69249869368E+01  0.94912281276E+02  0.90017055712E+02 0.  0.
         13    1    3    3    0    0  0.24229066404E+02  0.21955264758E+02  0.14707710668E+01  0.32730041872E+02  0.10566000000E+00 0. -1.
         22    1    1    0    0    0  0.22957772411E+02  0.18172948573E+02 -0.69249869368E+01  0.30087718724E+02  0.00000000000E+00 0.  1.
</event>
<event>
 5    1  0.9034917E-005  0.9118800E+02  0.7818608E-02  0.1130116E+00
         25   -1    0    0    0    0  0.00000000000E+00  0.00000000000E+00  0.99999998245E-14  0.12500000000E+03  0.12500000000E+03 0.  0.
        -13    1    3    3    0    0 -0.22088287779E+02 -0.17182666913E+02 -0.55549106116E+02  0.62200087247E+02  0.10566000000E+00 0. -1.
         23    2    1    0    0    0 -0.14442725036E+02 -0.77054032811E+01 -0.24675288823E+02  0.95388592997E+02  0.90676062162E+02 0.  0.
         13    1    3    3    0    0  0.76455627427E+01  0.94772636315E+01  0.30873817293E+02  0.33188505749E+02  0.10566000000E+00 0.  1.
         22    1    1    0    0    0  0.14442725036E+02  0.77054032811E+01  0.24675288823E+02  0.29611407003E+02  0.00000000000E+00 0. -1.
</event>
<event>
 5    1  0.9034917E-005  0.9118800E+02  0.7818608E-02  0.1130116E+00
         25   -1    0    0    0    0  0.00000000000E+00  0.00000000000E+00  0.99999998245E-14  0.12500000000E+03  0.12500000000E+03 0.  0.
        -13    1    3    3    0    0  0.16505308534E+02 -0.30249804076E+02 -0.12134980474E+02  0.36534158969E+02  0.10566000000E+00 0.  1.
         23    2    1    0    0    0  0.12594294777E+02  0.19905808080E+02  0.18157728561E+02  0.95258437117E+02  0.90496460037E+02 0.  0.
         13    1    3    3    0    0 -0.39110137565E+01  0.50155612156E+02  0.30292709035E+02  0.58724278148E+02  0.10566000000E+00 0. -1.
         22    1    1    0    0    0 -0.12594294777E+02 -0.19905808080E+02 -0.18157728561E+02  0.29741562883E+02  0.00000000000E+00 0. -1.
</event>
<event>
 5    1  0.9034917E-005  0.9118800E+02  0.7818608E-02  0.1130116E+00
         25   -1    0    0    0    0  0.00000000000E+00  0.00000000000E+00  0.99999998245E-14  0.12500000000E+03  0.12500000000E+03 0.  0.
        -13    1    3    3    0    0  0.47728067588E+01 -0.34957822880E+02 -0.62132736112E+01  0.35825200597E+02  0.10566000000E+00 0. -1.
         23    2    1    0    0    0 -0.10978849010E+02  0.24329833457E+02 -0.78038769884E+01  0.97190353873E+02  0.93126733370E+02 0.  0.
         13    1    3    3    0    0 -0.15751655769E+02  0.59287656337E+02 -0.15906033772E+01  0.61365153276E+02  0.10566000000E+00 0.  1.
         22    1    1    0    0    0  0.10978849010E+02 -0.24329833457E+02  0.78038769884E+01  0.27809646127E+02  0.00000000000E+00 0.  1.
</event>
<event>
 5    1  0.9034917E-005  0.9118800E+02  0.7818608E-02  0.1130116E+00
         25   -1    0    0    0    0  0.00000000000E+00  0.00000000000E+00  0.99999998245E-14  0.12500000000E+03  0.12500000000E+03 0.  0.
        -13    1    3    3    0    0 -0.34257082524E+02  0.40463428582E+02 -0.10921068961E+02  0.54130561303E+02  0.10566000000E+00 0.  1.
         23    2    1    0    0    0  0.51431681878E+01  0.28330127894E+02 -0.41470196816E+01  0.95909690656E+02  0.91391589678E+02 0.  0.
         13    1    3    3    0    0  0.39400250712E+02 -0.12133300688E+02  0.67740492797E+01  0.41779129353E+02  0.10566000000E+00 0. -1.
         22    1    1    0    0    0 -0.51431681878E+01 -0.28330127894E+02  0.41470196816E+01  0.29090309344E+02  0.00000000000E+00 0.  1.
</event>
<event>
 5    1  0.9034917E-005  0.9118800E+02  0.7818608E-02  0.1130116E+00
         25   -1    0    0    0    0  0.00000000000E+00  0.00000000000E+00  0.99999998245E-14  0.12500000000E+03  0.12500000000E+03 0.  0.
        -13    1    3    3    0    0 -0.23112473730E+02  0.30299917546E+02  0.31859739017E+02  0.49672181142E+02  0.10566000000E+00 0.  1.
         23    2    1    0    0    0  0.14746556863E+02  0.50829755784E+01  0.24796052532E+02  0.95705942562E+02  0.91112488938E+02 0.  0.
         13    1    3    3    0    0  0.37859030593E+02 -0.25216941967E+02 -0.70636864854E+01  0.46033761419E+02  0.10566000000E+00 0. -1.
         22    1    1    0    0    0 -0.14746556863E+02 -0.50829755784E+01 -0.24796052532E+02  0.29294057438E+02  0.00000000000E+00 0. -1.
</event>
<event>
 5    1  0.9034917E-005  0.9118800E+02  0.7818608E-02  0.1130116E+00
         25   -1    0    0    0    0  0.00000000000E+00  0.00000000000E+00  0.99999998245E-14  0.12500000000E+03  0.12500000000E+03 0.  0.
        -13    1    3    3    0    0  0.21119530109E+00 -0.48550207007E+02 -0.79569400798E+01  0.49198488426E+02  0.10566000000E+00 0.  1.
         23    2    1    0    0    0  0.10861261892E+02 -0.89495055128E+01 -0.27106950230E+02  0.94457449196E+02  0.89383232763E+02 0.  0.
         13    1    3    3    0    0  0.10650066591E+02  0.39600701495E+02 -0.19150010150E+02  0.45258960771E+02  0.10566000000E+00 0. -1.
         22    1    1    0    0    0 -0.10861261892E+02  0.89495055128E+01  0.27106950230E+02  0.30542550804E+02  0.00000000000E+00 0.  1.
</event>
<event>
 5    1  0.9034917E-005  0.9118800E+02  0.7818608E-02  0.1130116E+00
         25   -1    0    0    0    0  0.00000000000E+00  0.00000000000E+00  0.99999998245E-14  0.12500000000E+03  0.12500000000E+03 0.  0.
        -13    1    3    3    0    0 -0.49409336943E+02  0.18620315642E+02 -0.12431209928E+02  0.54245229063E+02  0.10566000000E+00 0.  1.
         23    2    1    0    0    0 -0.93390762167E+01  0.20599091680E+02 -0.19686262831E+02  0.95015172722E+02  0.90159820211E+02 0.  0.
         13    1    3    3    0    0  0.40070260727E+02  0.19787760382E+01 -0.72550529030E+01  0.40769943659E+02  0.10566000000E+00 0. -1.
         22    1    1    0    0    0  0.93390762167E+01 -0.20599091680E+02  0.19686262831E+02  0.29984827278E+02  0.00000000000E+00 0.  1.
</event>
<event>
 5    1  0.9034917E-005  0.9118800E+02  0.7818608E-02  0.1130116E+00
         25   -1    0    0    0    0  0.00000000000E+00  0.00000000000E+00  0.99999998245E-14  0.12500000000E+03  0.12500000000E+03 0.  0.
        -13    1    3    3    0    0 -0.20718575350E+02  0.27912388271E+02 -0.17177272208E+02  0.38774097385E+02  0.10566000000E+00 0.  1.
         23    2    1    0    0    0  0.16425505387E+02 -0.18354987530E+02 -0.94945997181E+01  0.98602079282E+02  0.95002735858E+02 0.  0.
         13    1    3    3    0    0  0.37144080736E+02 -0.46267375800E+02  0.76826724902E+01  0.59827981897E+02  0.10566000000E+00 0. -1.
         22    1    1    0    0    0 -0.16425505387E+02  0.18354987530E+02  0.94945997181E+01  0.26397920718E+02  0.00000000000E+00 0. -1.
</event>
<event>
 5    1  0.9034917E-005  0.9118800E+02  0.7818608E-02  0.1130116E+00
         25   -1    0    0    0    0  0.00000000000E+00  0.00000000000E+00  0.99999998245E-14  0.12500000000E+03  0.12500000000E+03 0.  0.
        -13    1    3    3    0    0 -0.45468897563E+01 -0.33714381089E+02 -0.73439304873E+00  0.34027697481E+02  0.10566000000E+00 0.  1.
         23    2    1    0    0    0  0.90812371684E+00  0.28500841288E+02 -0.19488145585E+00  0.96484028658E+02  0.92173787838E+02 0.  0.
         13    1    3    3    0    0  0.54550134732E+01  0.62215222376E+02  0.53951159288E+00  0.62456331177E+02  0.10566000000E+00 0. -1.
         22    1    1    0    0    0 -0.90812371684E+00 -0.28500841288E+02  0.19488145585E+00  0.28515971342E+02  0.00000000000E+00 0. -1.
</event>
<event>
 5    1  0.9034917E-005  0.9118800E+02  0.7818608E-02  0.1130116E+00
         25   -1    0    0    0    0  0.00000000000E+00  0.00000000000E+00  0.99999998245E-14  0.12500000000E+03  0.12500000000E+03 0.  0.
        -13    1    3    3    0    0 -0.56420148113E+02 -0.78852355228E+01 -0.21677466655E+02  0.60953537855E+02  0.10566000000E+00 0.  1.
         23    2    1    0    0    0 -0.24759742333E+02 -0.10911894392E+02 -0.16855092064E+02  0.93121976094E+02  0.87495680028E+02 0.  0.
         13    1    3    3    0    0  0.31660405780E+02 -0.30266588695E+01  0.48223745913E+01  0.32168438240E+02  0.10566000000E+00 0. -1.
         22    1    1    0    0    0  0.24759742333E+02  0.10911894392E+02  0.16855092064E+02  0.31878023906E+02  0.00000000000E+00 0.  1.
</event>
<event>
 5    1  0.9034917E-005  0.9118800E+02  0.7818608E-02  0.1130116E+00
         25   -1    0    0    0    0  0.00000000000E+00  0.00000000000E+00  0.99999998245E-14  0.12500000000E+03  0.12500000000E+03 0.  0.
        -13    1    3    3    0    0  0.99282738897E+01 -0.47145714072E+02 -0.63472542813E+01  0.48596170412E+02  0.10566000000E+00 0. -1.
         23    2    1    0    0    0 -0.24458956012E+02 -0.15295534335E+02 -0.63222633673E+01  0.95467561668E+02  0.90784857861E+02 0.  0.
         13    1    3    3    0    0 -0.34387229902E+02  0.31850179738E+02  0.24990913943E-01  0.46871391255E+02  0.10566000000E+00 0.  1.
         22    1    1    0    0    0  0.24458956012E+02  0.15295534335E+02  0.63222633673E+01  0.29532438332E+02  0.00000000000E+00 0. -1.
</event>
<event>
 5    1  0.9034917E-005  0.9118800E+02  0.7818608E-02  0.1130116E+00
         25   -1    0    0    0    0  0.00000000000E+00  0.00000000000E+00  0.99999998245E-14  0.12500000000E+03  0.12500000000E+03 0.  0.
        -13    1    3    3    0    0  0.30779779722E+02  0.97493512016E+01  0.90938487802E+01  0.33543314360E+02  0.10566000000E+00 0.  1.
         23    2    1    0    0    0 -0.28697154358E+02 -0.60092482756E+01  0.54322351421E+01  0.95181433439E+02  0.90390034626E+02 0.  0.
         13    1    3    3    0    0 -0.59476934081E+02 -0.15758599477E+02 -0.36616136381E+01  0.61638119079E+02  0.10566000000E+00 0. -1.
         22    1    1    0    0    0  0.28697154358E+02  0.60092482756E+01 -0.54322351421E+01  0.29818566561E+02  0.00000000000E+00 0. -1.
</event>
<event>
 5    1  0.9034917E-005  0.9118800E+02  0.7818608E-02  0.1130116E+00
         25   -1    0    0    0    0  0.00000000000E+00  0.00000000000E+00  0.99999998245E-14  0.12500000000E+03  0.12500000000E+03 0.  0.
        -13    1    3    3    0    0  0.21516606763E+02 -0.21097703777E+02 -0.26672359516E+02  0.40243054027E+02  0.10566000000E+00 0. -1.
         23    2    1    0    0    0  0.13463811456E+02  0.78074573347E+00  0.24811790373E+02  0.96759803040E+02  0.92547019185E+02 0.  0.
         13    1    3    3    0    0 -0.80527953070E+01  0.21878449510E+02  0.51484149889E+02  0.56516749013E+02  0.10566000000E+00 0.  1.
         22    1    1    0    0    0 -0.13463811456E+02 -0.78074573347E+00 -0.24811790373E+02  0.28240196960E+02  0.00000000000E+00 0. -1.
</event>
<event>
 5    1  0.9034917E-005  0.9118800E+02  0.7818608E-02  0.1130116E+00
         25   -1    0    0    0    0  0.00000000000E+00  0.00000000000E+00  0.99999998245E-14  0.12500000000E+03  0.12500000000E+03 0.  0.
        -13    1    3    3    0    0 -0.10353192177E+02  0.33500858827E+02  0.43324170856E+02  0.55735904718E+02  0.10566000000E+00 0. -1.
         23    2    1    0    0    0 -0.82787856571E+00  0.28460773284E+02  0.43203026344E+01  0.96201284513E+02  0.91789548034E+02 0.  0.
         13    1    3    3    0    0  0.95253136114E+01 -0.50400855432E+01 -0.39003868221E+02  0.40465379795E+02  0.10566000000E+00 0.  1.
         22    1    1    0    0    0  0.82787856571E+00 -0.28460773284E+02 -0.43203026344E+01  0.28798715487E+02  0.00000000000E+00 0. -1.
</event>
<event>
 5    1  0.9034917E-005  0.9118800E+02  0.7818608E-02  0.1130116E+00
         25   -1    0    0    0    0  0.00000000000E+00  0.00000000000E+00  0.99999998245E-14  0.12500000000E+03  0.12500000000E+03 0.  0.
        -13    1    3    3    0    0  0.19209665952E+01  0.40266642050E+02 -0.28970840015E+02  0.49642857592E+02  0.10566000000E+00 0.  1.
         23    2    1    0    0    0 -0.68929786985E+01  0.22370971451E+02  0.14494241670E+02  0.97467173037E+02  0.93497557504E+02 0.  0.
         13    1    3    3    0    0 -0.88139452937E+01 -0.17895670599E+02  0.43465081686E+02  0.47824315445E+02  0.10566000000E+00 0. -1.
         22    1    1    0    0    0  0.68929786985E+01 -0.22370971451E+02 -0.14494241670E+02  0.27532826963E+02  0.00000000000E+00 0. -1.
</event>
<event>
 5    1  0.9034917E-005  0.9118800E+02  0.7818608E-02  0.1130116E+00
         25   -1    0    0    0    0  0.00000000000E+00  0.00000000000E+00  0.99999998245E-14  0.12500000000E+03  0.12500000000E+03 0.  0.
        -13    1    3    3    0    0 -0.10749455885E+02 -0.40921649506E+02 -0.70988685673E+01  0.42901483647E+02  0.10566000000E+00 0.  1.
         23    2    1    0    0    0  0.50082441019E+01 -0.12089639280E+01  0.26967252692E+02  0.97545003724E+02  0.93601554106E+02 0.  0.
         13    1    3    3    0    0  0.15757699987E+02  0.39712685578E+02  0.34066121259E+02  0.54643520077E+02  0.10566000000E+00 0. -1.
         22    1    1    0    0    0 -0.50082441019E+01  0.12089639280E+01 -0.26967252692E+02  0.27454996276E+02  0.00000000000E+00 0. -1.
</event>
<event>
 5    1  0.9034917E-005  0.9118800E+02  0.7818608E-02  0.1130116E+00
         25   -1    0    0    0    0  0.00000000000E+00  0.00000000000E+00  0.99999998245E-14  0.12500000000E+03  0.12500000000E+03 0.  0.
        -13    1    3    3    0    0  0.91252269666E+01  0.16515982794E+02 -0.34003198552E+02  0.38887994685E+02  0.10566000000E+00 0.  1.
         23    2    1    0    0    0 -0.34126696383E+01  0.71061040882E+01  0.24399800124E+02  0.99358368315E+02  0.95992666796E+02 0.  0.
         13    1    3    3    0    0 -0.12537896605E+02 -0.94098787056E+01  0.58402998676E+02  0.60470373630E+02  0.10566000000E+00 0. -1.
         22    1    1    0    0    0  0.34126696383E+01 -0.71061040882E+01 -0.24399800124E+02  0.25641631685E+02  0.00000000000E+00 0. -1.
</event>
<event>
 5    1  0.9034917E-005  0.9118800E+02  0.7818608E-02  0.1130116E+00
         25   -1    0    0    0    0  0.00000000000E+00  0.00000000000E+00  0.99999998245E-14  0.12500000000E+03  0.12500000000E+03 0.  0.
        -13    1    3    3    0    0 -0.32203155221E+01  0.53925542668E+02 -0.17859670402E+02  0.56897395151E+02  0.10566000000E+00 0. -1.
         23    2    1    0    0    0 -0.92344151796E+01  0.17488197126E+02  0.96951778778E+01  0.10297483402E+03  0.10059179144E+03 0.  0.
         13    1    3    3    0    0 -0.60140996575E+01 -0.36437345541E+02  0.27554848280E+02  0.46077438867E+02  0.10566000000E+00 0.  1.
         22    1    1    0    0    0  0.92344151796E+01 -0.17488197126E+02 -0.96951778778E+01  0.22025165982E+02  0.00000000000E+00 0. -1.
</event>
<event>
 5    1  0.9034917E-005  0.9118800E+02  0.7818608E-02  0.1130116E+00
         25   -1    0    0    0    0  0.00000000000E+00  0.00000000000E+00  0.99999998245E-14  0.12500000000E+03  0.12500000000E+03 0.  0.
        -13    1    3    3    0    0  0.30227151532E+02  0.44887837041E+02 -0.21360389677E+02  0.58179687307E+02  0.10566000000E+00 0.  1.
         23    2    1    0    0    0  0.10096686789E+02  0.27068068234E+02  0.48259097736E+01  0.95709851363E+02  0.91117851383E+02 0.  0.
         13    1    3    3    0    0 -0.20130464743E+02 -0.17819768807E+02  0.26186299451E+02  0.37530164056E+02  0.10566000000E+00 0. -1.
         22    1    1    0    0    0 -0.10096686789E+02 -0.27068068234E+02 -0.48259097736E+01  0.29290148637E+02  0.00000000000E+00 0.  1.
</event>
<event>
 5    1  0.9034917E-005  0.9118800E+02  0.7818608E-02  0.1130116E+00
         25   -1    0    0    0    0  0.00000000000E+00  0.00000000000E+00  0.99999998245E-14  0.12500000000E+03  0.12500000000E+03 0.  0.
        -13    1    3    3    0    0  0.23174533966E+02  0.14707038394E+02  0.30997893042E+02  0.41403339720E+02  0.10566000000E+00 0.  1.
         23    2    1    0    0    0 -0.23556689172E+02  0.17222087922E+02  0.36903227740E+01  0.95586798894E+02  0.90948885224E+02 0.  0.
         13    1    3    3    0    0 -0.46731223138E+02  0.25150495277E+01 -0.27307570268E+02  0.54183459174E+02  0.10566000000E+00 0. -1.
         22    1    1    0    0    0  0.23556689172E+02 -0.17222087922E+02 -0.36903227740E+01  0.29413201106E+02  0.00000000000E+00 0. -1.
</event>
<event>
 5    1  0.9034917E-005  0.9118800E+02  0.7818608E-02  0.1130116E+00
         25   -1    0    0    0    0  0.00000000000E+00  0.00000000000E+00  0.99999998245E-14  0.12500000000E+03  0.12500000000E+03 0.  0.
        -13    1    3    3    0    0 -0.43710612358E+02 -0.25111956938E+02 -0.27024423223E+02  0.57197540406E+02  0.10566000000E+00 0.  1.
         23    2    1    0    0    0 -0.14317501312E+02 -0.23940821055E+02 -0.57212984321E-01  0.97104533883E+02  0.93011469565E+02 0.  0.
         13    1    3    3    0    0  0.29393111046E+02  0.11711358832E+01  0.26967210239E+02  0.39906993476E+02  0.10566000000E+00 0. -1.
         22    1    1    0    0    0  0.14317501312E+02  0.23940821055E+02  0.57212984321E-01  0.27895466117E+02  0.00000000000E+00 0.  1.
</event>
<event>
 5    1  0.9034917E-005  0.9118800E+02  0.7818608E-02  0.1130116E+00
         25   -1    0    0    0    0  0.00000000000E+00  0.00000000000E+00  0.99999998245E-14  0.12500000000E+03  0.12500000000E+03 0.  0.
        -13    1    3    3    0    0 -0.31301016632E+02 -0.13521975710E+02 -0.45518095008E+02  0.56872714077E+02  0.10566000000E+00 0.  1.
         23    2    1    0    0    0 -0.12052240660E+02 -0.23264883145E+02 -0.13381824253E+02  0.95579182319E+02  0.90938416414E+02 0.  0.
         13    1    3    3    0    0  0.19248775971E+02 -0.97429074347E+01  0.32136270756E+02  0.38706468242E+02  0.10566000000E+00 0. -1.
         22    1    1    0    0    0  0.12052240660E+02  0.23264883145E+02  0.13381824253E+02  0.29420817681E+02  0.00000000000E+00 0.  1.
</event>
<event>
 5    1  0.9034917E-005  0.9118800E+02  0.7818608E-02  0.1130116E+00
         25   -1    0    0    0    0  0.00000000000E+00  0.00000000000E+00  0.99999998245E-14  0.12500000000E+03  0.12500000000E+03 0.  0.
        -13    1    3    3    0    0 -0.56282492335E+02 -0.10852094254E+02  0.24239727742E+02  0.62233933333E+02  0.10566000000E+00 0.  1.
         23    2    1    0    0    0 -0.24639189278E+02 -0.82150142932E+01  0.13310221968E+02  0.95815447289E+02  0.91262598156E+02 0.  0.
         13    1    3    3    0    0  0.31643303057E+02  0.26370799612E+01 -0.10929505773E+02  0.33581513956E+02  0.10566000000E+00 0. -1.
         22    1    1    0    0    0  0.24639189278E+02  0.82150142932E+01 -0.13310221968E+02  0.29184552711E+02  0.00000000000E+00 0.  1.
</event>
<event>
 5    1  0.9034917E-005  0.9118800E+02  0.7818608E-02  0.1130116E+00
         25   -1    0    0    0    0  0.00000000000E+00  0.00000000000E+00  0.99999998245E-14  0.12500000000E+03  0.12500000000E+03 0.  0.
        -13    1    3    3    0    0 -0.34701684754E+02  0.31186383093E+01  0.32004354398E+02  0.47309858319E+02  0.10566000000E+00 0.  1.
         23    2    1    0    0    0 -0.20967418246E+02  0.19165932082E+02 -0.10452591955E+02  0.94730836499E+02  0.89764743217E+02 0.  0.
         13    1    3    3    0    0  0.13734266508E+02  0.16047293773E+02 -0.42456946353E+02  0.47420978180E+02  0.10566000000E+00 0. -1.
         22    1    1    0    0    0  0.20967418246E+02 -0.19165932082E+02  0.10452591955E+02  0.30269163501E+02  0.00000000000E+00 0.  1.
</event>
<event>
 5    1  0.9034917E-005  0.9118800E+02  0.7818608E-02  0.1130116E+00
         25   -1    0    0    0    0  0.00000000000E+00  0.00000000000E+00  0.99999998245E-14  0.12500000000E+03  0.12500000000E+03 0.  0.
        -13    1    3    3    0    0  0.31955620112E+02 -0.29679756713E+02  0.14737157913E+02  0.46035253911E+02  0.10566000000E+00 0.  1.
         23    2    1    0    0    0  0.25400128126E+02  0.16905194554E+02  0.48842956199E+01  0.94100024993E+02  0.88881979322E+02 0.  0.
         13    1    3    3    0    0 -0.65554919861E+01  0.46584951267E+02 -0.98528622929E+01  0.48064771082E+02  0.10566000000E+00 0. -1.
         22    1    1    0    0    0 -0.25400128126E+02 -0.16905194554E+02 -0.48842956199E+01  0.30899975007E+02  0.00000000000E+00 0. -1.
</event>
<event>
 5    1  0.9034917E-005  0.9118800E+02  0.7818608E-02  0.1130116E+00
         25   -1    0    0    0    0  0.00000000000E+00  0.00000000000E+00  0.99999998245E-14  0.12500000000E+03  0.12500000000E+03 0.  0.
        -13    1    3    3    0    0  0.30935976238E+02  0.31449651404E+02 -0.12745887489E+02  0.45919320674E+02  0.10566000000E+00 0. -1.
         23    2    1    0    0    0 -0.18216204076E+02  0.16448085377E+02 -0.12820578477E+02  0.97309986710E+02  0.93287173167E+02 0.  0.
         13    1    3    3    0    0 -0.49152180314E+02 -0.15001566027E+02 -0.74690987864E-01  0.51390666036E+02  0.10566000000E+00 0.  1.
         22    1    1    0    0    0  0.18216204076E+02 -0.16448085377E+02  0.12820578477E+02  0.27690013290E+02  0.00000000000E+00 0.  1.
</event>
<event>
 5    1  0.9034917E-005  0.9118800E+02  0.7818608E-02  0.1130116E+00
         25   -1    0    0    0    0  0.00000000000E+00  0.00000000000E+00  0.99999998245E-14  0.12500000000E+03  0.12500000000E+03 0.  0.
        -13    1    3    3    0    0 -0.42914307533E+02 -0.33081659832E+02 -0.26593935603E+02  0.60359610528E+02  0.10566000000E+00 0. -1.
         23    2    1    0    0    0 -0.11945460491E+02 -0.23688505237E+02 -0.11058884446E+02  0.96257379523E+02  0.91865907064E+02 0.  0.
         13    1    3    3    0    0  0.30968847042E+02  0.93931545948E+01  0.15535051157E+02  0.35897768995E+02  0.10566000000E+00 0.  1.
         22    1    1    0    0    0  0.11945460491E+02  0.23688505237E+02  0.11058884446E+02  0.28742620477E+02  0.00000000000E+00 0. -1.
</event>
<event>
 5    1  0.9034917E-005  0.9118800E+02  0.7818608E-02  0.1130116E+00
         25   -1    0    0    0    0  0.00000000000E+00  0.00000000000E+00  0.99999998245E-14  0.12500000000E+03  0.12500000000E+03 0.  0.
        -13    1    3    3    0    0 -0.40504956928E+01  0.35480701649E+02 -0.21243499755E+02  0.41552185872E+02  0.10566000000E+00 0.  1.
         23    2    1    0    0    0 -0.21673962177E+02  0.86288621139E+01  0.20308192133E+02  0.94070393382E+02  0.88840296857E+02 0.  0.
         13    1    3    3    0    0 -0.17623466484E+02 -0.26851839535E+02  0.41551691888E+02  0.52518207511E+02  0.10566000000E+00 0. -1.
         22    1    1    0    0    0  0.21673962177E+02 -0.86288621139E+01 -0.20308192133E+02  0.30929606618E+02  0.00000000000E+00 0. -1.
</event>
<event>
 5    1  0.9034917E-005  0.9118800E+02  0.7818608E-02  0.1130116E+00
         25   -1    0    0    0    0  0.00000000000E+00  0.00000000000E+00  0.99999998245E-14  0.12500000000E+03  0.12500000000E+03 0.  0.
        -13    1    3    3    0    0 -0.12128523653E+02 -0.51974276064E+02  0.22506701540E+02  0.57922268918E+02  0.10566000000E+00 0.  1.
         23    2    1    0    0    0 -0.53306612726E+01 -0.14893836982E+02  0.24682224631E+02  0.95683544852E+02  0.91081755655E+02 0.  0.
         13    1    3    3    0    0  0.67978623805E+01  0.37080439082E+02  0.21755230914E+01  0.37761275934E+02  0.10566000000E+00 0. -1.
         22    1    1    0    0    0  0.53306612726E+01  0.14893836982E+02 -0.24682224631E+02  0.29316455148E+02  0.00000000000E+00 0.  1.
</event>
<event>
 5    1  0.9034917E-005  0.9118800E+02  0.7818608E-02  0.1130116E+00
         25   -1    0    0    0    0  0.00000000000E+00  0.00000000000E+00  0.99999998245E-14  0.12500000000E+03  0.12500000000E+03 0.  0.
        -13    1    3    3    0    0  0.26726078876E+02 -0.31223135657E+02 -0.27028502525E+02  0.49190635340E+02  0.10566000000E+00 0.  1.
         23    2    1    0    0    0  0.20495900763E+02 -0.11959447280E+02  0.15750353628E+02  0.96518708478E+02  0.92220806327E+02 0.  0.
         13    1    3    3    0    0 -0.62301781132E+01  0.19263688377E+02  0.42778856153E+02  0.47328073139E+02  0.10566000000E+00 0. -1.
         22    1    1    0    0    0 -0.20495900763E+02  0.11959447280E+02 -0.15750353628E+02  0.28481291522E+02  0.00000000000E+00 0. -1.
</event>
<event>
 5    1  0.9034917E-005  0.9118800E+02  0.7818608E-02  0.1130116E+00
         25   -1    0    0    0    0  0.00000000000E+00  0.00000000000E+00  0.99999998245E-14  0.12500000000E+03  0.12500000000E+03 0.  0.
        -13    1    3    3    0    0  0.19835130561E+02  0.55246356146E+02  0.79878506455E+01  0.59240266658E+02  0.10566000000E+00 0.  1.
         23    2    1    0    0    0  0.27233084701E+01  0.26667374522E+02  0.16372095542E+02  0.93589638885E+02  0.88161271097E+02 0.  0.
         13    1    3    3    0    0 -0.17111822091E+02 -0.28578981624E+02  0.83842448962E+01  0.34349372227E+02  0.10566000000E+00 0. -1.
         22    1    1    0    0    0 -0.27233084701E+01 -0.26667374522E+02 -0.16372095542E+02  0.31410361115E+02  0.00000000000E+00 0.  1.
</event>
<event>
 5    1  0.9034917E-005  0.9118800E+02  0.7818608E-02  0.1130116E+00
         25   -1    0    0    0    0  0.00000000000E+00  0.00000000000E+00  0.99999998245E-14  0.12500000000E+03  0.12500000000E+03 0.  0.
        -13    1    3    3    0    0  0.21515332282E+02 -0.29284930464E+02 -0.26593835798E+02  0.45030655580E+02  0.10566000000E+00 0.  1.
         23    2    1    0    0    0 -0.12431776618E+02 -0.32970217141E+02  0.21975245994E+01  0.89695419524E+02  0.82455168916E+02 0.  0.
         13    1    3    3    0    0 -0.33947108900E+02 -0.36852866773E+01  0.28791360398E+02  0.44664763944E+02  0.10566000000E+00 0. -1.
         22    1    1    0    0    0  0.12431776618E+02  0.32970217141E+02 -0.21975245994E+01  0.35304580476E+02  0.00000000000E+00 0. -1.
</event>
<event>
 5    1  0.9034917E-005  0.9118800E+02  0.7818608E-02  0.1130116E+00
         25   -1    0    0    0    0  0.00000000000E+00  0.00000000000E+00  0.99999998245E-14  0.12500000000E+03  0.12500000000E+03 0.  0.
        -13    1    3    3    0    0  0.29993136634E+02 -0.35613409618E+02  0.39712972658E+02  0.61196687420E+02  0.10566000000E+00 0. -1.
         23    2    1    0    0    0  0.61018963070E+01 -0.19778595959E+02  0.21497233402E+02  0.95157797658E+02  0.90357342892E+02 0.  0.
         13    1    3    3    0    0 -0.23891240327E+02  0.15834813659E+02 -0.18215739256E+02  0.33961110239E+02  0.10566000000E+00 0.  1.
         22    1    1    0    0    0 -0.61018963070E+01  0.19778595959E+02 -0.21497233402E+02  0.29842202342E+02  0.00000000000E+00 0. -1.
</event>
<event>
 5    1  0.9034917E-005  0.9118800E+02  0.7818608E-02  0.1130116E+00
         25   -1    0    0    0    0  0.00000000000E+00  0.00000000000E+00  0.99999998245E-14  0.12500000000E+03  0.12500000000E+03 0.  0.
        -13    1    3    3    0    0  0.26864628672E+02 -0.32630349036E+02  0.10493395678E+02  0.43549632246E+02  0.10566000000E+00 0. -1.
         23    2    1    0    0    0 -0.11454084279E+02 -0.18348093632E+01  0.27166864357E+02  0.95460177877E+02  0.90774690687E+02 0.  0.
         13    1    3    3    0    0 -0.38318712950E+02  0.30795539673E+02  0.16673468679E+02  0.51910545631E+02  0.10566000000E+00 0.  1.
         22    1    1    0    0    0  0.11454084279E+02  0.18348093632E+01 -0.27166864357E+02  0.29539822123E+02  0.00000000000E+00 0.  1.
</event>
<event>
 5    1  0.9034917E-005  0.9118800E+02  0.7818608E-02  0.1130116E+00
         25   -1    0    0    0    0  0.00000000000E+00  0.00000000000E+00  0.99999998245E-14  0.12500000000E+03  0.12500000000E+03 0.  0.
        -13    1    3    3    0    0 -0.39885475148E+02 -0.20396644417E+01 -0.16934243990E+01  0.39973618913E+02  0.10566000000E+00 0.  1.
         23    2    1    0    0    0  0.71454497469E+01  0.20667873809E+02  0.18883466039E+02  0.96107029410E+02  0.91661100541E+02 0.  0.
         13    1    3    3    0    0  0.47030924895E+02  0.22707538251E+02  0.20576890438E+02  0.56133410497E+02  0.10566000000E+00 0. -1.
         22    1    1    0    0    0 -0.71454497469E+01 -0.20667873809E+02 -0.18883466039E+02  0.28892970590E+02  0.00000000000E+00 0. -1.
</event>
<event>
 5    1  0.9034917E-005  0.9118800E+02  0.7818608E-02  0.1130116E+00
         25   -1    0    0    0    0  0.00000000000E+00  0.00000000000E+00  0.99999998245E-14  0.12500000000E+03  0.12500000000E+03 0.  0.
        -13    1    3    3    0    0  0.47353856789E+02 -0.21920390068E+02  0.18535021763E+02  0.55375531142E+02  0.10566000000E+00 0.  1.
         23    2    1    0    0    0  0.29327810352E+02 -0.40201095854E+00 -0.86172161829E+01  0.94429777763E+02  0.89344526641E+02 0.  0.
         13    1    3    3    0    0 -0.18026046437E+02  0.21518379109E+02 -0.27152237946E+02  0.39054246621E+02  0.10566000000E+00 0. -1.
         22    1    1    0    0    0 -0.29327810352E+02  0.40201095854E+00  0.86172161829E+01  0.30570222237E+02  0.00000000000E+00 0.  1.
</event>
<event>
 5    1  0.9034917E-005  0.9118800E+02  0.7818608E-02  0.1130116E+00
         25   -1    0    0    0    0  0.00000000000E+00  0.00000000000E+00  0.99999998245E-14  0.12500000000E+03  0.12500000000E+03 0.  0.
        -13    1    3    3    0    0 -0.37592462685E+02 -0.20948876654E+02  0.35781173080E+02  0.55967420834E+02  0.10566000000E+00 0.  1.
         23    2    1    0    0    0 -0.12653057364E+02 -0.26035722175E+02  0.54835775677E+01  0.95537679780E+02  0.90881350919E+02 0.  0.
         13    1    3    3    0    0  0.24939405321E+02 -0.50868455205E+01 -0.30297595513E+02  0.39570258945E+02  0.10566000000E+00 0. -1.
         22    1    1    0    0    0  0.12653057364E+02  0.26035722175E+02 -0.54835775677E+01  0.29462320220E+02  0.00000000000E+00 0.  1.
</event>
<event>
 5    1  0.9034917E-005  0.9118800E+02  0.7818608E-02  0.1130116E+00
         25   -1    0    0    0    0  0.00000000000E+00  0.00000000000E+00  0.99999998245E-14  0.12500000000E+03  0.12500000000E+03 0.  0.
        -13    1    3    3    0    0 -0.52965172061E+02  0.99120206023E+01  0.24145033295E+02  0.59047027027E+02  0.10566000000E+00 0.  1.
         23    2    1    0    0    0 -0.16023018524E+02  0.17138387520E+02  0.12301579589E+02  0.98508674820E+02  0.94879759196E+02 0.  0.
         13    1    3    3    0    0  0.36942153537E+02  0.72263669179E+01 -0.11843453706E+02  0.39461647793E+02  0.10566000000E+00 0. -1.
         22    1    1    0    0    0  0.16023018524E+02 -0.17138387520E+02 -0.12301579589E+02  0.26491325180E+02  0.00000000000E+00 0.  1.
</event>
<event>
 5    1  0.9034917E-005  0.9118800E+02  0.7818608E-02  0.1130116E+00
         25   -1    0    0    0    0  0.00000000000E+00  0.00000000000E+00  0.99999998245E-14  0.12500000000E+03  0.12500000000E+03 0.  0.
        -13    1    3    3    0    0 -0.35927870734E+02 -0.56599536658E+01 -0.46904246621E+02  0.59353740287E+02  0.10566000000E+00 0. -1.
         23    2    1    0    0    0 -0.43606834860E+01 -0.29300137004E+01 -0.28549116918E+02  0.95971520578E+02  0.91476117892E+02 0.  0.
         13    1    3    3    0    0  0.31567187248E+02  0.27299399654E+01  0.18355129703E+02  0.36617780291E+02  0.10566000000E+00 0.  1.
         22    1    1    0    0    0  0.43606834860E+01  0.29300137004E+01  0.28549116918E+02  0.29028479422E+02  0.00000000000E+00 0. -1.
</event>
<event>
 5    1  0.9034917E-005  0.9118800E+02  0.7818608E-02  0.1130116E+00
         25   -1    0    0    0    0  0.00000000000E+00  0.00000000000E+00  0.99999998245E-14  0.12500000000E+03  0.12500000000E+03 0.  0.
        -13    1    3    3    0    0 -0.30296322733E+02 -0.34946557465E+02  0.34074843110E+02  0.57447673119E+02  0.10566000000E+00 0. -1.
         23    2    1    0    0    0 -0.41418631535E+00 -0.26331839434E+02  0.97953723440E+01  0.96902195146E+02  0.92739143766E+02 0.  0.
         13    1    3    3    0    0  0.29882136417E+02  0.86147180319E+01 -0.24279470766E+02  0.39454522027E+02  0.10566000000E+00 0.  1.
         22    1    1    0    0    0  0.41418631535E+00  0.26331839434E+02 -0.97953723440E+01  0.28097804854E+02  0.00000000000E+00 0. -1.
</event>
<event>
 5    1  0.9034917E-005  0.9118800E+02  0.7818608E-02  0.1130116E+00
         25   -1    0    0    0    0  0.00000000000E+00  0.00000000000E+00  0.99999998245E-14  0.12500000000E+03  0.12500000000E+03 0.  0.
        -13    1    3    3    0    0  0.17153424785E+02  0.21567686914E+02  0.55966897162E+02  0.62383570294E+02  0.10566000000E+00 0. -1.
         23    2    1    0    0    0  0.94407399410E+01  0.79351892241E+01  0.27085646904E+02  0.95238832905E+02  0.90469377284E+02 0.  0.
         13    1    3    3    0    0 -0.77126848439E+01 -0.13632497690E+02 -0.28881250257E+02  0.32855262611E+02  0.10566000000E+00 0.  1.
         22    1    1    0    0    0 -0.94407399410E+01 -0.79351892241E+01 -0.27085646904E+02  0.29761167095E+02  0.00000000000E+00 0. -1.
</event>
<event>
 5    1  0.9034917E-005  0.9118800E+02  0.7818608E-02  0.1130116E+00
         25   -1    0    0    0    0  0.00000000000E+00  0.00000000000E+00  0.99999998245E-14  0.12500000000E+03  0.12500000000E+03 0.  0.
        -13    1    3    3    0    0  0.21422617312E+02 -0.55964391739E+02  0.11809303795E+02  0.61077102873E+02  0.10566000000E+00 0.  1.
         23    2    1    0    0    0  0.97062662918E+00 -0.28042059039E+02  0.75022674579E+01  0.95955496075E+02  0.91454218158E+02 0.  0.
         13    1    3    3    0    0 -0.20451990683E+02  0.27922332700E+02 -0.43070363373E+01  0.34878393202E+02  0.10566000000E+00 0. -1.
         22    1    1    0    0    0 -0.97062662918E+00  0.28042059039E+02 -0.75022674579E+01  0.29044503925E+02  0.00000000000E+00 0.  1.
</event>
<event>
 5    1  0.9034917E-005  0.9118800E+02  0.7818608E-02  0.1130116E+00
         25   -1    0    0    0    0  0.00000000000E+00  0.00000000000E+00  0.99999998245E-14  0.12500000000E+03  0.12500000000E+03 0.  0.
        -13    1    3    3    0    0  0.11128880325E+02  0.34872773719E+02  0.11294024702E+02  0.38308334369E+02  0.10566000000E+00 0.  1.
         23    2    1    0    0    0  0.83664034243E+01 -0.23590372143E+02 -0.58488155791E+01  0.99295700598E+02  0.95911027257E+02 0.  0.
         13    1    3    3    0    0 -0.27624769004E+01 -0.58463145861E+02 -0.17142840281E+02  0.60987366229E+02  0.10566000000E+00 0. -1.
         22    1    1    0    0    0 -0.83664034243E+01  0.23590372143E+02  0.58488155791E+01  0.25704299402E+02  0.00000000000E+00 0. -1.
</event>
<event>
 5    1  0.9034917E-005  0.9118800E+02  0.7818608E-02  0.1130116E+00
         25   -1    0    0    0    0  0.00000000000E+00  0.00000000000E+00  0.99999998245E-14  0.12500000000E+03  0.12500000000E+03 0.  0.
        -13    1    3    3    0    0 -0.34029664539E+02 -0.15219721279E+02 -0.39445591476E+02  0.54273601644E+02  0.10566000000E+00 0.  1.
         23    2    1    0    0    0 -0.30678529610E+02  0.87495214553E+01 -0.11876132805E+02  0.90959306189E+02  0.84349431221E+02 0.  0.
         13    1    3    3    0    0  0.33511349292E+01  0.23969242735E+02  0.27569458671E+02  0.36685704546E+02  0.10566000000E+00 0. -1.
         22    1    1    0    0    0  0.30678529610E+02 -0.87495214553E+01  0.11876132805E+02  0.34040693811E+02  0.00000000000E+00 0.  1.
</event>
<event>
 5    1  0.9034917E-005  0.9118800E+02  0.7818608E-02  0.1130116E+00
         25   -1    0    0    0    0  0.00000000000E+00  0.00000000000E+00  0.99999998245E-14  0.12500000000E+03  0.12500000000E+03 0.  0.
        -13    1    3    3    0    0  0.43606616953E+02 -0.16620545695E+01 -0.35483197571E+02  0.56243825807E+02  0.10566000000E+00 0. -1.
         23    2    1    0    0    0  0.21987207122E+02 -0.20332940274E+02 -0.14261873059E+02  0.91829730777E+02  0.85629625096E+02 0.  0.
         13    1    3    3    0    0 -0.21619409831E+02 -0.18670885704E+02  0.21221324512E+02  0.35585904970E+02  0.10566000000E+00 0.  1.
         22    1    1    0    0    0 -0.21987207122E+02  0.20332940274E+02  0.14261873059E+02  0.33170269223E+02  0.00000000000E+00 0. -1.
</event>
<event>
 5    1  0.9034917E-005  0.9118800E+02  0.7818608E-02  0.1130116E+00
         25   -1    0    0    0    0  0.00000000000E+00  0.00000000000E+00  0.99999998245E-14  0.12500000000E+03  0.12500000000E+03 0.  0.
        -13    1    3    3    0    0 -0.37884335244E+02 -0.10147711940E+02 -0.34441263923E+02  0.52195888144E+02  0.10566000000E+00 0.  1.
         23    2    1    0    0    0 -0.35659078364E+00  0.36268726108E+01 -0.32581683811E+02  0.92215133340E+02  0.86190390039E+02 0.  0.
         13    1    3    3    0    0  0.37527744461E+02  0.13774584550E+02  0.18595801117E+01  0.40019245196E+02  0.10566000000E+00 0. -1.
         22    1    1    0    0    0  0.35659078364E+00 -0.36268726108E+01  0.32581683811E+02  0.32784866660E+02  0.00000000000E+00 0.  1.
</event>
<event>
 5    1  0.9034917E-005  0.9118800E+02  0.7818608E-02  0.1130116E+00
         25   -1    0    0    0    0  0.00000000000E+00  0.00000000000E+00  0.99999998245E-14  0.12500000000E+03  0.12500000000E+03 0.  0.
        -13    1    3    3    0    0 -0.94352893207E+01  0.29571275624E+02 -0.17453418427E+02  0.35610644552E+02  0.10566000000E+00 0.  1.
         23    2    1    0    0    0 -0.10548875916E+02 -0.27818922556E+02 -0.13958192942E+01  0.95215447850E+02  0.90437060780E+02 0.  0.
         13    1    3    3    0    0 -0.11135865955E+01 -0.57390198180E+02  0.16057599133E+02  0.59604803298E+02  0.10566000000E+00 0. -1.
         22    1    1    0    0    0  0.10548875916E+02  0.27818922556E+02  0.13958192942E+01  0.29784552150E+02  0.00000000000E+00 0. -1.
</event>
<event>
 5    1  0.9034917E-005  0.9118800E+02  0.7818608E-02  0.1130116E+00
         25   -1    0    0    0    0  0.00000000000E+00  0.00000000000E+00  0.99999998245E-14  0.12500000000E+03  0.12500000000E+03 0.  0.
        -13    1    3    3    0    0 -0.48293002696E+02 -0.23103820089E+02 -0.97045765655E+01  0.54407633495E+02  0.10566000000E+00 0.  1.
         23    2    1    0    0    0 -0.19618617230E+02 -0.13728706533E+02 -0.26782320304E+02  0.89074240356E+02  0.81508036960E+02 0.  0.
         13    1    3    3    0    0  0.28674385467E+02  0.93751135554E+01 -0.17077743739E+02  0.34666606862E+02  0.10566000000E+00 0. -1.
         22    1    1    0    0    0  0.19618617230E+02  0.13728706533E+02  0.26782320304E+02  0.35925759644E+02  0.00000000000E+00 0.  1.
</event>
<event>
 5    1  0.9034917E-005  0.9118800E+02  0.7818608E-02  0.1130116E+00
         25   -1    0    0    0    0  0.00000000000E+00  0.00000000000E+00  0.99999998245E-14  0.12500000000E+03  0.12500000000E+03 0.  0.
        -13    1    3    3    0    0  0.96003333104E+01  0.28173766877E+02 -0.12777452840E+02  0.32391387819E+02  0.10566000000E+00 0.  1.
         23    2    1    0    0    0  0.21775508547E+02 -0.26085908456E+02 -0.14566957296E+02  0.88029151520E+02  0.79889222552E+02 0.  0.
         13    1    3    3    0    0  0.12175175237E+02 -0.54259675334E+02 -0.17895044565E+01  0.55637763701E+02  0.10566000000E+00 0. -1.
         22    1    1    0    0    0 -0.21775508547E+02  0.26085908456E+02  0.14566957296E+02  0.36970848480E+02  0.00000000000E+00 0. -1.
</event>
<event>
 5    1  0.9034917E-005  0.9118800E+02  0.7818608E-02  0.1130116E+00
         25   -1    0    0    0    0  0.00000000000E+00  0.00000000000E+00  0.99999998245E-14  0.12500000000E+03  0.12500000000E+03 0.  0.
        -13    1    3    3    0    0 -0.25355849684E+02 -0.23523746395E+02  0.20260304864E+02  0.40084621426E+02  0.10566000000E+00 0.  1.
         23    2    1    0    0    0 -0.97806426842E+01  0.18768437405E+02 -0.16435637742E+02  0.98203630807E+02  0.94477022083E+02 0.  0.
         13    1    3    3    0    0  0.15575207000E+02  0.42292183800E+02 -0.36695942606E+02  0.58119009381E+02  0.10566000000E+00 0. -1.
         22    1    1    0    0    0  0.97806426842E+01 -0.18768437405E+02  0.16435637742E+02  0.26796369193E+02  0.00000000000E+00 0. -1.
</event>
<event>
 5    1  0.9034917E-005  0.9118800E+02  0.7818608E-02  0.1130116E+00
         25   -1    0    0    0    0  0.00000000000E+00  0.00000000000E+00  0.99999998245E-14  0.12500000000E+03  0.12500000000E+03 0.  0.
        -13    1    3    3    0    0 -0.26611854850E+02  0.46599092040E+01 -0.34341237849E+02  0.43694820670E+02  0.10566000000E+00 0. -1.
         23    2    1    0    0    0 -0.12821227528E+02 -0.27691582056E+02  0.21932717458E+01  0.94405588206E+02  0.89310677141E+02 0.  0.
         13    1    3    3    0    0  0.13790627322E+02 -0.32351491260E+02  0.36534509595E+02  0.50710767536E+02  0.10566000000E+00 0.  1.
         22    1    1    0    0    0  0.12821227528E+02  0.27691582056E+02 -0.21932717458E+01  0.30594411794E+02  0.00000000000E+00 0.  1.
</event>
<event>
 5    1  0.9034917E-005  0.9118800E+02  0.7818608E-02  0.1130116E+00
         25   -1    0    0    0    0  0.00000000000E+00  0.00000000000E+00  0.99999998245E-14  0.12500000000E+03  0.12500000000E+03 0.  0.
        -13    1    3    3    0    0  0.15190490380E+02  0.32535844477E+02 -0.14550048211E+02  0.38743350924E+02  0.10566000000E+00 0. -1.
         23    2    1    0    0    0 -0.81058768099E+01 -0.23156676023E+02 -0.62679866061E+01  0.99677588199E+02  0.96407453290E+02 0.  0.
         13    1    3    3    0    0 -0.23296367190E+02 -0.55692520500E+02  0.82820616047E+01  0.60934237276E+02  0.10566000000E+00 0.  1.
         22    1    1    0    0    0  0.81058768099E+01  0.23156676023E+02  0.62679866061E+01  0.25322411801E+02  0.00000000000E+00 0.  1.
</event>
<event>
 5    1  0.9034917E-005  0.9118800E+02  0.7818608E-02  0.1130116E+00
         25   -1    0    0    0    0  0.00000000000E+00  0.00000000000E+00  0.99999998245E-14  0.12500000000E+03  0.12500000000E+03 0.  0.
        -13    1    3    3    0    0 -0.14210310759E+02  0.92242333521E+01  0.52677296675E+02  0.55334692209E+02  0.10566000000E+00 0. -1.
         23    2    1    0    0    0 -0.24486486428E+02 -0.14550242348E+00  0.13217211406E+02  0.97173683932E+02  0.93104355339E+02 0.  0.
         13    1    3    3    0    0 -0.10276175669E+02 -0.93697357756E+01 -0.39460085270E+02  0.41838991723E+02  0.10566000000E+00 0.  1.
         22    1    1    0    0    0  0.24486486428E+02  0.14550242348E+00 -0.13217211406E+02  0.27826316068E+02  0.00000000000E+00 0.  1.
</event>
<event>
 5    1  0.9034917E-005  0.9118800E+02  0.7818608E-02  0.1130116E+00
         25   -1    0    0    0    0  0.00000000000E+00  0.00000000000E+00  0.99999998245E-14  0.12500000000E+03  0.12500000000E+03 0.  0.
        -13    1    3    3    0    0 -0.51133163891E+02  0.18263335001E+02  0.23072867333E+02  0.58995917027E+02  0.10566000000E+00 0.  1.
         23    2    1    0    0    0 -0.26561073392E+02 -0.60024879816E+01  0.11785144346E+02  0.95328294472E+02  0.90592900483E+02 0.  0.
         13    1    3    3    0    0  0.24572090499E+02 -0.24265822983E+02 -0.11287722987E+02  0.36332377445E+02  0.10566000000E+00 0. -1.
         22    1    1    0    0    0  0.26561073392E+02  0.60024879816E+01 -0.11785144346E+02  0.29671705528E+02  0.00000000000E+00 0.  1.
</event>
<event>
 5    1  0.9034917E-005  0.9118800E+02  0.7818608E-02  0.1130116E+00
         25   -1    0    0    0    0  0.00000000000E+00  0.00000000000E+00  0.99999998245E-14  0.12500000000E+03  0.12500000000E+03 0.  0.
        -13    1    3    3    0    0 -0.12657972269E+02  0.34465946669E+01  0.58447146708E+02  0.59901447388E+02  0.10566000000E+00 0.  1.
         23    2    1    0    0    0 -0.90396654365E+01 -0.10535952549E+02  0.23658957104E+02  0.97568848027E+02  0.93633391516E+02 0.  0.
         13    1    3    3    0    0  0.36183068320E+01 -0.13982547216E+02 -0.34788189604E+02  0.37667400640E+02  0.10566000000E+00 0. -1.
         22    1    1    0    0    0  0.90396654365E+01  0.10535952549E+02 -0.23658957104E+02  0.27431151973E+02  0.00000000000E+00 0.  1.
</event>
<event>
 5    1  0.9034917E-005  0.9118800E+02  0.7818608E-02  0.1130116E+00
         25   -1    0    0    0    0  0.00000000000E+00  0.00000000000E+00  0.99999998245E-14  0.12500000000E+03  0.12500000000E+03 0.  0.
        -13    1    3    3    0    0 -0.26251668829E+02 -0.11774358644E+02 -0.25356001959E+02  0.38350014826E+02  0.10566000000E+00 0.  1.
         23    2    1    0    0    0  0.44128931635E+01 -0.18248231844E+02  0.22587736659E+02  0.95628628924E+02  0.91006358190E+02 0.  0.
         13    1    3    3    0    0  0.30664561993E+02 -0.64738732001E+01  0.47943738617E+02  0.57278614098E+02  0.10566000000E+00 0. -1.
         22    1    1    0    0    0 -0.44128931635E+01  0.18248231844E+02 -0.22587736659E+02  0.29371371076E+02  0.00000000000E+00 0. -1.
</event>
<event>
 5    1  0.9034917E-005  0.9118800E+02  0.7818608E-02  0.1130116E+00
         25   -1    0    0    0    0  0.00000000000E+00  0.00000000000E+00  0.99999998245E-14  0.12500000000E+03  0.12500000000E+03 0.  0.
        -13    1    3    3    0    0 -0.47281271604E+02  0.21956341793E+02 -0.26476983932E+02  0.58469149401E+02  0.10566000000E+00 0.  1.
         23    2    1    0    0    0 -0.29614400250E+02  0.79896483627E-01 -0.27562122410E+01  0.95257508653E+02  0.90495177568E+02 0.  0.
         13    1    3    3    0    0  0.17666871354E+02 -0.21876445309E+02  0.23720771691E+02  0.36788359252E+02  0.10566000000E+00 0. -1.
         22    1    1    0    0    0  0.29614400250E+02 -0.79896483627E-01  0.27562122410E+01  0.29742491347E+02  0.00000000000E+00 0.  1.
</event>
<event>
 5    1  0.9034917E-005  0.9118800E+02  0.7818608E-02  0.1130116E+00
         25   -1    0    0    0    0  0.00000000000E+00  0.00000000000E+00  0.99999998245E-14  0.12500000000E+03  0.12500000000E+03 0.  0.
        -13    1    3    3    0    0 -0.26732044753E+02 -0.52002841994E+00  0.44215907564E+02  0.51671368204E+02  0.10566000000E+00 0. -1.
         23    2    1    0    0    0  0.32827792120E+01  0.20772898271E+02  0.21531940195E+02  0.94901588240E+02  0.90002205862E+02 0.  0.
         13    1    3    3    0    0  0.30014823965E+02  0.21292926691E+02 -0.22683967370E+02  0.43230220037E+02  0.10566000000E+00 0.  1.
         22    1    1    0    0    0 -0.32827792120E+01 -0.20772898271E+02 -0.21531940195E+02  0.30098411760E+02  0.00000000000E+00 0.  1.
</event>
<event>
 5    1  0.9034917E-005  0.9118800E+02  0.7818608E-02  0.1130116E+00
         25   -1    0    0    0    0  0.00000000000E+00  0.00000000000E+00  0.99999998245E-14  0.12500000000E+03  0.12500000000E+03 0.  0.
        -13    1    3    3    0    0 -0.28659669007E+02 -0.48701138479E+02 -0.63546599958E+01  0.56864491420E+02  0.10566000000E+00 0.  1.
         23    2    1    0    0    0 -0.27319993042E+02 -0.11355162816E+02  0.26237023396E+01  0.95298054671E+02  0.90551166020E+02 0.  0.
         13    1    3    3    0    0  0.13396759656E+01  0.37345975663E+02  0.89783623354E+01  0.38433563251E+02  0.10566000000E+00 0. -1.
         22    1    1    0    0    0  0.27319993042E+02  0.11355162816E+02 -0.26237023396E+01  0.29701945329E+02  0.00000000000E+00 0.  1.
</event>
<event>
 5    1  0.9034917E-005  0.9118800E+02  0.7818608E-02  0.1130116E+00
         25   -1    0    0    0    0  0.00000000000E+00  0.00000000000E+00  0.99999998245E-14  0.12500000000E+03  0.12500000000E+03 0.  0.
        -13    1    3    3    0    0  0.26785885082E+02  0.28462129878E+02  0.22668257351E+02  0.45182270108E+02  0.10566000000E+00 0.  1.
         23    2    1    0    0    0  0.11852547542E+00  0.22263231068E+02 -0.19463364002E+02  0.95428255984E+02  0.90730722448E+02 0.  0.
         13    1    3    3    0    0 -0.26667359606E+02 -0.61988988094E+01 -0.42131621353E+02  0.50245985876E+02  0.10566000000E+00 0. -1.
         22    1    1    0    0    0 -0.11852547542E+00 -0.22263231068E+02  0.19463364002E+02  0.29571744016E+02  0.00000000000E+00 0. -1.
</event>
<event>
 5    1  0.9034917E-005  0.9118800E+02  0.7818608E-02  0.1130116E+00
         25   -1    0    0    0    0  0.00000000000E+00  0.00000000000E+00  0.99999998245E-14  0.12500000000E+03  0.12500000000E+03 0.  0.
        -13    1    3    3    0    0 -0.58449017750E+02  0.61623686079E+01  0.10813977481E+02  0.59759649730E+02  0.10566000000E+00 0.  1.
         23    2    1    0    0    0 -0.28497735511E+02  0.11018618980E+02 -0.51019960221E+01  0.94023214226E+02  0.88773890061E+02 0.  0.
         13    1    3    3    0    0  0.29951282239E+02  0.48562503718E+01 -0.15915973503E+02  0.34263564497E+02  0.10566000000E+00 0. -1.
         22    1    1    0    0    0  0.28497735511E+02 -0.11018618980E+02  0.51019960221E+01  0.30976785774E+02  0.00000000000E+00 0.  1.
</event>
<event>
 5    1  0.9034917E-005  0.9118800E+02  0.7818608E-02  0.1130116E+00
         25   -1    0    0    0    0  0.00000000000E+00  0.00000000000E+00  0.99999998245E-14  0.12500000000E+03  0.12500000000E+03 0.  0.
        -13    1    3    3    0    0  0.46910246026E+02 -0.37690012268E+01  0.11963441399E+02  0.48558332412E+02  0.10566000000E+00 0.  1.
         23    2    1    0    0    0  0.74782899260E+01 -0.28139413611E+02  0.56351352543E+01  0.95343530758E+02  0.90613921058E+02 0.  0.
         13    1    3    3    0    0 -0.39431956100E+02 -0.24370412384E+02 -0.63283061444E+01  0.46785198346E+02  0.10566000000E+00 0. -1.
         22    1    1    0    0    0 -0.74782899260E+01  0.28139413611E+02 -0.56351352543E+01  0.29656469242E+02  0.00000000000E+00 0.  1.
</event>
<event>
 5    1  0.9034917E-005  0.9118800E+02  0.7818608E-02  0.1130116E+00
         25   -1    0    0    0    0  0.00000000000E+00  0.00000000000E+00  0.99999998245E-14  0.12500000000E+03  0.12500000000E+03 0.  0.
        -13    1    3    3    0    0 -0.12415570429E+02  0.32091763302E+02 -0.49667689405E+02  0.60422828432E+02  0.10566000000E+00 0.  1.
         23    2    1    0    0    0  0.28802543936E+01  0.22496214757E+02 -0.22431107906E+02  0.93101251660E+02  0.87466067220E+02 0.  0.
         13    1    3    3    0    0  0.15295824823E+02 -0.95955485448E+01  0.27236581499E+02  0.32678423228E+02  0.10566000000E+00 0. -1.
         22    1    1    0    0    0 -0.28802543936E+01 -0.22496214757E+02  0.22431107906E+02  0.31898748340E+02  0.00000000000E+00 0.  1.
</event>
<event>
 5    1  0.9034917E-005  0.9118800E+02  0.7818608E-02  0.1130116E+00
         25   -1    0    0    0    0  0.00000000000E+00  0.00000000000E+00  0.99999998245E-14  0.12500000000E+03  0.12500000000E+03 0.  0.
        -13    1    3    3    0    0  0.23207962478E+02  0.27641579435E+02 -0.25495000187E+02  0.44189055598E+02  0.10566000000E+00 0.  1.
         23    2    1    0    0    0 -0.14342903423E+02 -0.41775479268E+01 -0.27776386311E+02  0.93461160107E+02  0.87978918081E+02 0.  0.
         13    1    3    3    0    0 -0.37550865902E+02 -0.31819127362E+02 -0.22813861242E+01  0.49272104509E+02  0.10566000000E+00 0. -1.
         22    1    1    0    0    0  0.14342903423E+02  0.41775479268E+01  0.27776386311E+02  0.31538839893E+02  0.00000000000E+00 0. -1.
</event>
<event>
 5    1  0.9034917E-005  0.9118800E+02  0.7818608E-02  0.1130116E+00
         25   -1    0    0    0    0  0.00000000000E+00  0.00000000000E+00  0.99999998245E-14  0.12500000000E+03  0.12500000000E+03 0.  0.
        -13    1    3    3    0    0 -0.13008426146E+02 -0.47066859328E+02  0.18202845040E+02  0.52113943714E+02  0.10566000000E+00 0.  1.
         23    2    1    0    0    0 -0.22815291955E+02 -0.51844660926E+01  0.18567453580E+02  0.95130842527E+02  0.90320045571E+02 0.  0.
         13    1    3    3    0    0 -0.98068658093E+01  0.41882393236E+02  0.36460854031E+00  0.43016898814E+02  0.10566000000E+00 0. -1.
         22    1    1    0    0    0  0.22815291955E+02  0.51844660926E+01 -0.18567453580E+02  0.29869157473E+02  0.00000000000E+00 0.  1.
</event>
<event>
 5    1  0.9034917E-005  0.9118800E+02  0.7818608E-02  0.1130116E+00
         25   -1    0    0    0    0  0.00000000000E+00  0.00000000000E+00  0.99999998245E-14  0.12500000000E+03  0.12500000000E+03 0.  0.
        -13    1    3    3    0    0  0.46216004788E+02 -0.36884005019E+00 -0.11223842986E+02  0.47560918378E+02  0.10566000000E+00 0.  1.
         23    2    1    0    0    0  0.31025046889E+01 -0.16418329928E+02 -0.24411429938E+02  0.95417826236E+02  0.90716352214E+02 0.  0.
         13    1    3    3    0    0 -0.43113500099E+02 -0.16049489878E+02 -0.13187586952E+02  0.47856907858E+02  0.10566000000E+00 0. -1.
         22    1    1    0    0    0 -0.31025046889E+01  0.16418329928E+02  0.24411429938E+02  0.29582173764E+02  0.00000000000E+00 0.  1.
</event>
<event>
 5    1  0.9034917E-005  0.9118800E+02  0.7818608E-02  0.1130116E+00
         25   -1    0    0    0    0  0.00000000000E+00  0.00000000000E+00  0.99999998245E-14  0.12500000000E+03  0.12500000000E+03 0.  0.
        -13    1    3    3    0    0 -0.28459674090E+02  0.25354575216E+02  0.45242099390E+02  0.59157977103E+02  0.10566000000E+00 0.  1.
         23    2    1    0    0    0 -0.14203749188E+02 -0.15775808930E+01  0.26384797178E+02  0.94993454471E+02  0.90129704414E+02 0.  0.
         13    1    3    3    0    0  0.14255924902E+02 -0.26932156109E+02 -0.18857302212E+02  0.35835477369E+02  0.10566000000E+00 0. -1.
         22    1    1    0    0    0  0.14203749188E+02  0.15775808930E+01 -0.26384797178E+02  0.30006545529E+02  0.00000000000E+00 0.  1.
</event>
<event>
 5    1  0.9034917E-005  0.9118800E+02  0.7818608E-02  0.1130116E+00
         25   -1    0    0    0    0  0.00000000000E+00  0.00000000000E+00  0.99999998245E-14  0.12500000000E+03  0.12500000000E+03 0.  0.
        -13    1    3    3    0    0  0.34382506200E+02  0.16257178343E+01 -0.40553939471E+02  0.53192413573E+02  0.10566000000E+00 0.  1.
         23    2    1    0    0    0  0.39646247717E+01  0.22104577023E+02 -0.17758803401E+02  0.96369497504E+02  0.92018337173E+02 0.  0.
         13    1    3    3    0    0 -0.30417881428E+02  0.20478859188E+02  0.22795136070E+02  0.43177083931E+02  0.10566000000E+00 0. -1.
         22    1    1    0    0    0 -0.39646247717E+01 -0.22104577023E+02  0.17758803401E+02  0.28630502496E+02  0.00000000000E+00 0.  1.
</event>
<event>
 5    1  0.9034917E-005  0.9118800E+02  0.7818608E-02  0.1130116E+00
         25   -1    0    0    0    0  0.00000000000E+00  0.00000000000E+00  0.99999998245E-14  0.12500000000E+03  0.12500000000E+03 0.  0.
        -13    1    3    3    0    0 -0.48682941930E+02  0.26492113833E+02  0.14444451489E+02  0.57275773877E+02  0.10566000000E+00 0.  1.
         23    2    1    0    0    0 -0.11491914736E+02  0.26471001843E+02  0.43187612102E+01  0.95820730968E+02  0.91269834787E+02 0.  0.
         13    1    3    3    0    0  0.37191027195E+02 -0.21111990508E-01 -0.10125690279E+02  0.38544957091E+02  0.10566000000E+00 0. -1.
         22    1    1    0    0    0  0.11491914736E+02 -0.26471001843E+02 -0.43187612102E+01  0.29179269032E+02  0.00000000000E+00 0.  1.
</event>
<event>
 5    1  0.9034917E-005  0.9118800E+02  0.7818608E-02  0.1130116E+00
         25   -1    0    0    0    0  0.00000000000E+00  0.00000000000E+00  0.99999998245E-14  0.12500000000E+03  0.12500000000E+03 0.  0.
        -13    1    3    3    0    0  0.15075198403E+02  0.32684389300E+02  0.39753006409E+01  0.36212499085E+02  0.10566000000E+00 0. -1.
         23    2    1    0    0    0 -0.19273488110E+02  0.26064344004E+02 -0.26904401456E+02  0.82873236654E+02  0.71367423686E+02 0.  0.
         13    1    3    3    0    0 -0.34348686513E+02 -0.66200452960E+01 -0.30879702097E+02  0.46660737569E+02  0.10566000000E+00 0.  1.
         22    1    1    0    0    0  0.19273488110E+02 -0.26064344004E+02  0.26904401456E+02  0.42126763346E+02  0.00000000000E+00 0.  1.
</event>
<event>
 5    1  0.9034917E-005  0.9118800E+02  0.7818608E-02  0.1130116E+00
         25   -1    0    0    0    0  0.00000000000E+00  0.00000000000E+00  0.99999998245E-14  0.12500000000E+03  0.12500000000E+03 0.  0.
        -13    1    3    3    0    0 -0.22615562330E+02  0.51524202553E+02  0.14128393490E+02  0.58015771777E+02  0.10566000000E+00 0.  1.
         23    2    1    0    0    0  0.50163915027E+01  0.26886652043E+02 -0.23546858724E-01  0.97649373019E+02  0.93740830244E+02 0.  0.
         13    1    3    3    0    0  0.27631953832E+02 -0.24637550510E+02 -0.14151940349E+02  0.39633601242E+02  0.10566000000E+00 0. -1.
         22    1    1    0    0    0 -0.50163915027E+01 -0.26886652043E+02  0.23546858724E-01  0.27350626981E+02  0.00000000000E+00 0.  1.
</event>
<event>
 5    1  0.9034917E-005  0.9118800E+02  0.7818608E-02  0.1130116E+00
         25   -1    0    0    0    0  0.00000000000E+00  0.00000000000E+00  0.99999998245E-14  0.12500000000E+03  0.12500000000E+03 0.  0.
        -13    1    3    3    0    0 -0.30166131618E+02 -0.10161992499E+02 -0.11243098007E+02  0.33759146985E+02  0.10566000000E+00 0.  1.
         23    2    1    0    0    0  0.17208951381E+02  0.25666554287E+02 -0.66770602744E+00  0.94091007006E+02  0.88869295887E+02 0.  0.
         13    1    3    3    0    0  0.47375082999E+02  0.35828546786E+02  0.10575391980E+02  0.60331860020E+02  0.10566000000E+00 0. -1.
         22    1    1    0    0    0 -0.17208951381E+02 -0.25666554287E+02  0.66770602744E+00  0.30908992994E+02  0.00000000000E+00 0. -1.
</event>
<event>
 5    1  0.9034917E-005  0.9118800E+02  0.7818608E-02  0.1130116E+00
         25   -1    0    0    0    0  0.00000000000E+00  0.00000000000E+00  0.99999998245E-14  0.12500000000E+03  0.12500000000E+03 0.  0.
        -13    1    3    3    0    0  0.21703207448E+02  0.14226291773E+02  0.25307807400E+02  0.36247936087E+02  0.10566000000E+00 0. -1.
         23    2    1    0    0    0  0.87225717458E+01  0.14342936590E+02 -0.28676596997E+02  0.91771242828E+02  0.85544203234E+02 0.  0.
         13    1    3    3    0    0 -0.12980635703E+02  0.11664481768E+00 -0.53984404397E+02  0.55523306740E+02  0.10566000000E+00 0.  1.
         22    1    1    0    0    0 -0.87225717458E+01 -0.14342936590E+02  0.28676596997E+02  0.33228757172E+02  0.00000000000E+00 0.  1.
</event>
<event>
 5    1  0.9034917E-005  0.9118800E+02  0.7818608E-02  0.1130116E+00
         25   -1    0    0    0    0  0.00000000000E+00  0.00000000000E+00  0.99999998245E-14  0.12500000000E+03  0.12500000000E+03 0.  0.
        -13    1    3    3    0    0  0.43205126885E+02 -0.28879827931E+01 -0.10289716808E+02  0.44507447352E+02  0.10566000000E+00 0.  1.
         23    2    1    0    0    0  0.71498128390E+01  0.99623785236E+01  0.25370345624E+02  0.96821581901E+02  0.92630424134E+02 0.  0.
         13    1    3    3    0    0 -0.36055314046E+02  0.12850361317E+02  0.35660062432E+02  0.52314134549E+02  0.10566000000E+00 0. -1.
         22    1    1    0    0    0 -0.71498128390E+01 -0.99623785236E+01 -0.25370345624E+02  0.28178418099E+02  0.00000000000E+00 0. -1.
</event>
<event>
 5    1  0.9034917E-005  0.9118800E+02  0.7818608E-02  0.1130116E+00
         25   -1    0    0    0    0  0.00000000000E+00  0.00000000000E+00  0.99999998245E-14  0.12500000000E+03  0.12500000000E+03 0.  0.
        -13    1    3    3    0    0 -0.43509317079E+01  0.52806915357E+02  0.19197764942E+02  0.56356599073E+02  0.10566000000E+00 0. -1.
         23    2    1    0    0    0 -0.58124529276E+01  0.13377919044E+02  0.24819994677E+02  0.96211365737E+02  0.91803275727E+02 0.  0.
         13    1    3    3    0    0 -0.14615212197E+01 -0.39428996314E+02  0.56222297349E+01  0.39854766664E+02  0.10566000000E+00 0.  1.
         22    1    1    0    0    0  0.58124529276E+01 -0.13377919044E+02 -0.24819994677E+02  0.28788634263E+02  0.00000000000E+00 0. -1.
</event>
<event>
 5    1  0.9034917E-005  0.9118800E+02  0.7818608E-02  0.1130116E+00
         25   -1    0    0    0    0  0.00000000000E+00  0.00000000000E+00  0.99999998245E-14  0.12500000000E+03  0.12500000000E+03 0.  0.
        -13    1    3    3    0    0 -0.24414478264E+02  0.34186830472E+02  0.78419517456E+01  0.42735389290E+02  0.10566000000E+00 0. -1.
         23    2    1    0    0    0  0.44078462580E+01 -0.88333447554E+01 -0.20846453917E+02  0.10193418701E+03  0.99290214781E+02 0.  0.
         13    1    3    3    0    0  0.28822324522E+02 -0.43020175227E+02 -0.28688405662E+02  0.59198797715E+02  0.10566000000E+00 0.  1.
         22    1    1    0    0    0 -0.44078462580E+01  0.88333447554E+01  0.20846453917E+02  0.23065812995E+02  0.00000000000E+00 0.  1.
</event>
<event>
 5    1  0.9034917E-005  0.9118800E+02  0.7818608E-02  0.1130116E+00
         25   -1    0    0    0    0  0.00000000000E+00  0.00000000000E+00  0.99999998245E-14  0.12500000000E+03  0.12500000000E+03 0.  0.
        -13    1    3    3    0    0  0.31703963233E+02  0.26529102842E+01  0.23585270107E+02  0.39603728962E+02  0.10566000000E+00 0.  1.
         23    2    1    0    0    0 -0.12602833862E+02 -0.20605641333E+02 -0.88935433942E+01  0.99260555752E+02  0.95865212345E+02 0.  0.
         13    1    3    3    0    0 -0.44306797095E+02 -0.23258551617E+02 -0.32478813501E+02  0.59656826790E+02  0.10566000000E+00 0. -1.
         22    1    1    0    0    0  0.12602833862E+02  0.20605641333E+02  0.88935433942E+01  0.25739444248E+02  0.00000000000E+00 0. -1.
</event>
<event>
 5    1  0.9034917E-005  0.9118800E+02  0.7818608E-02  0.1130116E+00
         25   -1    0    0    0    0  0.00000000000E+00  0.00000000000E+00  0.99999998245E-14  0.12500000000E+03  0.12500000000E+03 0.  0.
        -13    1    3    3    0    0  0.26380452019E+02  0.16059273893E+02 -0.12678944841E+02  0.33385555754E+02  0.10566000000E+00 0.  1.
         23    2    1    0    0    0 -0.21418782727E+02 -0.55186435008E+01  0.20001900403E+02  0.95178938662E+02  0.90386584544E+02 0.  0.
         13    1    3    3    0    0 -0.47799234746E+02 -0.21577917394E+02  0.32680845243E+02  0.61793382908E+02  0.10566000000E+00 0. -1.
         22    1    1    0    0    0  0.21418782727E+02  0.55186435008E+01 -0.20001900403E+02  0.29821061338E+02  0.00000000000E+00 0. -1.
</event>
<event>
 5    1  0.9034917E-005  0.9118800E+02  0.7818608E-02  0.1130116E+00
         25   -1    0    0    0    0  0.00000000000E+00  0.00000000000E+00  0.99999998245E-14  0.12500000000E+03  0.12500000000E+03 0.  0.
        -13    1    3    3    0    0  0.53647034761E+02 -0.16935828525E+02  0.20710286756E+02  0.59947925469E+02  0.10566000000E+00 0.  1.
         23    2    1    0    0    0  0.26970969607E+02  0.15310223439E+01  0.88303615881E+00  0.97971182345E+02  0.94168973586E+02 0.  0.
         13    1    3    3    0    0 -0.26676065154E+02  0.18466850869E+02 -0.19827250597E+02  0.38023256876E+02  0.10566000000E+00 0. -1.
         22    1    1    0    0    0 -0.26970969607E+02 -0.15310223439E+01 -0.88303615881E+00  0.27028817655E+02  0.00000000000E+00 0.  1.
</event>
<event>
 5    1  0.9034917E-005  0.9118800E+02  0.7818608E-02  0.1130116E+00
         25   -1    0    0    0    0  0.00000000000E+00  0.00000000000E+00  0.99999998245E-14  0.12500000000E+03  0.12500000000E+03 0.  0.
        -13    1    3    3    0    0 -0.24935077356E+02  0.64221118947E+01  0.21297025765E+02  0.33415207232E+02  0.10566000000E+00 0.  1.
         23    2    1    0    0    0  0.16740002385E+02 -0.13630473026E+02 -0.20114014330E+02  0.95494220105E+02  0.90821555955E+02 0.  0.
         13    1    3    3    0    0  0.41675079741E+02 -0.20052584920E+02 -0.41411040095E+02  0.62079012872E+02  0.10566000000E+00 0. -1.
         22    1    1    0    0    0 -0.16740002385E+02  0.13630473026E+02  0.20114014330E+02  0.29505779895E+02  0.00000000000E+00 0. -1.
</event>
<event>
 5    1  0.9034917E-005  0.9118800E+02  0.7818608E-02  0.1130116E+00
         25   -1    0    0    0    0  0.00000000000E+00  0.00000000000E+00  0.99999998245E-14  0.12500000000E+03  0.12500000000E+03 0.  0.
        -13    1    3    3    0    0  0.47694955055E+02 -0.17517936831E+02 -0.34394890421E+02  0.61357204138E+02  0.10566000000E+00 0.  1.
         23    2    1    0    0    0  0.18918886618E+02 -0.69207227214E+01 -0.23840004873E+02  0.93788359444E+02  0.88442579457E+02 0.  0.
         13    1    3    3    0    0 -0.28776068437E+02  0.10597214109E+02  0.10554885548E+02  0.32431155307E+02  0.10566000000E+00 0. -1.
         22    1    1    0    0    0 -0.18918886618E+02  0.69207227214E+01  0.23840004873E+02  0.31211640556E+02  0.00000000000E+00 0.  1.
</event>
<event>
 5    1  0.9034917E-005  0.9118800E+02  0.7818608E-02  0.1130116E+00
         25   -1    0    0    0    0  0.00000000000E+00  0.00000000000E+00  0.99999998245E-14  0.12500000000E+03  0.12500000000E+03 0.  0.
        -13    1    3    3    0    0 -0.28106632617E+02 -0.46414901090E+01  0.59769099874E+01  0.29107745439E+02  0.10566000000E+00 0. -1.
         23    2    1    0    0    0  0.23440190996E+02 -0.28105298188E+02 -0.82093536010E+01  0.87493416222E+02  0.79046530951E+02 0.  0.
         13    1    3    3    0    0  0.51546823613E+02 -0.23463808079E+02 -0.14186263588E+02  0.58385670783E+02  0.10566000000E+00 0.  1.
         22    1    1    0    0    0 -0.23440190996E+02  0.28105298188E+02  0.82093536010E+01  0.37506583778E+02  0.00000000000E+00 0.  1.
</event>
<event>
 5    1  0.9034917E-005  0.9118800E+02  0.7818608E-02  0.1130116E+00
         25   -1    0    0    0    0  0.00000000000E+00  0.00000000000E+00  0.99999998245E-14  0.12500000000E+03  0.12500000000E+03 0.  0.
        -13    1    3    3    0    0  0.30239095432E+02  0.15368438845E+02 -0.86679095851E+01  0.35010507362E+02  0.10566000000E+00 0.  1.
         23    2    1    0    0    0 -0.27512364885E+02 -0.31466369044E+01  0.41551873117E+01  0.96998265644E+02  0.92868543711E+02 0.  0.
         13    1    3    3    0    0 -0.57751460317E+02 -0.18515075749E+02  0.12823096897E+02  0.61987758282E+02  0.10566000000E+00 0. -1.
         22    1    1    0    0    0  0.27512364885E+02  0.31466369044E+01 -0.41551873117E+01  0.28001734356E+02  0.00000000000E+00 0. -1.
</event>
<event>
 5    1  0.9034917E-005  0.9118800E+02  0.7818608E-02  0.1130116E+00
         25   -1    0    0    0    0  0.00000000000E+00  0.00000000000E+00  0.99999998245E-14  0.12500000000E+03  0.12500000000E+03 0.  0.
        -13    1    3    3    0    0 -0.31379830075E+02  0.56559292124E+01 -0.23171100291E+02  0.39415660892E+02  0.10566000000E+00 0.  1.
         23    2    1    0    0    0  0.24551597372E+02  0.72332277724E+01 -0.13023685475E+02  0.96282115314E+02  0.91899558369E+02 0.  0.
         13    1    3    3    0    0  0.55931427447E+02  0.15772985600E+01  0.10147414816E+02  0.56866454422E+02  0.10566000000E+00 0. -1.
         22    1    1    0    0    0 -0.24551597372E+02 -0.72332277724E+01  0.13023685475E+02  0.28717884686E+02  0.00000000000E+00 0. -1.
</event>
<event>
 5    1  0.9034917E-005  0.9118800E+02  0.7818608E-02  0.1130116E+00
         25   -1    0    0    0    0  0.00000000000E+00  0.00000000000E+00  0.99999998245E-14  0.12500000000E+03  0.12500000000E+03 0.  0.
        -13    1    3    3    0    0 -0.18987610832E+02 -0.32561538840E+02  0.41913527182E+02  0.56369655859E+02  0.10566000000E+00 0.  1.
         23    2    1    0    0    0 -0.11258344945E+01 -0.28873169911E+02  0.77714430574E+01  0.95078055357E+02  0.90246960277E+02 0.  0.
         13    1    3    3    0    0  0.17861776337E+02  0.36883689290E+01 -0.34142084125E+02  0.38708399498E+02  0.10566000000E+00 0. -1.
         22    1    1    0    0    0  0.11258344945E+01  0.28873169911E+02 -0.77714430574E+01  0.29921944643E+02  0.00000000000E+00 0.  1.
</event>
<event>
 5    1  0.9034917E-005  0.9118800E+02  0.7818608E-02  0.1130116E+00
         25   -1    0    0    0    0  0.00000000000E+00  0.00000000000E+00  0.99999998245E-14  0.12500000000E+03  0.12500000000E+03 0.  0.
        -13    1    3    3    0    0  0.17436914719E+02 -0.27655458007E+02 -0.22255995635E+02  0.39550105666E+02  0.10566000000E+00 0. -1.
         23    2    1    0    0    0 -0.19948345893E+02  0.14426689303E+02 -0.14651556836E+02  0.96351544792E+02  0.91993946529E+02 0.  0.
         13    1    3    3    0    0 -0.37385260612E+02  0.42082147310E+02  0.76044387986E+01  0.56801439125E+02  0.10566000000E+00 0.  1.
         22    1    1    0    0    0  0.19948345893E+02 -0.14426689303E+02  0.14651556836E+02  0.28648455208E+02  0.00000000000E+00 0.  1.
</event>
<event>
 5    1  0.9034917E-005  0.9118800E+02  0.7818608E-02  0.1130116E+00
         25   -1    0    0    0    0  0.00000000000E+00  0.00000000000E+00  0.99999998245E-14  0.12500000000E+03  0.12500000000E+03 0.  0.
        -13    1    3    3    0    0 -0.17133325207E+01 -0.13971536006E+02  0.47266216641E+02  0.49317803340E+02  0.10566000000E+00 0.  1.
         23    2    1    0    0    0  0.25039668048E+02 -0.11473417313E+02  0.91022604577E+01  0.95991804154E+02  0.91503830731E+02 0.  0.
         13    1    3    3    0    0  0.26753000569E+02  0.24981186939E+01 -0.38163956183E+02  0.46674000814E+02  0.10566000000E+00 0. -1.
         22    1    1    0    0    0 -0.25039668048E+02  0.11473417313E+02 -0.91022604577E+01  0.29008195846E+02  0.00000000000E+00 0. -1.
</event>
<event>
 5    1  0.9034917E-005  0.9118800E+02  0.7818608E-02  0.1130116E+00
         25   -1    0    0    0    0  0.00000000000E+00  0.00000000000E+00  0.99999998245E-14  0.12500000000E+03  0.12500000000E+03 0.  0.
        -13    1    3    3    0    0  0.14722519665E+01  0.23847255464E+02 -0.21335653974E+02  0.32032489968E+02  0.10566000000E+00 0. -1.
         23    2    1    0    0    0  0.19453231560E+02 -0.20938029666E+02  0.15261925338E+02  0.92600066829E+02  0.86746854164E+02 0.  0.
         13    1    3    3    0    0  0.17980979594E+02 -0.44785285130E+02  0.36597579312E+02  0.60567576861E+02  0.10566000000E+00 0.  1.
         22    1    1    0    0    0 -0.19453231560E+02  0.20938029666E+02 -0.15261925338E+02  0.32399933171E+02  0.00000000000E+00 0.  1.
</event>
<event>
 5    1  0.9034917E-005  0.9118800E+02  0.7818608E-02  0.1130116E+00
         25   -1    0    0    0    0  0.00000000000E+00  0.00000000000E+00  0.99999998245E-14  0.12500000000E+03  0.12500000000E+03 0.  0.
        -13    1    3    3    0    0 -0.83797519660E+01 -0.46037002016E+02  0.50437481610E+01  0.47064597706E+02  0.10566000000E+00 0. -1.
         23    2    1    0    0    0 -0.15328370979E+01 -0.11992691432E+02 -0.27689272348E+02  0.94786260732E+02  0.89841889913E+02 0.  0.
         13    1    3    3    0    0  0.68469148681E+01  0.34044310584E+02 -0.32733020509E+02  0.47721663027E+02  0.10566000000E+00 0.  1.
         22    1    1    0    0    0  0.15328370979E+01  0.11992691432E+02  0.27689272348E+02  0.30213739268E+02  0.00000000000E+00 0.  1.
</event>
<event>
 5    1  0.9034917E-005  0.9118800E+02  0.7818608E-02  0.1130116E+00
         25   -1    0    0    0    0  0.00000000000E+00  0.00000000000E+00  0.99999998245E-14  0.12500000000E+03  0.12500000000E+03 0.  0.
        -13    1    3    3    0    0  0.45789690536E+02  0.11771078315E+02 -0.17072987802E+01  0.47309407914E+02  0.10566000000E+00 0. -1.
         23    2    1    0    0    0 -0.14230762067E+01  0.19400090690E+02 -0.18654477212E+02  0.98048595867E+02  0.94271676376E+02 0.  0.
         13    1    3    3    0    0 -0.47212766742E+02  0.76290123752E+01 -0.16947178432E+02  0.50739187953E+02  0.10566000000E+00 0.  1.
         22    1    1    0    0    0  0.14230762067E+01 -0.19400090690E+02  0.18654477212E+02  0.26951404133E+02  0.00000000000E+00 0. -1.
</event>
<event>
 5    1  0.9034917E-005  0.9118800E+02  0.7818608E-02  0.1130116E+00
         25   -1    0    0    0    0  0.00000000000E+00  0.00000000000E+00  0.99999998245E-14  0.12500000000E+03  0.12500000000E+03 0.  0.
        -13    1    3    3    0    0 -0.31052618931E+02 -0.36157901642E+02 -0.39564991833E+02  0.61943996774E+02  0.10566000000E+00 0.  1.
         23    2    1    0    0    0 -0.19138857022E+02 -0.22024169386E+02 -0.16579506678E+02  0.91440501689E+02  0.85059540454E+02 0.  0.
         13    1    3    3    0    0  0.11913761909E+02  0.14133732256E+02  0.22985485155E+02  0.29496504914E+02  0.10566000000E+00 0. -1.
         22    1    1    0    0    0  0.19138857022E+02  0.22024169386E+02  0.16579506678E+02  0.33559498311E+02  0.00000000000E+00 0.  1.
</event>
<event>
 5    1  0.9034917E-005  0.9118800E+02  0.7818608E-02  0.1130116E+00
         25   -1    0    0    0    0  0.00000000000E+00  0.00000000000E+00  0.99999998245E-14  0.12500000000E+03  0.12500000000E+03 0.  0.
        -13    1    3    3    0    0 -0.39235270664E+02  0.12402040093E+02  0.27998823840E+02  0.49771099676E+02  0.10566000000E+00 0.  1.
         23    2    1    0    0    0 -0.36715112731E+02  0.17709536041E+02 -0.55769257385E+01  0.83857208768E+02  0.73070528889E+02 0.  0.
         13    1    3    3    0    0  0.25201579326E+01  0.53074959481E+01 -0.33575749579E+02  0.34086109092E+02  0.10566000000E+00 0. -1.
         22    1    1    0    0    0  0.36715112731E+02 -0.17709536041E+02  0.55769257385E+01  0.41142791232E+02  0.00000000000E+00 0.  1.
</event>
<event>
 5    1  0.9034917E-005  0.9118800E+02  0.7818608E-02  0.1130116E+00
         25   -1    0    0    0    0  0.00000000000E+00  0.00000000000E+00  0.99999998245E-14  0.12500000000E+03  0.12500000000E+03 0.  0.
        -13    1    3    3    0    0 -0.12363562703E+01 -0.34426423136E+02 -0.55155547575E+01  0.34887529220E+02  0.10566000000E+00 0.  1.
         23    2    1    0    0    0  0.14652382853E+02  0.21152677894E+02  0.13757222164E+02  0.95821424521E+02  0.91270784648E+02 0.  0.
         13    1    3    3    0    0  0.15888739123E+02  0.55579101030E+02  0.19272776921E+02  0.60933895301E+02  0.10566000000E+00 0. -1.
         22    1    1    0    0    0 -0.14652382853E+02 -0.21152677894E+02 -0.13757222164E+02  0.29178575479E+02  0.00000000000E+00 0. -1.
</event>
<event>
 5    1  0.9034917E-005  0.9118800E+02  0.7818608E-02  0.1130116E+00
         25   -1    0    0    0    0  0.00000000000E+00  0.00000000000E+00  0.99999998245E-14  0.12500000000E+03  0.12500000000E+03 0.  0.
        -13    1    3    3    0    0  0.34209401476E+02  0.20616431974E+02  0.28272343425E+02  0.48935232537E+02  0.10566000000E+00 0.  1.
         23    2    1    0    0    0  0.18512747815E+02 -0.19576639396E+02  0.64231259917E+01  0.97301205997E+02  0.93275406723E+02 0.  0.
         13    1    3    3    0    0 -0.15696653661E+02 -0.40193071370E+02 -0.21849217433E+02  0.48365973461E+02  0.10566000000E+00 0. -1.
         22    1    1    0    0    0 -0.18512747815E+02  0.19576639396E+02 -0.64231259917E+01  0.27698794003E+02  0.00000000000E+00 0. -1.
</event>
<event>
 5    1  0.9034917E-005  0.9118800E+02  0.7818608E-02  0.1130116E+00
         25   -1    0    0    0    0  0.00000000000E+00  0.00000000000E+00  0.99999998245E-14  0.12500000000E+03  0.12500000000E+03 0.  0.
        -13    1    3    3    0    0  0.31443423642E+01  0.22634466542E+02  0.27854261068E+02  0.36028835510E+02  0.10566000000E+00 0.  1.
         23    2    1    0    0    0  0.34455254970E+01  0.46588565042E+01 -0.28880453559E+02  0.95543978754E+02  0.90890014239E+02 0.  0.
         13    1    3    3    0    0  0.30118313280E+00 -0.17975610037E+02 -0.56734714627E+02  0.59515143244E+02  0.10566000000E+00 0. -1.
         22    1    1    0    0    0 -0.34455254970E+01 -0.46588565042E+01  0.28880453559E+02  0.29456021246E+02  0.00000000000E+00 0. -1.
</event>
<event>
 5    1  0.9034917E-005  0.9118800E+02  0.7818608E-02  0.1130116E+00
         25   -1    0    0    0    0  0.00000000000E+00  0.00000000000E+00  0.99999998245E-14  0.12500000000E+03  0.12500000000E+03 0.  0.
        -13    1    3    3    0    0 -0.56123968868E+02  0.18692737776E+02  0.17738355068E+02  0.61757418434E+02  0.10566000000E+00 0.  1.
         23    2    1    0    0    0 -0.28218160080E+02  0.88966947450E+01  0.17909564106E+01  0.95358420073E+02  0.90634458228E+02 0.  0.
         13    1    3    3    0    0  0.27905808788E+02 -0.97960430311E+01 -0.15947398658E+02  0.33601001639E+02  0.10566000000E+00 0. -1.
         22    1    1    0    0    0  0.28218160080E+02 -0.88966947450E+01 -0.17909564106E+01  0.29641579927E+02  0.00000000000E+00 0.  1.
</event>
<event>
 5    1  0.9034917E-005  0.9118800E+02  0.7818608E-02  0.1130116E+00
         25   -1    0    0    0    0  0.00000000000E+00  0.00000000000E+00  0.99999998245E-14  0.12500000000E+03  0.12500000000E+03 0.  0.
        -13    1    3    3    0    0  0.27314128446E+02 -0.23488679516E+02  0.25645077346E+01  0.36116028881E+02  0.10566000000E+00 0.  1.
         23    2    1    0    0    0  0.34343281273E+00  0.29368696260E+02  0.31597043572E+01  0.95459824006E+02  0.90774203393E+02 0.  0.
         13    1    3    3    0    0 -0.26970695633E+02  0.52857375776E+02  0.59519662261E+00  0.59343795126E+02  0.10566000000E+00 0. -1.
         22    1    1    0    0    0 -0.34343281273E+00 -0.29368696260E+02 -0.31597043572E+01  0.29540175994E+02  0.00000000000E+00 0. -1.
</event>
<event>
 5    1  0.9034917E-005  0.9118800E+02  0.7818608E-02  0.1130116E+00
         25   -1    0    0    0    0  0.00000000000E+00  0.00000000000E+00  0.99999998245E-14  0.12500000000E+03  0.12500000000E+03 0.  0.
        -13    1    3    3    0    0 -0.37389560650E+02  0.37421223460E+02 -0.88881484031E+01  0.53640819875E+02  0.10566000000E+00 0. -1.
         23    2    1    0    0    0 -0.11743690334E+02  0.68128229398E+01 -0.24880276815E+02  0.96656447056E+02  0.92407314451E+02 0.  0.
         13    1    3    3    0    0  0.25645870315E+02 -0.30608400520E+02 -0.15992128412E+02  0.43015627181E+02  0.10566000000E+00 0.  1.
         22    1    1    0    0    0  0.11743690334E+02 -0.68128229398E+01  0.24880276815E+02  0.28343552944E+02  0.00000000000E+00 0. -1.
</event>
<event>
 5    1  0.9034917E-005  0.9118800E+02  0.7818608E-02  0.1130116E+00
         25   -1    0    0    0    0  0.00000000000E+00  0.00000000000E+00  0.99999998245E-14  0.12500000000E+03  0.12500000000E+03 0.  0.
        -13    1    3    3    0    0  0.13113637809E+02  0.32939052084E+02  0.11632980810E+02  0.37313349559E+02  0.10566000000E+00 0.  1.
         23    2    1    0    0    0 -0.11224530067E+02 -0.21880075155E+02  0.12744004965E+02  0.97302754170E+02  0.93277481433E+02 0.  0.
         13    1    3    3    0    0 -0.24338167876E+02 -0.54819127239E+02  0.11110241558E+01  0.59989404611E+02  0.10566000000E+00 0. -1.
         22    1    1    0    0    0  0.11224530067E+02  0.21880075155E+02 -0.12744004965E+02  0.27697245830E+02  0.00000000000E+00 0. -1.
</event>
<event>
 5    1  0.9034917E-005  0.9118800E+02  0.7818608E-02  0.1130116E+00
         25   -1    0    0    0    0  0.00000000000E+00  0.00000000000E+00  0.99999998245E-14  0.12500000000E+03  0.12500000000E+03 0.  0.
        -13    1    3    3    0    0  0.39036355591E+02 -0.29681648387E+02  0.63509413608E+01  0.49448790976E+02  0.10566000000E+00 0. -1.
         23    2    1    0    0    0 -0.26781727801E+01 -0.23218658432E+02 -0.15473812054E+02  0.96969345918E+02  0.92829609928E+02 0.  0.
         13    1    3    3    0    0 -0.41714528371E+02  0.64629899551E+01 -0.21824753415E+02  0.47520554942E+02  0.10566000000E+00 0.  1.
         22    1    1    0    0    0  0.26781727801E+01  0.23218658432E+02  0.15473812054E+02  0.28030654082E+02  0.00000000000E+00 0. -1.
</event>
<event>
 5    1  0.9034917E-005  0.9118800E+02  0.7818608E-02  0.1130116E+00
         25   -1    0    0    0    0  0.00000000000E+00  0.00000000000E+00  0.99999998245E-14  0.12500000000E+03  0.12500000000E+03 0.  0.
        -13    1    3    3    0    0  0.87188117398E+01  0.33770411312E+02 -0.49216029449E+02  0.60321530792E+02  0.10566000000E+00 0.  1.
         23    2    1    0    0    0 -0.16308107148E+00  0.23860407185E+02 -0.15558192300E+02  0.96514863980E+02  0.92215595183E+02 0.  0.
         13    1    3    3    0    0 -0.88818928113E+01 -0.99100041271E+01  0.33657837148E+02  0.36193333188E+02  0.10566000000E+00 0. -1.
         22    1    1    0    0    0  0.16308107148E+00 -0.23860407185E+02  0.15558192300E+02  0.28485136020E+02  0.00000000000E+00 0.  1.
</event>
<event>
 5    1  0.9034917E-005  0.9118800E+02  0.7818608E-02  0.1130116E+00
         25   -1    0    0    0    0  0.00000000000E+00  0.00000000000E+00  0.99999998245E-14  0.12500000000E+03  0.12500000000E+03 0.  0.
        -13    1    3    3    0    0  0.46582040692E+02  0.38052150764E+02  0.33407887896E+01  0.60241387157E+02  0.10566000000E+00 0. -1.
         23    2    1    0    0    0  0.13631125057E+02  0.26161796800E+02 -0.60628299545E+00  0.95493818255E+02  0.90821002878E+02 0.  0.
         13    1    3    3    0    0 -0.32950915635E+02 -0.11890353965E+02 -0.39470717851E+01  0.35252431098E+02  0.10566000000E+00 0.  1.
         22    1    1    0    0    0 -0.13631125057E+02 -0.26161796800E+02  0.60628299545E+00  0.29506181745E+02  0.00000000000E+00 0. -1.
</event>
<event>
 5    1  0.9034917E-005  0.9118800E+02  0.7818608E-02  0.1130116E+00
         25   -1    0    0    0    0  0.00000000000E+00  0.00000000000E+00  0.99999998245E-14  0.12500000000E+03  0.12500000000E+03 0.  0.
        -13    1    3    3    0    0  0.12573741660E+02 -0.11385219032E+02  0.44316679224E+02  0.47452095984E+02  0.10566000000E+00 0.  1.
         23    2    1    0    0    0 -0.15949198766E+02  0.16985639900E+02  0.18440495550E+02  0.95285680552E+02  0.90534082742E+02 0.  0.
         13    1    3    3    0    0 -0.28522940426E+02  0.28370858932E+02 -0.25876183674E+02  0.47833584568E+02  0.10566000000E+00 0. -1.
         22    1    1    0    0    0  0.15949198766E+02 -0.16985639900E+02 -0.18440495550E+02  0.29714319448E+02  0.00000000000E+00 0.  1.
</event>
<event>
 5    1  0.9034917E-005  0.9118800E+02  0.7818608E-02  0.1130116E+00
         25   -1    0    0    0    0  0.00000000000E+00  0.00000000000E+00  0.99999998245E-14  0.12500000000E+03  0.12500000000E+03 0.  0.
        -13    1    3    3    0    0 -0.15048644150E+02  0.65217135898E+00  0.60629592020E+02  0.62472758949E+02  0.10566000000E+00 0. -1.
         23    2    1    0    0    0 -0.77778225598E+01 -0.84173623070E+00  0.33387994026E+02  0.90707709485E+02  0.83975754663E+02 0.  0.
         13    1    3    3    0    0  0.72708215906E+01 -0.14939075897E+01 -0.27241597993E+02  0.28234950536E+02  0.10566000000E+00 0.  1.
         22    1    1    0    0    0  0.77778225598E+01  0.84173623070E+00 -0.33387994026E+02  0.34292290515E+02  0.00000000000E+00 0. -1.
</event>
<event>
 5    1  0.9034917E-005  0.9118800E+02  0.7818608E-02  0.1130116E+00
         25   -1    0    0    0    0  0.00000000000E+00  0.00000000000E+00  0.99999998245E-14  0.12500000000E+03  0.12500000000E+03 0.  0.
        -13    1    3    3    0    0  0.45841088204E+02 -0.18100216417E+02 -0.24166843009E+02  0.54891444389E+02  0.10566000000E+00 0.  1.
         23    2    1    0    0    0  0.59838848437E+01 -0.22173774419E+02 -0.18810744991E+02  0.95312843233E+02  0.90571578369E+02 0.  0.
         13    1    3    3    0    0 -0.39857203360E+02 -0.40735580021E+01  0.53560980187E+01  0.40421398844E+02  0.10566000000E+00 0. -1.
         22    1    1    0    0    0 -0.59838848437E+01  0.22173774419E+02  0.18810744991E+02  0.29687156767E+02  0.00000000000E+00 0.  1.
</event>
<event>
 5    1  0.9034917E-005  0.9118800E+02  0.7818608E-02  0.1130116E+00
         25   -1    0    0    0    0  0.00000000000E+00  0.00000000000E+00  0.99999998245E-14  0.12500000000E+03  0.12500000000E+03 0.  0.
        -13    1    3    3    0    0  0.75479394573E+01  0.85153670914E+01  0.39707824627E+02  0.41306238844E+02  0.10566000000E+00 0. -1.
         23    2    1    0    0    0 -0.20213139572E+02  0.23944873914E+02 -0.18482261074E+01  0.93609811440E+02  0.88189868239E+02 0.  0.
         13    1    3    3    0    0 -0.27761079029E+02  0.15429506823E+02 -0.41556050735E+02  0.52303572596E+02  0.10566000000E+00 0.  1.
         22    1    1    0    0    0  0.20213139572E+02 -0.23944873914E+02  0.18482261074E+01  0.31390188560E+02  0.00000000000E+00 0. -1.
</event>
<event>
 5    1  0.9034917E-005  0.9118800E+02  0.7818608E-02  0.1130116E+00
         25   -1    0    0    0    0  0.00000000000E+00  0.00000000000E+00  0.99999998245E-14  0.12500000000E+03  0.12500000000E+03 0.  0.
        -13    1    3    3    0    0  0.52244459711E+02  0.20261209100E+01  0.56755554062E+01  0.52590986202E+02  0.10566000000E+00 0.  1.
         23    2    1    0    0    0  0.17188893934E+02 -0.15957466269E+02 -0.15073197225E+02  0.97119898153E+02  0.93032115628E+02 0.  0.
         13    1    3    3    0    0 -0.35055565777E+02 -0.17983587179E+02 -0.20748752632E+02  0.44528911951E+02  0.10566000000E+00 0. -1.
         22    1    1    0    0    0 -0.17188893934E+02  0.15957466269E+02  0.15073197225E+02  0.27880101847E+02  0.00000000000E+00 0.  1.
</event>
<event>
 5    1  0.9034917E-005  0.9118800E+02  0.7818608E-02  0.1130116E+00
         25   -1    0    0    0    0  0.00000000000E+00  0.00000000000E+00  0.99999998245E-14  0.12500000000E+03  0.12500000000E+03 0.  0.
        -13    1    3    3    0    0 -0.36462178463E+02  0.34442698590E+02 -0.44670933257E+01  0.50356290880E+02  0.10566000000E+00 0.  1.
         23    2    1    0    0    0  0.68441242813E+01  0.25976567038E+02 -0.12768842263E+02  0.95256640993E+02  0.90493979072E+02 0.  0.
         13    1    3    3    0    0  0.43306302744E+02 -0.84661315519E+01 -0.83017489374E+01  0.44900350113E+02  0.10566000000E+00 0. -1.
         22    1    1    0    0    0 -0.68441242813E+01 -0.25976567038E+02  0.12768842263E+02  0.29743359007E+02  0.00000000000E+00 0.  1.
</event>
<event>
 5    1  0.9034917E-005  0.9118800E+02  0.7818608E-02  0.1130116E+00
         25   -1    0    0    0    0  0.00000000000E+00  0.00000000000E+00  0.99999998245E-14  0.12500000000E+03  0.12500000000E+03 0.  0.
        -13    1    3    3    0    0 -0.10208894304E+02  0.23055540579E+02 -0.35044382277E+02  0.43172900847E+02  0.10566000000E+00 0.  1.
         23    2    1    0    0    0  0.13014965181E+01 -0.24664190046E+02 -0.14262818753E+02  0.96479057474E+02  0.92167046000E+02 0.  0.
         13    1    3    3    0    0  0.11510390822E+02 -0.47719730625E+02  0.20781563524E+02  0.53306156627E+02  0.10566000000E+00 0. -1.
         22    1    1    0    0    0 -0.13014965181E+01  0.24664190046E+02  0.14262818753E+02  0.28520942526E+02  0.00000000000E+00 0. -1.
</event>
<event>
 5    1  0.9034917E-005  0.9118800E+02  0.7818608E-02  0.1130116E+00
         25   -1    0    0    0    0  0.00000000000E+00  0.00000000000E+00  0.99999998245E-14  0.12500000000E+03  0.12500000000E+03 0.  0.
        -13    1    3    3    0    0  0.12867078496E+02  0.10258894607E+02 -0.37634299792E+02  0.41075032714E+02  0.10566000000E+00 0. -1.
         23    2    1    0    0    0 -0.82446719153E+01  0.27453960477E+02  0.88955871287E+01  0.94986235971E+02  0.90119692591E+02 0.  0.
         13    1    3    3    0    0 -0.21111750411E+02  0.17195065869E+02  0.46529886921E+02  0.53911203257E+02  0.10566000000E+00 0.  1.
         22    1    1    0    0    0  0.82446719153E+01 -0.27453960477E+02 -0.88955871287E+01  0.30013764029E+02  0.00000000000E+00 0.  1.
</event>
<event>
 5    1  0.9034917E-005  0.9118800E+02  0.7818608E-02  0.1130116E+00
         25   -1    0    0    0    0  0.00000000000E+00  0.00000000000E+00  0.99999998245E-14  0.12500000000E+03  0.12500000000E+03 0.  0.
        -13    1    3    3    0    0  0.13542809505E+02  0.43606247359E+02  0.22855035680E+02  0.51061495454E+02  0.10566000000E+00 0. -1.
         23    2    1    0    0    0 -0.17969761825E+02  0.68002500100E+01  0.15998898496E+02  0.99997590250E+02  0.96821472631E+02 0.  0.
         13    1    3    3    0    0 -0.31512571331E+02 -0.36805997349E+02 -0.68561371845E+01  0.48936094796E+02  0.10566000000E+00 0.  1.
         22    1    1    0    0    0  0.17969761825E+02 -0.68002500100E+01 -0.15998898496E+02  0.25002409750E+02  0.00000000000E+00 0. -1.
</event>
<event>
 5    1  0.9034917E-005  0.9118800E+02  0.7818608E-02  0.1130116E+00
         25   -1    0    0    0    0  0.00000000000E+00  0.00000000000E+00  0.99999998245E-14  0.12500000000E+03  0.12500000000E+03 0.  0.
        -13    1    3    3    0    0  0.45856481837E+01 -0.57610531812E+02  0.19430428766E+02  0.60971749778E+02  0.10566000000E+00 0.  1.
         23    2    1    0    0    0 -0.28843693254E+01 -0.28610162829E+02  0.81482082430E+00  0.96233266843E+02  0.91833091589E+02 0.  0.
         13    1    3    3    0    0 -0.74700175091E+01  0.29000368982E+02 -0.18615607942E+02  0.35261517066E+02  0.10566000000E+00 0. -1.
         22    1    1    0    0    0  0.28843693254E+01  0.28610162829E+02 -0.81482082430E+00  0.28766733157E+02  0.00000000000E+00 0.  1.
</event>
<event>
 5    1  0.9034917E-005  0.9118800E+02  0.7818608E-02  0.1130116E+00
         25   -1    0    0    0    0  0.00000000000E+00  0.00000000000E+00  0.99999998245E-14  0.12500000000E+03  0.12500000000E+03 0.  0.
        -13    1    3    3    0    0 -0.77983861398E+01  0.33293343646E+02 -0.36175692836E+02  0.49779046533E+02  0.10566000000E+00 0. -1.
         23    2    1    0    0    0  0.21128714316E+02  0.19623233031E+02 -0.27751683104E+01  0.96031130461E+02  0.91557537184E+02 0.  0.
         13    1    3    3    0    0  0.28927100456E+02 -0.13670110615E+02  0.33400524526E+02  0.46252083928E+02  0.10566000000E+00 0.  1.
         22    1    1    0    0    0 -0.21128714316E+02 -0.19623233031E+02  0.27751683104E+01  0.28968869539E+02  0.00000000000E+00 0.  1.
</event>
<event>
 5    1  0.9034917E-005  0.9118800E+02  0.7818608E-02  0.1130116E+00
         25   -1    0    0    0    0  0.00000000000E+00  0.00000000000E+00  0.99999998245E-14  0.12500000000E+03  0.12500000000E+03 0.  0.
        -13    1    3    3    0    0 -0.37487158563E+02  0.20985953748E+02  0.35497805820E+01  0.43108113135E+02  0.10566000000E+00 0.  1.
         23    2    1    0    0    0 -0.92527565870E+01 -0.14476639573E+02 -0.23495464308E+02  0.95892897072E+02  0.91368617523E+02 0.  0.
         13    1    3    3    0    0  0.28234401976E+02 -0.35462593321E+02 -0.27045244890E+02  0.52784783937E+02  0.10566000000E+00 0. -1.
         22    1    1    0    0    0  0.92527565870E+01  0.14476639573E+02  0.23495464308E+02  0.29107102928E+02  0.00000000000E+00 0. -1.
</event>
<event>
 5    1  0.9034917E-005  0.9118800E+02  0.7818608E-02  0.1130116E+00
         25   -1    0    0    0    0  0.00000000000E+00  0.00000000000E+00  0.99999998245E-14  0.12500000000E+03  0.12500000000E+03 0.  0.
        -13    1    3    3    0    0 -0.23804414888E+02 -0.25646708048E+02 -0.13506589719E+02  0.37507904923E+02  0.10566000000E+00 0. -1.
         23    2    1    0    0    0  0.27664280082E+02  0.12546818748E+01 -0.95078614318E+01  0.95720552463E+02  0.91132530502E+02 0.  0.
         13    1    3    3    0    0  0.51468694969E+02  0.26901389923E+02  0.39987282872E+01  0.58212647540E+02  0.10566000000E+00 0.  1.
         22    1    1    0    0    0 -0.27664280082E+02 -0.12546818748E+01  0.95078614318E+01  0.29279447537E+02  0.00000000000E+00 0.  1.
</event>
<event>
 5    1  0.9034917E-005  0.9118800E+02  0.7818608E-02  0.1130116E+00
         25   -1    0    0    0    0  0.00000000000E+00  0.00000000000E+00  0.99999998245E-14  0.12500000000E+03  0.12500000000E+03 0.  0.
        -13    1    3    3    0    0 -0.55850498673E+01 -0.17695725681E+02 -0.29051693794E+02  0.34472359445E+02  0.10566000000E+00 0.  1.
         23    2    1    0    0    0 -0.11305799510E+02  0.24059888741E+02  0.14198950072E+02  0.94861826002E+02  0.89946964932E+02 0.  0.
         13    1    3    3    0    0 -0.57207496423E+01  0.41755614422E+02  0.43250643866E+02  0.60389466557E+02  0.10566000000E+00 0. -1.
         22    1    1    0    0    0  0.11305799510E+02 -0.24059888741E+02 -0.14198950072E+02  0.30138173998E+02  0.00000000000E+00 0. -1.
</event>
<event>
 5    1  0.9034917E-005  0.9118800E+02  0.7818608E-02  0.1130116E+00
         25   -1    0    0    0    0  0.00000000000E+00  0.00000000000E+00  0.99999998245E-14  0.12500000000E+03  0.12500000000E+03 0.  0.
        -13    1    3    3    0    0  0.75782853370E+01  0.41946936215E+02  0.22900126668E+02  0.48388044307E+02  0.10566000000E+00 0. -1.
         23    2    1    0    0    0 -0.67159873177E+01 -0.30952513815E+01  0.28112915342E+02  0.95930753780E+02  0.91420394032E+02 0.  0.
         13    1    3    3    0    0 -0.14294272655E+02 -0.45042187596E+02  0.52127886746E+01  0.47542709473E+02  0.10566000000E+00 0.  1.
         22    1    1    0    0    0  0.67159873177E+01  0.30952513815E+01 -0.28112915342E+02  0.29069246220E+02  0.00000000000E+00 0.  1.
</event>
<event>
 5    1  0.9034917E-005  0.9118800E+02  0.7818608E-02  0.1130116E+00
         25   -1    0    0    0    0  0.00000000000E+00  0.00000000000E+00  0.99999998245E-14  0.12500000000E+03  0.12500000000E+03 0.  0.
        -13    1    3    3    0    0 -0.25657964971E+02 -0.13520892738E+02  0.50067142042E+02  0.57860829437E+02  0.10566000000E+00 0.  1.
         23    2    1    0    0    0 -0.37015071150E+01 -0.20873556752E+02  0.19599443355E+02  0.96128825687E+02  0.91690819725E+02 0.  0.
         13    1    3    3    0    0  0.21956457856E+02 -0.73526640137E+01 -0.30467698687E+02  0.38267996250E+02  0.10566000000E+00 0. -1.
         22    1    1    0    0    0  0.37015071150E+01  0.20873556752E+02 -0.19599443355E+02  0.28871174313E+02  0.00000000000E+00 0.  1.
</event>
<event>
 5    1  0.9034917E-005  0.9118800E+02  0.7818608E-02  0.1130116E+00
         25   -1    0    0    0    0  0.00000000000E+00  0.00000000000E+00  0.99999998245E-14  0.12500000000E+03  0.12500000000E+03 0.  0.
        -13    1    3    3    0    0  0.27990455506E+02 -0.39310483164E+02  0.33366864815E+02  0.58669741074E+02  0.10566000000E+00 0.  1.
         23    2    1    0    0    0  0.99246745938E+01 -0.88843109599E+01  0.27371286916E+02  0.94559607518E+02  0.89525984381E+02 0.  0.
         13    1    3    3    0    0 -0.18065780912E+02  0.30426172204E+02 -0.59955778990E+01  0.35889866444E+02  0.10566000000E+00 0. -1.
         22    1    1    0    0    0 -0.99246745938E+01  0.88843109599E+01 -0.27371286916E+02  0.30440392482E+02  0.00000000000E+00 0.  1.
</event>
<event>
 5    1  0.9034917E-005  0.9118800E+02  0.7818608E-02  0.1130116E+00
         25   -1    0    0    0    0  0.00000000000E+00  0.00000000000E+00  0.99999998245E-14  0.12500000000E+03  0.12500000000E+03 0.  0.
        -13    1    3    3    0    0 -0.11437259654E+02  0.57992189951E+02 -0.28672138591E+01  0.59178856723E+02  0.10566000000E+00 0.  1.
         23    2    1    0    0    0  0.76418034094E+01  0.26215133322E+02 -0.78760013190E+01  0.96580609240E+02  0.92304671116E+02 0.  0.
         13    1    3    3    0    0  0.19079063063E+02 -0.31777056630E+02 -0.50087874598E+01  0.37401752516E+02  0.10566000000E+00 0. -1.
         22    1    1    0    0    0 -0.76418034094E+01 -0.26215133322E+02  0.78760013190E+01  0.28419390760E+02  0.00000000000E+00 0.  1.
</event>
<event>
 5    1  0.9034917E-005  0.9118800E+02  0.7818608E-02  0.1130116E+00
         25   -1    0    0    0    0  0.00000000000E+00  0.00000000000E+00  0.99999998245E-14  0.12500000000E+03  0.12500000000E+03 0.  0.
        -13    1    3    3    0    0  0.24305938358E+02  0.20239982759E+02 -0.28061468527E+02  0.42283480480E+02  0.10566000000E+00 0.  1.
         23    2    1    0    0    0 -0.24191832207E+02 -0.15624466642E+01 -0.12707579809E+02  0.97629056105E+02  0.93713734459E+02 0.  0.
         13    1    3    3    0    0 -0.48497770565E+02 -0.21802429424E+02  0.15353888718E+02  0.55345575626E+02  0.10566000000E+00 0. -1.
         22    1    1    0    0    0  0.24191832207E+02  0.15624466642E+01  0.12707579809E+02  0.27370943895E+02  0.00000000000E+00 0. -1.
</event>
<event>
 5    1  0.9034917E-005  0.9118800E+02  0.7818608E-02  0.1130116E+00
         25   -1    0    0    0    0  0.00000000000E+00  0.00000000000E+00  0.99999998245E-14  0.12500000000E+03  0.12500000000E+03 0.  0.
        -13    1    3    3    0    0  0.44530275834E+02  0.41004626311E+02  0.12543536802E+02  0.61819708219E+02  0.10566000000E+00 0. -1.
         23    2    1    0    0    0  0.16000628198E+02  0.21162761172E+02  0.99396477409E+01  0.96668407027E+02  0.92423491369E+02 0.  0.
         13    1    3    3    0    0 -0.28529647635E+02 -0.19841865139E+02 -0.26038890607E+01  0.34848698809E+02  0.10566000000E+00 0.  1.
         22    1    1    0    0    0 -0.16000628198E+02 -0.21162761172E+02 -0.99396477409E+01  0.28331592973E+02  0.00000000000E+00 0. -1.
</event>
<event>
 5    1  0.9034917E-005  0.9118800E+02  0.7818608E-02  0.1130116E+00
         25   -1    0    0    0    0  0.00000000000E+00  0.00000000000E+00  0.99999998245E-14  0.12500000000E+03  0.12500000000E+03 0.  0.
        -13    1    3    3    0    0  0.32432303313E+02 -0.29235798458E+01 -0.13378123291E+02  0.35204928122E+02  0.10566000000E+00 0.  1.
         23    2    1    0    0    0 -0.27011390180E+02 -0.14262148508E+01 -0.13723918310E+02  0.94668576987E+02  0.89678003137E+02 0.  0.
         13    1    3    3    0    0 -0.59443693493E+02  0.14973649950E+01 -0.34579501898E+00  0.59463648864E+02  0.10566000000E+00 0. -1.
         22    1    1    0    0    0  0.27011390180E+02  0.14262148508E+01  0.13723918310E+02  0.30331423013E+02  0.00000000000E+00 0. -1.
</event>
<event>
 5    1  0.9034917E-005  0.9118800E+02  0.7818608E-02  0.1130116E+00
         25   -1    0    0    0    0  0.00000000000E+00  0.00000000000E+00  0.99999998245E-14  0.12500000000E+03  0.12500000000E+03 0.  0.
        -13    1    3    3    0    0 -0.76255070283E+01 -0.16338958190E+02 -0.33930485546E+02  0.38423936883E+02  0.10566000000E+00 0. -1.
         23    2    1    0    0    0  0.25687996350E+02  0.14321702454E+02  0.94468680297E+00  0.95574216225E+02  0.90931589979E+02 0.  0.
         13    1    3    3    0    0  0.33313503378E+02  0.30660660644E+02  0.34875172349E+02  0.57150279342E+02  0.10566000000E+00 0.  1.
         22    1    1    0    0    0 -0.25687996350E+02 -0.14321702454E+02 -0.94468680297E+00  0.29425783775E+02  0.00000000000E+00 0.  1.
</event>
<event>
 5    1  0.9034917E-005  0.9118800E+02  0.7818608E-02  0.1130116E+00
         25   -1    0    0    0    0  0.00000000000E+00  0.00000000000E+00  0.99999998245E-14  0.12500000000E+03  0.12500000000E+03 0.  0.
        -13    1    3    3    0    0  0.20870666109E+02  0.71104052268E+00  0.36287676356E+02  0.41867611609E+02  0.10566000000E+00 0. -1.
         23    2    1    0    0    0  0.14957540039E+02  0.12192000571E+02 -0.18566457140E+02  0.98221534535E+02  0.94500707055E+02 0.  0.
         13    1    3    3    0    0 -0.59131260706E+01  0.11480960048E+02 -0.54854133496E+02  0.56353922926E+02  0.10566000000E+00 0.  1.
         22    1    1    0    0    0 -0.14957540039E+02 -0.12192000571E+02  0.18566457140E+02  0.26778465465E+02  0.00000000000E+00 0. -1.
</event>
<event>
 5    1  0.9034917E-005  0.9118800E+02  0.7818608E-02  0.1130116E+00
         25   -1    0    0    0    0  0.00000000000E+00  0.00000000000E+00  0.99999998245E-14  0.12500000000E+03  0.12500000000E+03 0.  0.
        -13    1    3    3    0    0 -0.15236322112E+02  0.53043771032E+02 -0.23060878726E+02  0.59813062523E+02  0.10566000000E+00 0.  1.
         23    2    1    0    0    0 -0.12227170525E+02  0.26901739092E+02  0.94807964382E+00  0.95434714271E+02  0.90739619614E+02 0.  0.
         13    1    3    3    0    0  0.30091515863E+01 -0.26142031940E+02  0.24008958370E+02  0.35621651748E+02  0.10566000000E+00 0. -1.
         22    1    1    0    0    0  0.12227170525E+02 -0.26901739092E+02 -0.94807964382E+00  0.29565285729E+02  0.00000000000E+00 0.  1.
</event>
<event>
 5    1  0.9034917E-005  0.9118800E+02  0.7818608E-02  0.1130116E+00
         25   -1    0    0    0    0  0.00000000000E+00  0.00000000000E+00  0.99999998245E-14  0.12500000000E+03  0.12500000000E+03 0.  0.
        -13    1    3    3    0    0  0.50658420638E+02  0.42140496513E+01 -0.91181167701E+01  0.51644796577E+02  0.10566000000E+00 0. -1.
         23    2    1    0    0    0  0.15937350011E+02 -0.16792480507E+02  0.13597204280E+02  0.98150968524E+02  0.94407320325E+02 0.  0.
         13    1    3    3    0    0 -0.34721070627E+02 -0.21006530159E+02  0.22715321050E+02  0.46506171947E+02  0.10566000000E+00 0.  1.
         22    1    1    0    0    0 -0.15937350011E+02  0.16792480507E+02 -0.13597204280E+02  0.26849031476E+02  0.00000000000E+00 0. -1.
</event>
<event>
 5    1  0.9034917E-005  0.9118800E+02  0.7818608E-02  0.1130116E+00
         25   -1    0    0    0    0  0.00000000000E+00  0.00000000000E+00  0.99999998245E-14  0.12500000000E+03  0.12500000000E+03 0.  0.
        -13    1    3    3    0    0  0.19664630399E+02  0.38365525009E+02 -0.11982169750E+02  0.44745890916E+02  0.10566000000E+00 0.  1.
         23    2    1    0    0    0 -0.19030373321E+02  0.10968433673E+02 -0.22762107603E+02  0.93368130177E+02  0.87846642191E+02 0.  0.
         13    1    3    3    0    0 -0.38695003720E+02 -0.27397091336E+02 -0.10779937853E+02  0.48622239261E+02  0.10566000000E+00 0. -1.
         22    1    1    0    0    0  0.19030373321E+02 -0.10968433673E+02  0.22762107603E+02  0.31631869823E+02  0.00000000000E+00 0.  1.
</event>
<event>
 5    1  0.9034917E-005  0.9118800E+02  0.7818608E-02  0.1130116E+00
         25   -1    0    0    0    0  0.00000000000E+00  0.00000000000E+00  0.99999998245E-14  0.12500000000E+03  0.12500000000E+03 0.  0.
        -13    1    3    3    0    0  0.48882291195E+02  0.12395384317E+02 -0.10006989073E+02  0.51412789646E+02  0.10566000000E+00 0. -1.
         23    2    1    0    0    0  0.16095344691E+02 -0.19610278280E+02 -0.11248585724E+02  0.97248354720E+02  0.93204552894E+02 0.  0.
         13    1    3    3    0    0 -0.32786946505E+02 -0.32005662598E+02 -0.12415966508E+01  0.45835565074E+02  0.10566000000E+00 0.  1.
         22    1    1    0    0    0 -0.16095344691E+02  0.19610278280E+02  0.11248585724E+02  0.27751645280E+02  0.00000000000E+00 0. -1.
</event>
<event>
 5    1  0.9034917E-005  0.9118800E+02  0.7818608E-02  0.1130116E+00
         25   -1    0    0    0    0  0.00000000000E+00  0.00000000000E+00  0.99999998245E-14  0.12500000000E+03  0.12500000000E+03 0.  0.
        -13    1    3    3    0    0 -0.29621056587E+02 -0.95011182013E+01 -0.17327211163E+02  0.35607887485E+02  0.10566000000E+00 0. -1.
         23    2    1    0    0    0  0.14970707280E+02  0.23996987480E+02  0.60413387532E+01  0.96078117998E+02  0.91621665012E+02 0.  0.
         13    1    3    3    0    0  0.44591763868E+02  0.33498105681E+02  0.23368549916E+02  0.60470230513E+02  0.10566000000E+00 0.  1.
         22    1    1    0    0    0 -0.14970707280E+02 -0.23996987480E+02 -0.60413387532E+01  0.28921882002E+02  0.00000000000E+00 0.  1.
</event>
<event>
 5    1  0.9034917E-005  0.9118800E+02  0.7818608E-02  0.1130116E+00
         25   -1    0    0    0    0  0.00000000000E+00  0.00000000000E+00  0.99999998245E-14  0.12500000000E+03  0.12500000000E+03 0.  0.
        -13    1    3    3    0    0  0.36729932918E+02 -0.50254032291E+01  0.45581761766E+00  0.37075080358E+02  0.10566000000E+00 0.  1.
         23    2    1    0    0    0 -0.21586387020E+02 -0.54092165159E+01 -0.15907889713E+02  0.97645061086E+02  0.93735080260E+02 0.  0.
         13    1    3    3    0    0 -0.58316319938E+02 -0.38381328672E+00 -0.16363707331E+02  0.60569980728E+02  0.10566000000E+00 0. -1.
         22    1    1    0    0    0  0.21586387020E+02  0.54092165159E+01  0.15907889713E+02  0.27354938914E+02  0.00000000000E+00 0. -1.
</event>
<event>
 5    1  0.9034917E-005  0.9118800E+02  0.7818608E-02  0.1130116E+00
         25   -1    0    0    0    0  0.00000000000E+00  0.00000000000E+00  0.99999998245E-14  0.12500000000E+03  0.12500000000E+03 0.  0.
        -13    1    3    3    0    0 -0.23811747141E+02 -0.82009736341E+01 -0.22237778704E+02  0.33597399247E+02  0.10566000000E+00 0. -1.
         23    2    1    0    0    0  0.26259821625E+02  0.10189530934E+02  0.90204282389E+01  0.95423440057E+02  0.90724087288E+02 0.  0.
         13    1    3    3    0    0  0.50071568766E+02  0.18390504568E+02  0.31258206943E+02  0.61826040810E+02  0.10566000000E+00 0.  1.
         22    1    1    0    0    0 -0.26259821625E+02 -0.10189530934E+02 -0.90204282389E+01  0.29576559943E+02  0.00000000000E+00 0.  1.
</event>
<event>
 5    1  0.9034917E-005  0.9118800E+02  0.7818608E-02  0.1130116E+00
         25   -1    0    0    0    0  0.00000000000E+00  0.00000000000E+00  0.99999998245E-14  0.12500000000E+03  0.12500000000E+03 0.  0.
        -13    1    3    3    0    0  0.30702935460E+02 -0.20361480651E+02 -0.97555057780E+00  0.36854077158E+02  0.10566000000E+00 0.  1.
         23    2    1    0    0    0 -0.13952785896E+02  0.18157204361E+02 -0.15196075437E+02  0.97517550816E+02  0.93564884994E+02 0.  0.
         13    1    3    3    0    0 -0.44655721356E+02  0.38518685012E+02 -0.14220524860E+02  0.60663473658E+02  0.10566000000E+00 0. -1.
         22    1    1    0    0    0  0.13952785896E+02 -0.18157204361E+02  0.15196075437E+02  0.27482449184E+02  0.00000000000E+00 0. -1.
</event>
<event>
 5    1  0.9034917E-005  0.9118800E+02  0.7818608E-02  0.1130116E+00
         25   -1    0    0    0    0  0.00000000000E+00  0.00000000000E+00  0.99999998245E-14  0.12500000000E+03  0.12500000000E+03 0.  0.
        -13    1    3    3    0    0 -0.27938187470E+02  0.87286969994E+01  0.52588259567E+02  0.60185286232E+02  0.10566000000E+00 0.  1.
         23    2    1    0    0    0 -0.20793286105E+02 -0.35370851907E+01  0.19151832941E+02  0.96510275121E+02  0.92209374687E+02 0.  0.
         13    1    3    3    0    0  0.71449013652E+01 -0.12265782190E+02 -0.33436426626E+02  0.36324988889E+02  0.10566000000E+00 0. -1.
         22    1    1    0    0    0  0.20793286105E+02  0.35370851907E+01 -0.19151832941E+02  0.28489724879E+02  0.00000000000E+00 0.  1.
</event>
<event>
 5    1  0.9034917E-005  0.9118800E+02  0.7818608E-02  0.1130116E+00
         25   -1    0    0    0    0  0.00000000000E+00  0.00000000000E+00  0.99999998245E-14  0.12500000000E+03  0.12500000000E+03 0.  0.
        -13    1    3    3    0    0  0.48186981538E+02  0.10112393411E+01  0.21972050005E+02  0.52969707760E+02  0.10566000000E+00 0. -1.
         23    2    1    0    0    0  0.32902160560E+02  0.12459440313E+02 -0.83834646120E+01  0.88832717806E+02  0.81136794683E+02 0.  0.
         13    1    3    3    0    0 -0.15284820978E+02  0.11448200972E+02 -0.30355514617E+02  0.35863010046E+02  0.10566000000E+00 0.  1.
         22    1    1    0    0    0 -0.32902160560E+02 -0.12459440313E+02  0.83834646120E+01  0.36167282194E+02  0.00000000000E+00 0. -1.
</event>
<event>
 5    1  0.9034917E-005  0.9118800E+02  0.7818608E-02  0.1130116E+00
         25   -1    0    0    0    0  0.00000000000E+00  0.00000000000E+00  0.99999998245E-14  0.12500000000E+03  0.12500000000E+03 0.  0.
        -13    1    3    3    0    0 -0.24435144507E+02  0.51352341223E+01  0.37706451939E+02  0.45224270015E+02  0.10566000000E+00 0.  1.
         23    2    1    0    0    0  0.20181537106E+02 -0.97449534102E+01  0.18151133795E+02  0.96160405430E+02  0.91733861564E+02 0.  0.
         13    1    3    3    0    0  0.44616681614E+02 -0.14880187532E+02 -0.19555318144E+02  0.50936135414E+02  0.10566000000E+00 0. -1.
         22    1    1    0    0    0 -0.20181537106E+02  0.97449534102E+01 -0.18151133795E+02  0.28839594570E+02  0.00000000000E+00 0. -1.
</event>
<event>
 5    1  0.9034917E-005  0.9118800E+02  0.7818608E-02  0.1130116E+00
         25   -1    0    0    0    0  0.00000000000E+00  0.00000000000E+00  0.99999998245E-14  0.12500000000E+03  0.12500000000E+03 0.  0.
        -13    1    3    3    0    0 -0.10854224745E+02 -0.22900034104E+02 -0.20652126318E+02  0.32691699899E+02  0.10566000000E+00 0. -1.
         23    2    1    0    0    0  0.76856226222E+01  0.17650075633E+02  0.22943168888E+02  0.95050326152E+02  0.90208544707E+02 0.  0.
         13    1    3    3    0    0  0.18539847368E+02  0.40550109737E+02  0.43595295206E+02  0.62358626254E+02  0.10566000000E+00 0.  1.
         22    1    1    0    0    0 -0.76856226222E+01 -0.17650075633E+02 -0.22943168888E+02  0.29949673848E+02  0.00000000000E+00 0.  1.
</event>
<event>
 5    1  0.9034917E-005  0.9118800E+02  0.7818608E-02  0.1130116E+00
         25   -1    0    0    0    0  0.00000000000E+00  0.00000000000E+00  0.99999998245E-14  0.12500000000E+03  0.12500000000E+03 0.  0.
        -13    1    3    3    0    0 -0.12832479266E+02 -0.53557380782E+02  0.92187974504E+01  0.55839618111E+02  0.10566000000E+00 0.  1.
         23    2    1    0    0    0  0.12508761834E+02 -0.26768762745E+02 -0.43536884910E+01  0.95133791922E+02  0.90324127344E+02 0.  0.
         13    1    3    3    0    0  0.25341241100E+02  0.26788618037E+02 -0.13572485941E+02  0.39294173811E+02  0.10566000000E+00 0. -1.
         22    1    1    0    0    0 -0.12508761834E+02  0.26768762745E+02  0.43536884910E+01  0.29866208078E+02  0.00000000000E+00 0.  1.
</event>
<event>
 5    1  0.9034917E-005  0.9118800E+02  0.7818608E-02  0.1130116E+00
         25   -1    0    0    0    0  0.00000000000E+00  0.00000000000E+00  0.99999998245E-14  0.12500000000E+03  0.12500000000E+03 0.  0.
        -13    1    3    3    0    0  0.53050665366E+02 -0.12998699769E+02  0.11948750477E+02  0.55911743788E+02  0.10566000000E+00 0. -1.
         23    2    1    0    0    0  0.15527039983E+02 -0.24077577342E+02  0.81076631556E+01  0.95224961744E+02  0.90450209707E+02 0.  0.
         13    1    3    3    0    0 -0.37523625383E+02 -0.11078877574E+02 -0.38410873219E+01  0.39313217956E+02  0.10566000000E+00 0.  1.
         22    1    1    0    0    0 -0.15527039983E+02  0.24077577342E+02 -0.81076631556E+01  0.29775038256E+02  0.00000000000E+00 0.  1.
</event>
<event>
 5    1  0.9034917E-005  0.9118800E+02  0.7818608E-02  0.1130116E+00
         25   -1    0    0    0    0  0.00000000000E+00  0.00000000000E+00  0.99999998245E-14  0.12500000000E+03  0.12500000000E+03 0.  0.
        -13    1    3    3    0    0  0.14563817346E+02 -0.50015949133E+02  0.23471348057E+02  0.57136812013E+02  0.10566000000E+00 0.  1.
         23    2    1    0    0    0 -0.65764217948E+01 -0.17348720095E+02  0.22199007177E+02  0.96068644481E+02  0.91608739322E+02 0.  0.
         13    1    3    3    0    0 -0.21140239141E+02  0.32667229038E+02 -0.12723408808E+01  0.38931832468E+02  0.10566000000E+00 0. -1.
         22    1    1    0    0    0  0.65764217948E+01  0.17348720095E+02 -0.22199007177E+02  0.28931355519E+02  0.00000000000E+00 0.  1.
</event>
<event>
 5    1  0.9034917E-005  0.9118800E+02  0.7818608E-02  0.1130116E+00
         25   -1    0    0    0    0  0.00000000000E+00  0.00000000000E+00  0.99999998245E-14  0.12500000000E+03  0.12500000000E+03 0.  0.
        -13    1    3    3    0    0 -0.15720506595E+02 -0.29081183121E+02 -0.58423788341E+01  0.33570732697E+02  0.10566000000E+00 0. -1.
         23    2    1    0    0    0  0.12800719919E+02  0.23157831964E+02  0.12339630905E+02  0.95803936865E+02  0.91246831267E+02 0.  0.
         13    1    3    3    0    0  0.28521226514E+02  0.52239015085E+02  0.18182009739E+02  0.62233204168E+02  0.10566000000E+00 0.  1.
         22    1    1    0    0    0 -0.12800719919E+02 -0.23157831964E+02 -0.12339630905E+02  0.29196063135E+02  0.00000000000E+00 0.  1.
</event>
<event>
 5    1  0.9034917E-005  0.9118800E+02  0.7818608E-02  0.1130116E+00
         25   -1    0    0    0    0  0.00000000000E+00  0.00000000000E+00  0.99999998245E-14  0.12500000000E+03  0.12500000000E+03 0.  0.
        -13    1    3    3    0    0  0.29130107148E+02  0.94164256131E+01  0.41445185328E+02  0.51526175529E+02  0.10566000000E+00 0.  1.
         23    2    1    0    0    0  0.23801628243E+02  0.13662874846E+02 -0.38108229021E+01  0.97292347135E+02  0.93263534052E+02 0.  0.
         13    1    3    3    0    0 -0.53284789053E+01  0.42464492331E+01 -0.45256008230E+02  0.45766171606E+02  0.10566000000E+00 0. -1.
         22    1    1    0    0    0 -0.23801628243E+02 -0.13662874846E+02  0.38108229021E+01  0.27707652865E+02  0.00000000000E+00 0.  1.
</event>
<event>
 5    1  0.9034917E-005  0.9118800E+02  0.7818608E-02  0.1130116E+00
         25   -1    0    0    0    0  0.00000000000E+00  0.00000000000E+00  0.99999998245E-14  0.12500000000E+03  0.12500000000E+03 0.  0.
        -13    1    3    3    0    0 -0.10056127397E+02  0.37358428314E+02 -0.80426697896E+01  0.39515485138E+02  0.10566000000E+00 0. -1.
         23    2    1    0    0    0  0.30769320316E+02  0.10248410245E+02  0.89021766747E+01  0.91369214478E+02  0.84954715111E+02 0.  0.
         13    1    3    3    0    0  0.40825447713E+02 -0.27110018069E+02  0.16944846464E+02  0.51853729340E+02  0.10566000000E+00 0.  1.
         22    1    1    0    0    0 -0.30769320316E+02 -0.10248410245E+02 -0.89021766747E+01  0.33630785522E+02  0.00000000000E+00 0. -1.
</event>
<event>
 5    1  0.9034917E-005  0.9118800E+02  0.7818608E-02  0.1130116E+00
         25   -1    0    0    0    0  0.00000000000E+00  0.00000000000E+00  0.99999998245E-14  0.12500000000E+03  0.12500000000E+03 0.  0.
        -13    1    3    3    0    0  0.43145813863E+02  0.79313303911E+00  0.95612149128E+01  0.44199754621E+02  0.10566000000E+00 0.  1.
         23    2    1    0    0    0 -0.20228707868E+01 -0.19457265475E+02  0.22322604779E+02  0.95318762322E+02  0.90579747077E+02 0.  0.
         13    1    3    3    0    0 -0.45168684650E+02 -0.20250398514E+02  0.12761389866E+02  0.51119007701E+02  0.10566000000E+00 0. -1.
         22    1    1    0    0    0  0.20228707868E+01  0.19457265475E+02 -0.22322604779E+02  0.29681237678E+02  0.00000000000E+00 0. -1.
</event>
<event>
 5    1  0.9034917E-005  0.9118800E+02  0.7818608E-02  0.1130116E+00
         25   -1    0    0    0    0  0.00000000000E+00  0.00000000000E+00  0.99999998245E-14  0.12500000000E+03  0.12500000000E+03 0.  0.
        -13    1    3    3    0    0  0.43123179041E+02  0.43682123396E+02  0.89391740795E+01  0.62029480670E+02  0.10566000000E+00 0.  1.
         23    2    1    0    0    0  0.23744058511E+02  0.17949187893E+02  0.76420764151E+01  0.94269640541E+02  0.89120200489E+02 0.  0.
         13    1    3    3    0    0 -0.19379120530E+02 -0.25732935503E+02 -0.12970976644E+01  0.32240159871E+02  0.10566000000E+00 0. -1.
         22    1    1    0    0    0 -0.23744058511E+02 -0.17949187893E+02 -0.76420764151E+01  0.30730359459E+02  0.00000000000E+00 0.  1.
</event>
<event>
 5    1  0.9034917E-005  0.9118800E+02  0.7818608E-02  0.1130116E+00
         25   -1    0    0    0    0  0.00000000000E+00  0.00000000000E+00  0.99999998245E-14  0.12500000000E+03  0.12500000000E+03 0.  0.
        -13    1    3    3    0    0  0.28913262594E+02  0.83468256066E+00  0.18146686483E+02  0.34146549506E+02  0.10566000000E+00 0.  1.
         23    2    1    0    0    0 -0.27018429599E+02 -0.74965866865E+01 -0.71008922372E+01  0.96075667328E+02  0.91618321486E+02 0.  0.
         13    1    3    3    0    0 -0.55931692194E+02 -0.83312692472E+01 -0.25247578720E+02  0.61929117822E+02  0.10566000000E+00 0. -1.
         22    1    1    0    0    0  0.27018429599E+02  0.74965866865E+01  0.71008922372E+01  0.28924332672E+02  0.00000000000E+00 0. -1.
</event>
<event>
 5    1  0.9034917E-005  0.9118800E+02  0.7818608E-02  0.1130116E+00
         25   -1    0    0    0    0  0.00000000000E+00  0.00000000000E+00  0.99999998245E-14  0.12500000000E+03  0.12500000000E+03 0.  0.
        -13    1    3    3    0    0 -0.50408520261E+02 -0.28120979615E+02  0.16083768209E+02  0.59920840892E+02  0.10566000000E+00 0. -1.
         23    2    1    0    0    0 -0.29781088028E+02 -0.38863149930E+01  0.14975878771E+01  0.94929093499E+02  0.90040398571E+02 0.  0.
         13    1    3    3    0    0  0.20627432233E+02  0.24234664622E+02 -0.14586180332E+02  0.35008252607E+02  0.10566000000E+00 0.  1.
         22    1    1    0    0    0  0.29781088028E+02  0.38863149930E+01 -0.14975878771E+01  0.30070906501E+02  0.00000000000E+00 0. -1.
</event>
<event>
 5    1  0.9034917E-005  0.9118800E+02  0.7818608E-02  0.1130116E+00
         25   -1    0    0    0    0  0.00000000000E+00  0.00000000000E+00  0.99999998245E-14  0.12500000000E+03  0.12500000000E+03 0.  0.
        -13    1    3    3    0    0 -0.41759078095E+02 -0.90782140129E+01  0.35507096673E+02  0.55560774393E+02  0.10566000000E+00 0.  1.
         23    2    1    0    0    0 -0.14543639160E+02  0.16676863549E+02  0.11494796779E+02  0.10006477249E+03  0.96908168506E+02 0.  0.
         13    1    3    3    0    0  0.27215438935E+02  0.25755077562E+02 -0.24012299893E+02  0.44503998100E+02  0.10566000000E+00 0. -1.
         22    1    1    0    0    0  0.14543639160E+02 -0.16676863549E+02 -0.11494796779E+02  0.24935227507E+02  0.00000000000E+00 0.  1.
</event>
<event>
 5    1  0.9034917E-005  0.9118800E+02  0.7818608E-02  0.1130116E+00
         25   -1    0    0    0    0  0.00000000000E+00  0.00000000000E+00  0.99999998245E-14  0.12500000000E+03  0.12500000000E+03 0.  0.
        -13    1    3    3    0    0  0.94822602672E+01  0.42788694882E+02  0.19728697873E+02  0.48062650294E+02  0.10566000000E+00 0. -1.
         23    2    1    0    0    0 -0.12443287732E+02  0.21824987425E+02 -0.16216761228E+02  0.95097678511E+02  0.90274135984E+02 0.  0.
         13    1    3    3    0    0 -0.21925548000E+02 -0.20963707457E+02 -0.35945459101E+02  0.47035028217E+02  0.10566000000E+00 0.  1.
         22    1    1    0    0    0  0.12443287732E+02 -0.21824987425E+02  0.16216761228E+02  0.29902321489E+02  0.00000000000E+00 0.  1.
</event>
<event>
 5    1  0.9034917E-005  0.9118800E+02  0.7818608E-02  0.1130116E+00
         25   -1    0    0    0    0  0.00000000000E+00  0.00000000000E+00  0.99999998245E-14  0.12500000000E+03  0.12500000000E+03 0.  0.
        -13    1    3    3    0    0 -0.27350819358E+02  0.27759420607E+01 -0.33947791943E+02  0.43683371158E+02  0.10566000000E+00 0. -1.
         23    2    1    0    0    0 -0.21747600254E+02 -0.13004536280E+02  0.15094272450E+02  0.95505710019E+02  0.90837368438E+02 0.  0.
         13    1    3    3    0    0  0.56032191031E+01 -0.15780478341E+02  0.49042064394E+02  0.51822338861E+02  0.10566000000E+00 0.  1.
         22    1    1    0    0    0  0.21747600254E+02  0.13004536280E+02 -0.15094272450E+02  0.29494289981E+02  0.00000000000E+00 0. -1.
</event>
<event>
 5    1  0.9034917E-005  0.9118800E+02  0.7818608E-02  0.1130116E+00
         25   -1    0    0    0    0  0.00000000000E+00  0.00000000000E+00  0.99999998245E-14  0.12500000000E+03  0.12500000000E+03 0.  0.
        -13    1    3    3    0    0  0.32155771760E+02  0.58318179676E+01  0.11089787111E+02  0.34510843230E+02  0.10566000000E+00 0.  1.
         23    2    1    0    0    0 -0.26059346770E+02 -0.68424131561E+01 -0.76933056883E+01  0.96980451034E+02  0.92844562352E+02 0.  0.
         13    1    3    3    0    0 -0.58215118529E+02 -0.12674231124E+02 -0.18783092800E+02  0.62469607803E+02  0.10566000000E+00 0. -1.
         22    1    1    0    0    0  0.26059346770E+02  0.68424131561E+01  0.76933056883E+01  0.28019548966E+02  0.00000000000E+00 0. -1.
</event>
<event>
 5    1  0.9034917E-005  0.9118800E+02  0.7818608E-02  0.1130116E+00
         25   -1    0    0    0    0  0.00000000000E+00  0.00000000000E+00  0.99999998245E-14  0.12500000000E+03  0.12500000000E+03 0.  0.
        -13    1    3    3    0    0 -0.14801385302E+02 -0.14172726388E-01 -0.55342755460E+02  0.57287982629E+02  0.10566000000E+00 0.  1.
         23    2    1    0    0    0  0.73520795225E+01  0.11301246846E+02 -0.25636882343E+02  0.96034140961E+02  0.91561647213E+02 0.  0.
         13    1    3    3    0    0  0.22153464824E+02  0.11315419572E+02  0.29705873117E+02  0.38746158332E+02  0.10566000000E+00 0. -1.
         22    1    1    0    0    0 -0.73520795225E+01 -0.11301246846E+02  0.25636882343E+02  0.28965859039E+02  0.00000000000E+00 0.  1.
</event>
<event>
 5    1  0.9034917E-005  0.9118800E+02  0.7818608E-02  0.1130116E+00
         25   -1    0    0    0    0  0.00000000000E+00  0.00000000000E+00  0.99999998245E-14  0.12500000000E+03  0.12500000000E+03 0.  0.
        -13    1    3    3    0    0  0.40296337595E+02  0.41910040127E+02  0.14887748487E+02  0.60015852123E+02  0.10566000000E+00 0.  1.
         23    2    1    0    0    0  0.10177240841E+02  0.18821834255E+02  0.16468321036E+02  0.97999198648E+02  0.94206155118E+02 0.  0.
         13    1    3    3    0    0 -0.30119096754E+02 -0.23088205871E+02  0.15805725494E+01  0.37983346525E+02  0.10566000000E+00 0. -1.
         22    1    1    0    0    0 -0.10177240841E+02 -0.18821834255E+02 -0.16468321036E+02  0.27000801352E+02  0.00000000000E+00 0.  1.
</event>
<event>
 5    1  0.9034917E-005  0.9118800E+02  0.7818608E-02  0.1130116E+00
         25   -1    0    0    0    0  0.00000000000E+00  0.00000000000E+00  0.99999998245E-14  0.12500000000E+03  0.12500000000E+03 0.  0.
        -13    1    3    3    0    0 -0.31071906306E+01 -0.20793241238E+02  0.42837477392E+02  0.47718698098E+02  0.10566000000E+00 0. -1.
         23    2    1    0    0    0 -0.25433101273E+02  0.69695497821E+01  0.82597412050E+01  0.97365952354E+02  0.93362134125E+02 0.  0.
         13    1    3    3    0    0 -0.22325910643E+02  0.27762791020E+02 -0.34577736187E+02  0.49647254256E+02  0.10566000000E+00 0.  1.
         22    1    1    0    0    0  0.25433101273E+02 -0.69695497821E+01 -0.82597412050E+01  0.27634047646E+02  0.00000000000E+00 0.  1.
</event>
<event>
 5    1  0.9034917E-005  0.9118800E+02  0.7818608E-02  0.1130116E+00
         25   -1    0    0    0    0  0.00000000000E+00  0.00000000000E+00  0.99999998245E-14  0.12500000000E+03  0.12500000000E+03 0.  0.
        -13    1    3    3    0    0 -0.16526004392E+02  0.23555217629E+02 -0.13544856973E+02  0.31803009499E+02  0.10566000000E+00 0.  1.
         23    2    1    0    0    0  0.83277755831E+01 -0.22252499672E+02  0.20136234203E+02  0.93855281095E+02  0.88537112409E+02 0.  0.
         13    1    3    3    0    0  0.24853779975E+02 -0.45807717301E+02  0.33681091176E+02  0.62052271596E+02  0.10566000000E+00 0. -1.
         22    1    1    0    0    0 -0.83277755831E+01  0.22252499672E+02 -0.20136234203E+02  0.31144718905E+02  0.00000000000E+00 0. -1.
</event>
<event>
 5    1  0.9034917E-005  0.9118800E+02  0.7818608E-02  0.1130116E+00
         25   -1    0    0    0    0  0.00000000000E+00  0.00000000000E+00  0.99999998245E-14  0.12500000000E+03  0.12500000000E+03 0.  0.
        -13    1    3    3    0    0  0.74763447579E+01  0.36002272806E+02 -0.39465452559E+02  0.53940638556E+02  0.10566000000E+00 0.  1.
         23    2    1    0    0    0 -0.25614978748E+01 -0.36162031812E+01 -0.28363910060E+02  0.96291994310E+02  0.91912994606E+02 0.  0.
         13    1    3    3    0    0 -0.10037842633E+02 -0.39618475987E+02  0.11101542499E+02  0.42351355753E+02  0.10566000000E+00 0. -1.
         22    1    1    0    0    0  0.25614978748E+01  0.36162031812E+01  0.28363910060E+02  0.28708005690E+02  0.00000000000E+00 0.  1.
</event>
<event>
 5    1  0.9034917E-005  0.9118800E+02  0.7818608E-02  0.1130116E+00
         25   -1    0    0    0    0  0.00000000000E+00  0.00000000000E+00  0.99999998245E-14  0.12500000000E+03  0.12500000000E+03 0.  0.
        -13    1    3    3    0    0 -0.33326098266E+01 -0.38017624547E+02  0.62883562138E+01  0.38678167645E+02  0.10566000000E+00 0.  1.
         23    2    1    0    0    0 -0.16096781551E+02  0.19025785514E+02  0.11865732191E+02  0.97397781047E+02  0.93404738968E+02 0.  0.
         13    1    3    3    0    0 -0.12764171724E+02  0.57043410061E+02  0.55773759773E+01  0.58719613402E+02  0.10566000000E+00 0. -1.
         22    1    1    0    0    0  0.16096781551E+02 -0.19025785514E+02 -0.11865732191E+02  0.27602218953E+02  0.00000000000E+00 0. -1.
</event>
<event>
 5    1  0.9034917E-005  0.9118800E+02  0.7818608E-02  0.1130116E+00
         25   -1    0    0    0    0  0.00000000000E+00  0.00000000000E+00  0.99999998245E-14  0.12500000000E+03  0.12500000000E+03 0.  0.
        -13    1    3    3    0    0  0.33161378522E+02 -0.18051594819E+02 -0.16737163768E+02  0.41299890025E+02  0.10566000000E+00 0. -1.
         23    2    1    0    0    0 -0.12960100998E+01  0.25316654148E+02 -0.12174803839E+02  0.96878149635E+02  0.92706727958E+02 0.  0.
         13    1    3    3    0    0 -0.34457388622E+02  0.43368248967E+02  0.45623599295E+01  0.55578259610E+02  0.10566000000E+00 0.  1.
         22    1    1    0    0    0  0.12960100998E+01 -0.25316654148E+02  0.12174803839E+02  0.28121850365E+02  0.00000000000E+00 0. -1.
</event>
<event>
 5    1  0.9034917E-005  0.9118800E+02  0.7818608E-02  0.1130116E+00
         25   -1    0    0    0    0  0.00000000000E+00  0.00000000000E+00  0.99999998245E-14  0.12500000000E+03  0.12500000000E+03 0.  0.
        -13    1    3    3    0    0  0.83019140910E+01 -0.45342027387E+02 -0.12385755797E+02  0.47730905458E+02  0.10566000000E+00 0. -1.
         23    2    1    0    0    0  0.32860837676E+02 -0.16089210058E+02  0.15237869531E+01  0.88380070184E+02  0.80436419276E+02 0.  0.
         13    1    3    3    0    0  0.24558923585E+02  0.29252817330E+02  0.13909542750E+02  0.40649164726E+02  0.10566000000E+00 0.  1.
         22    1    1    0    0    0 -0.32860837676E+02  0.16089210058E+02 -0.15237869531E+01  0.36619929816E+02  0.00000000000E+00 0. -1.
</event>
<event>
 5    1  0.9034917E-005  0.9118800E+02  0.7818608E-02  0.1130116E+00
         25   -1    0    0    0    0  0.00000000000E+00  0.00000000000E+00  0.99999998245E-14  0.12500000000E+03  0.12500000000E+03 0.  0.
        -13    1    3    3    0    0 -0.33421026628E+02  0.41714919174E+01  0.10390464212E+02  0.35246833564E+02  0.10566000000E+00 0.  1.
         23    2    1    0    0    0  0.15336476435E+02  0.20204544790E+01 -0.25047453739E+02  0.95560830776E+02  0.90913187680E+02 0.  0.
         13    1    3    3    0    0  0.48757503063E+02 -0.21510374384E+01 -0.35437917951E+02  0.60313997213E+02  0.10566000000E+00 0. -1.
         22    1    1    0    0    0 -0.15336476435E+02 -0.20204544790E+01  0.25047453739E+02  0.29439169224E+02  0.00000000000E+00 0. -1.
</event>
<event>
 5    1  0.9034917E-005  0.9118800E+02  0.7818608E-02  0.1130116E+00
         25   -1    0    0    0    0  0.00000000000E+00  0.00000000000E+00  0.99999998245E-14  0.12500000000E+03  0.12500000000E+03 0.  0.
        -13    1    3    3    0    0 -0.28602048232E+02  0.40571576329E+02 -0.87994064500E+01  0.50413992966E+02  0.10566000000E+00 0. -1.
         23    2    1    0    0    0 -0.63555110153E+01  0.16191604458E+02  0.22944961229E+02  0.96207087313E+02  0.91797450009E+02 0.  0.
         13    1    3    3    0    0  0.22246537216E+02 -0.24379971870E+02  0.31744367679E+02  0.45793094347E+02  0.10566000000E+00 0.  1.
         22    1    1    0    0    0  0.63555110153E+01 -0.16191604458E+02 -0.22944961229E+02  0.28792912687E+02  0.00000000000E+00 0. -1.
</event>
<event>
 5    1  0.9034917E-005  0.9118800E+02  0.7818608E-02  0.1130116E+00
         25   -1    0    0    0    0  0.00000000000E+00  0.00000000000E+00  0.99999998245E-14  0.12500000000E+03  0.12500000000E+03 0.  0.
        -13    1    3    3    0    0 -0.28141312741E+02  0.25719729985E+02  0.29774028546E+02  0.48372946294E+02  0.10566000000E+00 0. -1.
         23    2    1    0    0    0 -0.14116072760E+02 -0.18157544725E+02  0.17657718296E+02  0.96004225204E+02  0.91520797096E+02 0.  0.
         13    1    3    3    0    0  0.14025239982E+02 -0.43877274710E+02 -0.12116310249E+02  0.47631278910E+02  0.10566000000E+00 0.  1.
         22    1    1    0    0    0  0.14116072760E+02  0.18157544725E+02 -0.17657718296E+02  0.28995774796E+02  0.00000000000E+00 0.  1.
</event>
<event>
 4    1  0.9034917E-005  0.9118800E+02  0.7818608E-02  0.1130116E+00
         25   -1    0    0    0    0  0.00000000000E+00  0.00000000000E+00  0.99999998245E-14  0.12500000000E+03  0.12500000000E+03 0.  0.
        -13    1    1    0    0    0  0.10925140985E+02  0.12070764385E+02  0.17606075497E+02  0.23980140050E+02  0.10566000000E+00 0. -1.
         13    1    1    0    0    0  0.33373257591E+01 -0.39322424090E+02  0.26290752318E+02  0.47419464369E+02  0.10566000000E+00 0.  1.
         22    1    1    0    0    0 -0.14262466744E+02  0.27251659705E+02 -0.43896827815E+02  0.53600395581E+02  0.00000000000E+00 0.  1.
</event>
<event>
 5    1  0.9034917E-005  0.9118800E+02  0.7818608E-02  0.1130116E+00
         25   -1    0    0    0    0  0.00000000000E+00  0.00000000000E+00  0.99999998245E-14  0.12500000000E+03  0.12500000000E+03 0.  0.
        -13    1    3    3    0    0 -0.15612841590E+02  0.10332464625E+02  0.44967978302E+02  0.48709864343E+02  0.10566000000E+00 0.  1.
         23    2    1    0    0    0 -0.16448507189E+02 -0.21091359248E+02  0.83283950476E+01  0.96986414229E+02  0.92852590472E+02 0.  0.
         13    1    3    3    0    0 -0.83566559938E+00 -0.31423823873E+02 -0.36639583255E+02  0.48276549886E+02  0.10566000000E+00 0. -1.
         22    1    1    0    0    0  0.16448507189E+02  0.21091359248E+02 -0.83283950476E+01  0.28013585771E+02  0.00000000000E+00 0.  1.
</event>
<event>
 5    1  0.9034917E-005  0.9118800E+02  0.7818608E-02  0.1130116E+00
         25   -1    0    0    0    0  0.00000000000E+00  0.00000000000E+00  0.99999998245E-14  0.12500000000E+03  0.12500000000E+03 0.  0.
        -13    1    3    3    0    0  0.56742400642E+01  0.44173178377E+02 -0.31731969413E+02  0.54684510925E+02  0.10566000000E+00 0.  1.
         23    2    1    0    0    0  0.14783625449E+02  0.25777679113E+02  0.31075937616E+01  0.95121889938E+02  0.90307654629E+02 0.  0.
         13    1    3    3    0    0  0.91093853849E+01 -0.18395499264E+02  0.34839563174E+02  0.40437379013E+02  0.10566000000E+00 0. -1.
         22    1    1    0    0    0 -0.14783625449E+02 -0.25777679113E+02 -0.31075937616E+01  0.29878110062E+02  0.00000000000E+00 0.  1.
</event>
<event>
 5    1  0.9034917E-005  0.9118800E+02  0.7818608E-02  0.1130116E+00
         25   -1    0    0    0    0  0.00000000000E+00  0.00000000000E+00  0.99999998245E-14  0.12500000000E+03  0.12500000000E+03 0.  0.
        -13    1    3    3    0    0 -0.35167435857E+01  0.54221113695E+02 -0.13445617912E+02  0.55974033809E+02  0.10566000000E+00 0.  1.
         23    2    1    0    0    0  0.52038583422E+01  0.12378180811E+02 -0.21676583059E+02  0.99501495045E+02  0.96178863381E+02 0.  0.
         13    1    3    3    0    0  0.87206019280E+01 -0.41842932884E+02 -0.82309651469E+01  0.43527461235E+02  0.10566000000E+00 0. -1.
         22    1    1    0    0    0 -0.52038583422E+01 -0.12378180811E+02  0.21676583059E+02  0.25498504955E+02  0.00000000000E+00 0.  1.
</event>
<event>
 5    1  0.9034917E-005  0.9118800E+02  0.7818608E-02  0.1130116E+00
         25   -1    0    0    0    0  0.00000000000E+00  0.00000000000E+00  0.99999998245E-14  0.12500000000E+03  0.12500000000E+03 0.  0.
        -13    1    3    3    0    0 -0.76150527260E+00  0.40987247215E+02 -0.32286651657E+02  0.52182117279E+02  0.10566000000E+00 0.  1.
         23    2    1    0    0    0 -0.18248130868E+01  0.35135484697E+02  0.45752675031E+01  0.89520917424E+02  0.82190202311E+02 0.  0.
         13    1    3    3    0    0 -0.10633078142E+01 -0.58517625173E+01  0.36861919160E+02  0.37338800145E+02  0.10566000000E+00 0. -1.
         22    1    1    0    0    0  0.18248130868E+01 -0.35135484697E+02 -0.45752675031E+01  0.35479082576E+02  0.00000000000E+00 0.  1.
</event>
<event>
 5    1  0.9034917E-005  0.9118800E+02  0.7818608E-02  0.1130116E+00
         25   -1    0    0    0    0  0.00000000000E+00  0.00000000000E+00  0.99999998245E-14  0.12500000000E+03  0.12500000000E+03 0.  0.
        -13    1    3    3    0    0 -0.61601165738E+01 -0.36539868861E+02  0.45044624894E+02  0.58327853110E+02  0.10566000000E+00 0. -1.
         23    2    1    0    0    0 -0.12447496876E+02 -0.23668392346E+02  0.95505698677E+01  0.96603761525E+02  0.92336018873E+02 0.  0.
         13    1    3    3    0    0 -0.62873803027E+01  0.12871476515E+02 -0.35494055026E+02  0.38275908415E+02  0.10566000000E+00 0.  1.
         22    1    1    0    0    0  0.12447496876E+02  0.23668392346E+02 -0.95505698677E+01  0.28396238475E+02  0.00000000000E+00 0. -1.
</event>
<event>
 5    1  0.9034917E-005  0.9118800E+02  0.7818608E-02  0.1130116E+00
         25   -1    0    0    0    0  0.00000000000E+00  0.00000000000E+00  0.99999998245E-14  0.12500000000E+03  0.12500000000E+03 0.  0.
        -13    1    3    3    0    0  0.30191325282E+02  0.31987632869E+02 -0.30020362636E+02  0.53253714572E+02  0.10566000000E+00 0.  1.
         23    2    1    0    0    0  0.85711069710E+01  0.27428166021E+02  0.61254206917E+01  0.95618220874E+02  0.90992061293E+02 0.  0.
         13    1    3    3    0    0 -0.21620218311E+02 -0.45594668485E+01  0.36145783328E+02  0.42364506302E+02  0.10566000000E+00 0. -1.
         22    1    1    0    0    0 -0.85711069710E+01 -0.27428166021E+02 -0.61254206917E+01  0.29381779126E+02  0.00000000000E+00 0.  1.
</event>
<event>
 5    1  0.9034917E-005  0.9118800E+02  0.7818608E-02  0.1130116E+00
         25   -1    0    0    0    0  0.00000000000E+00  0.00000000000E+00  0.99999998245E-14  0.12500000000E+03  0.12500000000E+03 0.  0.
        -13    1    3    3    0    0  0.54007446937E+02  0.14142750720E+02 -0.22697509817E+02  0.60266158319E+02  0.10566000000E+00 0.  1.
         23    2    1    0    0    0  0.30214833733E+02  0.27628049706E+01 -0.63356137405E+00  0.94652501440E+02  0.89655593021E+02 0.  0.
         13    1    3    3    0    0 -0.23792613203E+02 -0.11379945750E+02  0.22063948443E+02  0.34386343121E+02  0.10566000000E+00 0. -1.
         22    1    1    0    0    0 -0.30214833733E+02 -0.27628049706E+01  0.63356137405E+00  0.30347498560E+02  0.00000000000E+00 0.  1.
</event>
<event>
 5    1  0.9034917E-005  0.9118800E+02  0.7818608E-02  0.1130116E+00
         25   -1    0    0    0    0  0.00000000000E+00  0.00000000000E+00  0.99999998245E-14  0.12500000000E+03  0.12500000000E+03 0.  0.
        -13    1    3    3    0    0  0.43899278352E+02  0.16031811691E+02  0.27245008272E+02  0.54096832307E+02  0.10566000000E+00 0. -1.
         23    2    1    0    0    0  0.28155771803E+02 -0.20920905718E+01 -0.69935053444E+01  0.95913345917E+02  0.91396588991E+02 0.  0.
         13    1    3    3    0    0 -0.15743506549E+02 -0.18123902263E+02 -0.34238513617E+02  0.41816513609E+02  0.10566000000E+00 0.  1.
         22    1    1    0    0    0 -0.28155771803E+02  0.20920905718E+01  0.69935053444E+01  0.29086654083E+02  0.00000000000E+00 0. -1.
</event>
<event>
 5    1  0.9034917E-005  0.9118800E+02  0.7818608E-02  0.1130116E+00
         25   -1    0    0    0    0  0.00000000000E+00  0.00000000000E+00  0.99999998245E-14  0.12500000000E+03  0.12500000000E+03 0.  0.
        -13    1    3    3    0    0 -0.16321966044E+02  0.31872062729E+02 -0.57049440593E+01  0.36260067690E+02  0.10566000000E+00 0.  1.
         23    2    1    0    0    0  0.44686214315E+01 -0.19997891666E+02  0.18719011530E+02  0.97245979728E+02  0.93201367651E+02 0.  0.
         13    1    3    3    0    0  0.20790587476E+02 -0.51869954395E+02  0.24423955589E+02  0.60985912038E+02  0.10566000000E+00 0. -1.
         22    1    1    0    0    0 -0.44686214315E+01  0.19997891666E+02 -0.18719011530E+02  0.27754020272E+02  0.00000000000E+00 0. -1.
</event>
<event>
 5    1  0.9034917E-005  0.9118800E+02  0.7818608E-02  0.1130116E+00
         25   -1    0    0    0    0  0.00000000000E+00  0.00000000000E+00  0.99999998245E-14  0.12500000000E+03  0.12500000000E+03 0.  0.
        -13    1    3    3    0    0  0.20074990639E+02 -0.36275337147E+02 -0.15291837456E+02  0.44190007819E+02  0.10566000000E+00 0.  1.
         23    2    1    0    0    0  0.19637798730E+02 -0.13639343955E+00  0.21580668249E+02  0.95821463639E+02  0.91270838222E+02 0.  0.
         13    1    3    3    0    0 -0.43719190942E+00  0.36138943707E+02  0.36872505704E+02  0.51631455819E+02  0.10566000000E+00 0. -1.
         22    1    1    0    0    0 -0.19637798730E+02  0.13639343955E+00 -0.21580668249E+02  0.29178536361E+02  0.00000000000E+00 0. -1.
</event>
<event>
 5    1  0.9034917E-005  0.9118800E+02  0.7818608E-02  0.1130116E+00
         25   -1    0    0    0    0  0.00000000000E+00  0.00000000000E+00  0.99999998245E-14  0.12500000000E+03  0.12500000000E+03 0.  0.
        -13    1    3    3    0    0 -0.15272334006E+02  0.91424664509E+01  0.31253170872E+02  0.35966661402E+02  0.10566000000E+00 0. -1.
         23    2    1    0    0    0  0.38241507020E+01 -0.27606033334E+02 -0.10913533134E+02  0.95069707478E+02  0.90235396987E+02 0.  0.
         13    1    3    3    0    0  0.19096484708E+02 -0.36748499784E+02 -0.42166704007E+02  0.59103046076E+02  0.10566000000E+00 0.  1.
         22    1    1    0    0    0 -0.38241507020E+01  0.27606033334E+02  0.10913533134E+02  0.29930292522E+02  0.00000000000E+00 0.  1.
</event>
<event>
 5    1  0.9034917E-005  0.9118800E+02  0.7818608E-02  0.1130116E+00
         25   -1    0    0    0    0  0.00000000000E+00  0.00000000000E+00  0.99999998245E-14  0.12500000000E+03  0.12500000000E+03 0.  0.
        -13    1    3    3    0    0 -0.10881651011E+02 -0.29912675457E+02  0.12079746293E+02  0.34045703345E+02  0.10566000000E+00 0. -1.
         23    2    1    0    0    0  0.12824541212E+02  0.26219856980E+02  0.28685259943E+01  0.95671205297E+02  0.91064819356E+02 0.  0.
         13    1    3    3    0    0  0.23706192222E+02  0.56132532437E+02 -0.92112202989E+01  0.61625501952E+02  0.10566000000E+00 0.  1.
         22    1    1    0    0    0 -0.12824541212E+02 -0.26219856980E+02 -0.28685259943E+01  0.29328794703E+02  0.00000000000E+00 0.  1.
</event>
<event>
 5    1  0.9034917E-005  0.9118800E+02  0.7818608E-02  0.1130116E+00
         25   -1    0    0    0    0  0.00000000000E+00  0.00000000000E+00  0.99999998245E-14  0.12500000000E+03  0.12500000000E+03 0.  0.
        -13    1    3    3    0    0 -0.25871168287E+02  0.23808504769E+02 -0.10668663888E+01  0.35175440521E+02  0.10566000000E+00 0. -1.
         23    2    1    0    0    0  0.61929229317E+01 -0.21433467843E+02  0.20526471514E+02  0.94683636909E+02  0.89698992343E+02 0.  0.
         13    1    3    3    0    0  0.32064091219E+02 -0.45241972613E+02  0.21593337903E+02  0.59508196389E+02  0.10566000000E+00 0.  1.
         22    1    1    0    0    0 -0.61929229317E+01  0.21433467843E+02 -0.20526471514E+02  0.30316363091E+02  0.00000000000E+00 0.  1.
</event>
<event>
 5    1  0.9034917E-005  0.9118800E+02  0.7818608E-02  0.1130116E+00
         25   -1    0    0    0    0  0.00000000000E+00  0.00000000000E+00  0.99999998245E-14  0.12500000000E+03  0.12500000000E+03 0.  0.
        -13    1    3    3    0    0  0.36102848956E+02 -0.22394041388E+02 -0.47383875656E+01  0.42747775067E+02  0.10566000000E+00 0. -1.
         23    2    1    0    0    0 -0.91830350968E+01 -0.18910107829E+02  0.21276270527E+02  0.95090135419E+02  0.90263690678E+02 0.  0.
         13    1    3    3    0    0 -0.45285884053E+02  0.34839335595E+01  0.26014658093E+02  0.52342360352E+02  0.10566000000E+00 0.  1.
         22    1    1    0    0    0  0.91830350968E+01  0.18910107829E+02 -0.21276270527E+02  0.29909864581E+02  0.00000000000E+00 0.  1.
</event>
<event>
 5    1  0.9034917E-005  0.9118800E+02  0.7818608E-02  0.1130116E+00
         25   -1    0    0    0    0  0.00000000000E+00  0.00000000000E+00  0.99999998245E-14  0.12500000000E+03  0.12500000000E+03 0.  0.
        -13    1    3    3    0    0 -0.11808922121E+02 -0.55584606252E+02  0.31240584216E+01  0.56911070970E+02  0.10566000000E+00 0. -1.
         23    2    1    0    0    0  0.62127982513E+01 -0.38895962809E+02 -0.94332837711E+01  0.84497140501E+02  0.74157165029E+02 0.  0.
         13    1    3    3    0    0  0.18021720373E+02  0.16688643443E+02 -0.12557342193E+02  0.27586069531E+02  0.10566000000E+00 0.  1.
         22    1    1    0    0    0 -0.62127982513E+01  0.38895962809E+02  0.94332837711E+01  0.40502859499E+02  0.00000000000E+00 0. -1.
</event>
<event>
 5    1  0.9034917E-005  0.9118800E+02  0.7818608E-02  0.1130116E+00
         25   -1    0    0    0    0  0.00000000000E+00  0.00000000000E+00  0.99999998245E-14  0.12500000000E+03  0.12500000000E+03 0.  0.
        -13    1    3    3    0    0  0.37896316457E+02  0.27814719474E+02  0.13932254975E+02  0.49029667683E+02  0.10566000000E+00 0.  1.
         23    2    1    0    0    0  0.47106411655E+00  0.23785971834E+02 -0.15321818028E+02  0.96702430048E+02  0.92469495035E+02 0.  0.
         13    1    3    3    0    0 -0.37425252340E+02 -0.40287476399E+01 -0.29254073002E+02  0.47672762365E+02  0.10566000000E+00 0. -1.
         22    1    1    0    0    0 -0.47106411655E+00 -0.23785971834E+02  0.15321818028E+02  0.28297569952E+02  0.00000000000E+00 0.  1.
</event>
<event>
 5    1  0.9034917E-005  0.9118800E+02  0.7818608E-02  0.1130116E+00
         25   -1    0    0    0    0  0.00000000000E+00  0.00000000000E+00  0.99999998245E-14  0.12500000000E+03  0.12500000000E+03 0.  0.
        -13    1    3    3    0    0 -0.15929852081E+02  0.17576157443E+02  0.22942417589E+02  0.33000714941E+02  0.10566000000E+00 0.  1.
         23    2    1    0    0    0 -0.13121406737E+01 -0.69901172732E+01 -0.30539559876E+02  0.93643211739E+02  0.88237197002E+02 0.  0.
         13    1    3    3    0    0  0.14617711407E+02 -0.24566274717E+02 -0.53481977465E+02  0.60642496797E+02  0.10566000000E+00 0. -1.
         22    1    1    0    0    0  0.13121406737E+01  0.69901172732E+01  0.30539559876E+02  0.31356788261E+02  0.00000000000E+00 0. -1.
</event>
<event>
 5    1  0.9034917E-005  0.9118800E+02  0.7818608E-02  0.1130116E+00
         25   -1    0    0    0    0  0.00000000000E+00  0.00000000000E+00  0.99999998245E-14  0.12500000000E+03  0.12500000000E+03 0.  0.
        -13    1    3    3    0    0  0.21578798611E+02  0.30791118133E+02  0.21638818433E+02  0.43381875623E+02  0.10566000000E+00 0. -1.
         23    2    1    0    0    0 -0.15010629938E+02  0.19799813328E+02 -0.14718295180E+02  0.96121291027E+02  0.91680547319E+02 0.  0.
         13    1    3    3    0    0 -0.36589428549E+02 -0.10991304805E+02 -0.36357113613E+02  0.52739415404E+02  0.10566000000E+00 0.  1.
         22    1    1    0    0    0  0.15010629938E+02 -0.19799813328E+02  0.14718295180E+02  0.28878708973E+02  0.00000000000E+00 0.  1.
</event>
<event>
 5    1  0.9034917E-005  0.9118800E+02  0.7818608E-02  0.1130116E+00
         25   -1    0    0    0    0  0.00000000000E+00  0.00000000000E+00  0.99999998245E-14  0.12500000000E+03  0.12500000000E+03 0.  0.
        -13    1    3    3    0    0 -0.43526897618E+02  0.31564135961E+02  0.27942062977E+02  0.60594187367E+02  0.10566000000E+00 0.  1.
         23    2    1    0    0    0 -0.13165643222E+02  0.19122125625E+02  0.20008318321E+02  0.94351628887E+02  0.89235123251E+02 0.  0.
         13    1    3    3    0    0  0.30361254396E+02 -0.12442010336E+02 -0.79337446563E+01  0.33757441520E+02  0.10566000000E+00 0. -1.
         22    1    1    0    0    0  0.13165643222E+02 -0.19122125625E+02 -0.20008318321E+02  0.30648371113E+02  0.00000000000E+00 0.  1.
</event>
<event>
 5    1  0.9034917E-005  0.9118800E+02  0.7818608E-02  0.1130116E+00
         25   -1    0    0    0    0  0.00000000000E+00  0.00000000000E+00  0.99999998245E-14  0.12500000000E+03  0.12500000000E+03 0.  0.
        -13    1    3    3    0    0  0.55867552775E+02 -0.10363405518E+02 -0.13549874913E+02  0.58413987206E+02  0.10566000000E+00 0. -1.
         23    2    1    0    0    0  0.22739308501E+02 -0.12558600862E+02  0.77882880642E+01  0.97880781028E+02  0.94048898223E+02 0.  0.
         13    1    3    3    0    0 -0.33128244275E+02 -0.21951953435E+01  0.21338162977E+02  0.39466793822E+02  0.10566000000E+00 0.  1.
         22    1    1    0    0    0 -0.22739308501E+02  0.12558600862E+02 -0.77882880642E+01  0.27119218972E+02  0.00000000000E+00 0. -1.
</event>
<event>
 5    1  0.9034917E-005  0.9118800E+02  0.7818608E-02  0.1130116E+00
         25   -1    0    0    0    0  0.00000000000E+00  0.00000000000E+00  0.99999998245E-14  0.12500000000E+03  0.12500000000E+03 0.  0.
        -13    1    3    3    0    0 -0.46818969245E+02  0.20720013096E+00 -0.20241342038E+02  0.51007665155E+02  0.10566000000E+00 0.  1.
         23    2    1    0    0    0 -0.62678272384E+01 -0.18138306723E+02 -0.22320002996E+02  0.95564199301E+02  0.90917819075E+02 0.  0.
         13    1    3    3    0    0  0.40551142006E+02 -0.18345506853E+02 -0.20786609573E+01  0.44556534146E+02  0.10566000000E+00 0. -1.
         22    1    1    0    0    0  0.62678272384E+01  0.18138306723E+02  0.22320002996E+02  0.29435800699E+02  0.00000000000E+00 0. -1.
</event>
<event>
 5    1  0.9034917E-005  0.9118800E+02  0.7818608E-02  0.1130116E+00
         25   -1    0    0    0    0  0.00000000000E+00  0.00000000000E+00  0.99999998245E-14  0.12500000000E+03  0.12500000000E+03 0.  0.
        -13    1    3    3    0    0 -0.20168574363E+01  0.26900459205E+02  0.19763881240E+02  0.33441360395E+02  0.10566000000E+00 0.  1.
         23    2    1    0    0    0  0.50202067893E+01 -0.16690872969E+02 -0.23820151988E+02  0.95484116863E+02  0.90807649544E+02 0.  0.
         13    1    3    3    0    0  0.70370642256E+01 -0.43591332174E+02 -0.43584033228E+02  0.62042756467E+02  0.10566000000E+00 0. -1.
         22    1    1    0    0    0 -0.50202067893E+01  0.16690872969E+02  0.23820151988E+02  0.29515883137E+02  0.00000000000E+00 0. -1.
</event>
<event>
 5    1  0.9034917E-005  0.9118800E+02  0.7818608E-02  0.1130116E+00
         25   -1    0    0    0    0  0.00000000000E+00  0.00000000000E+00  0.99999998245E-14  0.12500000000E+03  0.12500000000E+03 0.  0.
        -13    1    3    3    0    0 -0.55868931923E+02  0.90041198012E+01 -0.34666698560E+01  0.56696037706E+02  0.10566000000E+00 0.  1.
         23    2    1    0    0    0 -0.22178424875E+02  0.79926351152E+01  0.16823707818E+02  0.96037923231E+02  0.91566810623E+02 0.  0.
         13    1    3    3    0    0  0.33690507048E+02 -0.10114846860E+01  0.20290377674E+02  0.39341885525E+02  0.10566000000E+00 0. -1.
         22    1    1    0    0    0  0.22178424875E+02 -0.79926351152E+01 -0.16823707818E+02  0.28962076769E+02  0.00000000000E+00 0.  1.
</event>
<event>
 5    1  0.9034917E-005  0.9118800E+02  0.7818608E-02  0.1130116E+00
         25   -1    0    0    0    0  0.00000000000E+00  0.00000000000E+00  0.99999998245E-14  0.12500000000E+03  0.12500000000E+03 0.  0.
        -13    1    3    3    0    0  0.21453944679E+02 -0.24826952924E+02 -0.60778686648E+01  0.33370660547E+02  0.10566000000E+00 0. -1.
         23    2    1    0    0    0 -0.18441454790E+02  0.22679473153E+02  0.58031227396E+00  0.95763336038E+02  0.91191194803E+02 0.  0.
         13    1    3    3    0    0 -0.39895399469E+02  0.47506426078E+02  0.66581809387E+01  0.62392675491E+02  0.10566000000E+00 0.  1.
         22    1    1    0    0    0  0.18441454790E+02 -0.22679473153E+02 -0.58031227396E+00  0.29236663962E+02  0.00000000000E+00 0.  1.
</event>
<event>
 5    1  0.9034917E-005  0.9118800E+02  0.7818608E-02  0.1130116E+00
         25   -1    0    0    0    0  0.00000000000E+00  0.00000000000E+00  0.99999998245E-14  0.12500000000E+03  0.12500000000E+03 0.  0.
        -13    1    3    3    0    0  0.24096048392E+02  0.50633230156E+02 -0.27559997424E+02  0.62481262520E+02  0.10566000000E+00 0. -1.
         23    2    1    0    0    0  0.11170710974E+02  0.25863237308E+02 -0.13462035248E+02  0.93776319552E+02  0.88425561282E+02 0.  0.
         13    1    3    3    0    0 -0.12925337418E+02 -0.24769992848E+02  0.14097962176E+02  0.31295057031E+02  0.10566000000E+00 0.  1.
         22    1    1    0    0    0 -0.11170710974E+02 -0.25863237308E+02  0.13462035248E+02  0.31223680448E+02  0.00000000000E+00 0. -1.
</event>
<event>
 5    1  0.9034917E-005  0.9118800E+02  0.7818608E-02  0.1130116E+00
         25   -1    0    0    0    0  0.00000000000E+00  0.00000000000E+00  0.99999998245E-14  0.12500000000E+03  0.12500000000E+03 0.  0.
        -13    1    3    3    0    0 -0.47759055834E+02  0.16501524018E+01 -0.39341850136E+02  0.61898649043E+02  0.10566000000E+00 0. -1.
         23    2    1    0    0    0 -0.19045890788E+02  0.47482382010E+01 -0.21693796712E+02  0.95744017061E+02  0.91164709539E+02 0.  0.
         13    1    3    3    0    0  0.28713165047E+02  0.30980857993E+01  0.17648053424E+02  0.33845368018E+02  0.10566000000E+00 0.  1.
         22    1    1    0    0    0  0.19045890788E+02 -0.47482382010E+01  0.21693796712E+02  0.29255982939E+02  0.00000000000E+00 0. -1.
</event>
<event>
 5    1  0.9034917E-005  0.9118800E+02  0.7818608E-02  0.1130116E+00
         25   -1    0    0    0    0  0.00000000000E+00  0.00000000000E+00  0.99999998245E-14  0.12500000000E+03  0.12500000000E+03 0.  0.
        -13    1    3    3    0    0 -0.20155773597E+02  0.72449541854E+01  0.27700210569E+02  0.35015102456E+02  0.10566000000E+00 0.  1.
         23    2    1    0    0    0  0.23426893210E+02  0.13878745822E+02 -0.12829701448E+02  0.94899499169E+02  0.89999304398E+02 0.  0.
         13    1    3    3    0    0  0.43582666807E+02  0.66337916369E+01 -0.40529912017E+02  0.59884396712E+02  0.10566000000E+00 0. -1.
         22    1    1    0    0    0 -0.23426893210E+02 -0.13878745822E+02  0.12829701448E+02  0.30100500831E+02  0.00000000000E+00 0. -1.
</event>
<event>
 5    1  0.9034917E-005  0.9118800E+02  0.7818608E-02  0.1130116E+00
         25   -1    0    0    0    0  0.00000000000E+00  0.00000000000E+00  0.99999998245E-14  0.12500000000E+03  0.12500000000E+03 0.  0.
        -13    1    3    3    0    0  0.23739905328E+02  0.37502956802E+02 -0.18522159666E+02  0.48095077051E+02  0.10566000000E+00 0.  1.
         23    2    1    0    0    0  0.42301592513E+01 -0.14460460474E+02 -0.15043093652E+02  0.10370930177E+03  0.10150037164E+03 0.  0.
         13    1    3    3    0    0 -0.19509746077E+02 -0.51963417275E+02  0.34790660137E+01  0.55614224721E+02  0.10566000000E+00 0. -1.
         22    1    1    0    0    0 -0.42301592513E+01  0.14460460474E+02  0.15043093652E+02  0.21290698228E+02  0.00000000000E+00 0. -1.
</event>
<event>
 5    1  0.9034917E-005  0.9118800E+02  0.7818608E-02  0.1130116E+00
         25   -1    0    0    0    0  0.00000000000E+00  0.00000000000E+00  0.99999998245E-14  0.12500000000E+03  0.12500000000E+03 0.  0.
        -13    1    3    3    0    0  0.22084265291E+02  0.38176509401E+01  0.28933335676E+02  0.36598337524E+02  0.10566000000E+00 0. -1.
         23    2    1    0    0    0 -0.21862952813E+02  0.18694893111E+02 -0.71307340517E+01  0.95363281182E+02  0.90641162259E+02 0.  0.
         13    1    3    3    0    0 -0.43947218105E+02  0.14877242171E+02 -0.36064069728E+02  0.58764943658E+02  0.10566000000E+00 0.  1.
         22    1    1    0    0    0  0.21862952813E+02 -0.18694893111E+02  0.71307340517E+01  0.29636718818E+02  0.00000000000E+00 0.  1.
</event>
<event>
 5    1  0.9034917E-005  0.9118800E+02  0.7818608E-02  0.1130116E+00
         25   -1    0    0    0    0  0.00000000000E+00  0.00000000000E+00  0.99999998245E-14  0.12500000000E+03  0.12500000000E+03 0.  0.
        -13    1    3    3    0    0 -0.32586418687E+02 -0.11195739937E+02  0.48520139648E+02  0.59509952034E+02  0.10566000000E+00 0.  1.
         23    2    1    0    0    0 -0.43898208743E+01 -0.12794447660E+02  0.26226190044E+02  0.95490993536E+02  0.90817115039E+02 0.  0.
         13    1    3    3    0    0  0.28196597813E+02 -0.15987077233E+01 -0.22293949604E+02  0.35981041502E+02  0.10566000000E+00 0. -1.
         22    1    1    0    0    0  0.43898208743E+01  0.12794447660E+02 -0.26226190044E+02  0.29509006464E+02  0.00000000000E+00 0.  1.
</event>
<event>
 5    1  0.9034917E-005  0.9118800E+02  0.7818608E-02  0.1130116E+00
         25   -1    0    0    0    0  0.00000000000E+00  0.00000000000E+00  0.99999998245E-14  0.12500000000E+03  0.12500000000E+03 0.  0.
        -13    1    3    3    0    0 -0.73714214224E+01  0.19419972787E+02  0.25843209563E+02  0.33156535425E+02  0.10566000000E+00 0. -1.
         23    2    1    0    0    0  0.28222347726E+02 -0.13343971478E+02 -0.86899492284E+01  0.92595097538E+02  0.86739693247E+02 0.  0.
         13    1    3    3    0    0  0.35593769148E+02 -0.32763944265E+02 -0.34533158791E+02  0.59438562113E+02  0.10566000000E+00 0.  1.
         22    1    1    0    0    0 -0.28222347726E+02  0.13343971478E+02  0.86899492284E+01  0.32404902462E+02  0.00000000000E+00 0.  1.
</event>
<event>
 5    1  0.9034917E-005  0.9118800E+02  0.7818608E-02  0.1130116E+00
         25   -1    0    0    0    0  0.00000000000E+00  0.00000000000E+00  0.99999998245E-14  0.12500000000E+03  0.12500000000E+03 0.  0.
        -13    1    3    3    0    0 -0.14490279191E+02  0.29021322830E+02  0.75908033256E+01  0.33314213618E+02  0.10566000000E+00 0. -1.
         23    2    1    0    0    0  0.17520192131E+02 -0.23691994804E+02  0.55236938190E+01  0.95020357849E+02  0.90167008725E+02 0.  0.
         13    1    3    3    0    0  0.32010471321E+02 -0.52713317634E+02 -0.20671095066E+01  0.61706144231E+02  0.10566000000E+00 0.  1.
         22    1    1    0    0    0 -0.17520192131E+02  0.23691994804E+02 -0.55236938190E+01  0.29979642151E+02  0.00000000000E+00 0.  1.
</event>
<event>
 5    1  0.9034917E-005  0.9118800E+02  0.7818608E-02  0.1130116E+00
         25   -1    0    0    0    0  0.00000000000E+00  0.00000000000E+00  0.99999998245E-14  0.12500000000E+03  0.12500000000E+03 0.  0.
        -13    1    3    3    0    0 -0.43742955375E+02  0.15094409474E+02  0.21954639197E+02  0.51218206612E+02  0.10566000000E+00 0.  1.
         23    2    1    0    0    0 -0.20866929949E+02 -0.19516751936E+02  0.52128487500E+01  0.95956822424E+02  0.91456030999E+02 0.  0.
         13    1    3    3    0    0  0.22876025426E+02 -0.34611161410E+02 -0.16741790447E+02  0.44738615812E+02  0.10566000000E+00 0. -1.
         22    1    1    0    0    0  0.20866929949E+02  0.19516751936E+02 -0.52128487500E+01  0.29043177576E+02  0.00000000000E+00 0. -1.
</event>
<event>
 5    1  0.9034917E-005  0.9118800E+02  0.7818608E-02  0.1130116E+00
         25   -1    0    0    0    0  0.00000000000E+00  0.00000000000E+00  0.99999998245E-14  0.12500000000E+03  0.12500000000E+03 0.  0.
        -13    1    3    3    0    0 -0.25059528165E+02 -0.25910851764E+02  0.19693398822E+02  0.41075458758E+02  0.10566000000E+00 0.  1.
         23    2    1    0    0    0 -0.21969310176E+02  0.22208166701E+02  0.17155901564E+02  0.89360440290E+02  0.81945775196E+02 0.  0.
         13    1    3    3    0    0  0.30902179884E+01  0.48119018464E+02 -0.25374972577E+01  0.48284981532E+02  0.10566000000E+00 0. -1.
         22    1    1    0    0    0  0.21969310176E+02 -0.22208166701E+02 -0.17155901564E+02  0.35639559710E+02  0.00000000000E+00 0. -1.
</event>
<event>
 5    1  0.9034917E-005  0.9118800E+02  0.7818608E-02  0.1130116E+00
         25   -1    0    0    0    0  0.00000000000E+00  0.00000000000E+00  0.99999998245E-14  0.12500000000E+03  0.12500000000E+03 0.  0.
        -13    1    3    3    0    0  0.41675883341E+02 -0.40865042474E+01  0.23692250640E+02  0.48113539400E+02  0.10566000000E+00 0. -1.
         23    2    1    0    0    0  0.93993183806E+01  0.26622653381E+02  0.55010484083E+01  0.96235883593E+02  0.91836653349E+02 0.  0.
         13    1    3    3    0    0 -0.32276564960E+02  0.30709157629E+02 -0.18191202232E+02  0.48122344193E+02  0.10566000000E+00 0.  1.
         22    1    1    0    0    0 -0.93993183806E+01 -0.26622653381E+02 -0.55010484083E+01  0.28764116407E+02  0.00000000000E+00 0. -1.
</event>
<event>
 5    1  0.9034917E-005  0.9118800E+02  0.7818608E-02  0.1130116E+00
         25   -1    0    0    0    0  0.00000000000E+00  0.00000000000E+00  0.99999998245E-14  0.12500000000E+03  0.12500000000E+03 0.  0.
        -13    1    3    3    0    0 -0.15661486638E+02  0.41581052236E+01 -0.34973805284E+02  0.38545430635E+02  0.10566000000E+00 0.  1.
         23    2    1    0    0    0 -0.32121504868E+02 -0.15712590381E+02  0.77075977633E+01  0.88420174485E+02  0.80498718134E+02 0.  0.
         13    1    3    3    0    0 -0.16460018229E+02 -0.19870695604E+02  0.42681403048E+02  0.49874743850E+02  0.10566000000E+00 0. -1.
         22    1    1    0    0    0  0.32121504868E+02  0.15712590381E+02 -0.77075977633E+01  0.36579825515E+02  0.00000000000E+00 0. -1.
</event>
<event>
 5    1  0.9034917E-005  0.9118800E+02  0.7818608E-02  0.1130116E+00
         25   -1    0    0    0    0  0.00000000000E+00  0.00000000000E+00  0.99999998245E-14  0.12500000000E+03  0.12500000000E+03 0.  0.
        -13    1    3    3    0    0  0.38403069882E+02  0.14835044913E+02  0.18380348476E+02  0.45085726212E+02  0.10566000000E+00 0. -1.
         23    2    1    0    0    0 -0.57195075087E+01  0.22548992258E+02 -0.11620067789E+02  0.98996235015E+02  0.95519939038E+02 0.  0.
         13    1    3    3    0    0 -0.44122577391E+02  0.77139473451E+01 -0.30000416265E+02  0.53910508803E+02  0.10566000000E+00 0.  1.
         22    1    1    0    0    0  0.57195075087E+01 -0.22548992258E+02  0.11620067789E+02  0.26003764985E+02  0.00000000000E+00 0. -1.
</event>
<event>
 5    1  0.9034917E-005  0.9118800E+02  0.7818608E-02  0.1130116E+00
         25   -1    0    0    0    0  0.00000000000E+00  0.00000000000E+00  0.99999998245E-14  0.12500000000E+03  0.12500000000E+03 0.  0.
        -13    1    3    3    0    0 -0.14463464589E+02  0.35729785036E+02 -0.42518537314E+02  0.57390299929E+02  0.10566000000E+00 0.  1.
         23    2    1    0    0    0 -0.16186581387E+02  0.30015506217E+02 -0.11449773618E+02  0.89027325004E+02  0.81436056210E+02 0.  0.
         13    1    3    3    0    0 -0.17231167973E+01 -0.57142788182E+01  0.31068763696E+02  0.31637025074E+02  0.10566000000E+00 0. -1.
         22    1    1    0    0    0  0.16186581387E+02 -0.30015506217E+02  0.11449773618E+02  0.35972674996E+02  0.00000000000E+00 0.  1.
</event>
<event>
 5    1  0.9034917E-005  0.9118800E+02  0.7818608E-02  0.1130116E+00
         25   -1    0    0    0    0  0.00000000000E+00  0.00000000000E+00  0.99999998245E-14  0.12500000000E+03  0.12500000000E+03 0.  0.
        -13    1    3    3    0    0 -0.25506727669E+02 -0.21667378339E+02  0.43128953674E+02  0.54591082143E+02  0.10566000000E+00 0. -1.
         23    2    1    0    0    0  0.87336788687E+01 -0.18682142039E+02  0.21539761393E+02  0.95179522160E+02  0.90387391488E+02 0.  0.
         13    1    3    3    0    0  0.34240406538E+02  0.29852363000E+01 -0.21589192282E+02  0.40588440017E+02  0.10566000000E+00 0.  1.
         22    1    1    0    0    0 -0.87336788687E+01  0.18682142039E+02 -0.21539761393E+02  0.29820477840E+02  0.00000000000E+00 0.  1.
</event>
<event>
 5    1  0.9034917E-005  0.9118800E+02  0.7818608E-02  0.1130116E+00
         25   -1    0    0    0    0  0.00000000000E+00  0.00000000000E+00  0.99999998245E-14  0.12500000000E+03  0.12500000000E+03 0.  0.
        -13    1    3    3    0    0 -0.31077374678E+02 -0.99740439230E+01 -0.12969833132E+02  0.35121396677E+02  0.10566000000E+00 0. -1.
         23    2    1    0    0    0  0.10686880585E+02  0.17972390425E+02  0.20673541614E+02  0.95595722129E+02  0.90961148477E+02 0.  0.
         13    1    3    3    0    0  0.41764255263E+02  0.27946434348E+02  0.33643374746E+02  0.60474325452E+02  0.10566000000E+00 0.  1.
         22    1    1    0    0    0 -0.10686880585E+02 -0.17972390425E+02 -0.20673541614E+02  0.29404277871E+02  0.00000000000E+00 0.  1.
</event>
<event>
 5    1  0.9034917E-005  0.9118800E+02  0.7818608E-02  0.1130116E+00
         25   -1    0    0    0    0  0.00000000000E+00  0.00000000000E+00  0.99999998245E-14  0.12500000000E+03  0.12500000000E+03 0.  0.
        -13    1    3    3    0    0  0.65166413472E+01 -0.35611521257E+02 -0.17851427340E+01  0.36246999314E+02  0.10566000000E+00 0.  1.
         23    2    1    0    0    0 -0.18920979388E+02  0.17195514996E+02 -0.13600152788E+02  0.96040487697E+02  0.91570311369E+02 0.  0.
         13    1    3    3    0    0 -0.25437620735E+02  0.52807036252E+02 -0.11815010054E+02  0.59793488383E+02  0.10566000000E+00 0. -1.
         22    1    1    0    0    0  0.18920979388E+02 -0.17195514996E+02  0.13600152788E+02  0.28959512303E+02  0.00000000000E+00 0. -1.
</event>
<event>
 5    1  0.9034917E-005  0.9118800E+02  0.7818608E-02  0.1130116E+00
         25   -1    0    0    0    0  0.00000000000E+00  0.00000000000E+00  0.99999998245E-14  0.12500000000E+03  0.12500000000E+03 0.  0.
        -13    1    3    3    0    0 -0.25439123159E+02  0.76241994916E+01 -0.55009383818E+02  0.61084538773E+02  0.10566000000E+00 0.  1.
         23    2    1    0    0    0 -0.56685612426E+01  0.10445289197E+02 -0.27152013638E+02  0.95361030760E+02  0.90638058729E+02 0.  0.
         13    1    3    3    0    0  0.19770561916E+02  0.28210897055E+01  0.27857370180E+02  0.34276491988E+02  0.10566000000E+00 0. -1.
         22    1    1    0    0    0  0.56685612426E+01 -0.10445289197E+02  0.27152013638E+02  0.29638969240E+02  0.00000000000E+00 0.  1.
</event>
<event>
 5    1  0.9034917E-005  0.9118800E+02  0.7818608E-02  0.1130116E+00
         25   -1    0    0    0    0  0.00000000000E+00  0.00000000000E+00  0.99999998245E-14  0.12500000000E+03  0.12500000000E+03 0.  0.
        -13    1    3    3    0    0  0.39363865976E+02  0.17775816478E+02 -0.77535426941E+01  0.43881911813E+02  0.10566000000E+00 0. -1.
         23    2    1    0    0    0  0.12247265082E+02 -0.24654087955E+02  0.74486044963E+01  0.96481562739E+02  0.92170443661E+02 0.  0.
         13    1    3    3    0    0 -0.27116600894E+02 -0.42429904433E+02  0.15202147190E+02  0.52599650925E+02  0.10566000000E+00 0.  1.
         22    1    1    0    0    0 -0.12247265082E+02  0.24654087955E+02 -0.74486044963E+01  0.28518437261E+02  0.00000000000E+00 0.  1.
</event>
<event>
 5    1  0.9034917E-005  0.9118800E+02  0.7818608E-02  0.1130116E+00
         25   -1    0    0    0    0  0.00000000000E+00  0.00000000000E+00  0.99999998245E-14  0.12500000000E+03  0.12500000000E+03 0.  0.
        -13    1    3    3    0    0  0.21794672176E+02 -0.16540884675E+02 -0.21416290335E+02  0.34745895540E+02  0.10566000000E+00 0.  1.
         23    2    1    0    0    0 -0.23640892367E+02 -0.69841997737E+01  0.17039270992E+02  0.95033225160E+02  0.90184845123E+02 0.  0.
         13    1    3    3    0    0 -0.45435564543E+02  0.95566849014E+01  0.38455561328E+02  0.60287329620E+02  0.10566000000E+00 0. -1.
         22    1    1    0    0    0  0.23640892367E+02  0.69841997737E+01 -0.17039270992E+02  0.29966774840E+02  0.00000000000E+00 0. -1.
</event>
<event>
 5    1  0.9034917E-005  0.9118800E+02  0.7818608E-02  0.1130116E+00
         25   -1    0    0    0    0  0.00000000000E+00  0.00000000000E+00  0.99999998245E-14  0.12500000000E+03  0.12500000000E+03 0.  0.
        -13    1    3    3    0    0 -0.45093561122E+01  0.29747034001E+02  0.16610309987E+02  0.34367628465E+02  0.10566000000E+00 0.  1.
         23    2    1    0    0    0  0.31474006160E+02 -0.12152039222E+02  0.86691131753E+01  0.90165553769E+02  0.83164826953E+02 0.  0.
         13    1    3    3    0    0  0.35983362272E+02 -0.41899073224E+02 -0.79411968113E+01  0.55797925304E+02  0.10566000000E+00 0. -1.
         22    1    1    0    0    0 -0.31474006160E+02  0.12152039222E+02 -0.86691131753E+01  0.34834446231E+02  0.00000000000E+00 0. -1.
</event>
<event>
 5    1  0.9034917E-005  0.9118800E+02  0.7818608E-02  0.1130116E+00
         25   -1    0    0    0    0  0.00000000000E+00  0.00000000000E+00  0.99999998245E-14  0.12500000000E+03  0.12500000000E+03 0.  0.
        -13    1    3    3    0    0  0.85761640380E+01 -0.20272762207E+02 -0.42414212234E+02  0.47786107192E+02  0.10566000000E+00 0. -1.
         23    2    1    0    0    0 -0.21233588395E+02 -0.20177298588E+02 -0.55630115027E+01  0.95184974402E+02  0.90394931276E+02 0.  0.
         13    1    3    3    0    0 -0.29809752433E+02  0.95463618175E-01  0.36851200731E+02  0.47398867210E+02  0.10566000000E+00 0.  1.
         22    1    1    0    0    0  0.21233588395E+02  0.20177298588E+02  0.55630115027E+01  0.29815025598E+02  0.00000000000E+00 0. -1.
</event>
<event>
 5    1  0.9034917E-005  0.9118800E+02  0.7818608E-02  0.1130116E+00
         25   -1    0    0    0    0  0.00000000000E+00  0.00000000000E+00  0.99999998245E-14  0.12500000000E+03  0.12500000000E+03 0.  0.
        -13    1    3    3    0    0  0.44843138764E+02 -0.66501717745E+01  0.24520244263E+02  0.51540134086E+02  0.10566000000E+00 0.  1.
         23    2    1    0    0    0  0.15807208998E+02 -0.18377462824E+02 -0.10555814320E+02  0.98560933978E+02  0.94948583426E+02 0.  0.
         13    1    3    3    0    0 -0.29035929767E+02 -0.11727291050E+02 -0.35076058583E+02  0.47020799892E+02  0.10566000000E+00 0. -1.
         22    1    1    0    0    0 -0.15807208998E+02  0.18377462824E+02  0.10555814320E+02  0.26439066022E+02  0.00000000000E+00 0. -1.
</event>
<event>
 5    1  0.9034917E-005  0.9118800E+02  0.7818608E-02  0.1130116E+00
         25   -1    0    0    0    0  0.00000000000E+00  0.00000000000E+00  0.99999998245E-14  0.12500000000E+03  0.12500000000E+03 0.  0.
        -13    1    3    3    0    0 -0.45648765638E+02  0.13980510501E+02  0.34561493443E+02  0.58938717929E+02  0.10566000000E+00 0. -1.
         23    2    1    0    0    0 -0.26277043528E+02 -0.66720849350E+01  0.11126438372E+02  0.95694755337E+02  0.91097139550E+02 0.  0.
         13    1    3    3    0    0  0.19371722110E+02 -0.20652595436E+02 -0.23435055071E+02  0.36756037408E+02  0.10566000000E+00 0.  1.
         22    1    1    0    0    0  0.26277043528E+02  0.66720849350E+01 -0.11126438372E+02  0.29305244663E+02  0.00000000000E+00 0. -1.
</event>
<event>
 5    1  0.9034917E-005  0.9118800E+02  0.7818608E-02  0.1130116E+00
         25   -1    0    0    0    0  0.00000000000E+00  0.00000000000E+00  0.99999998245E-14  0.12500000000E+03  0.12500000000E+03 0.  0.
        -13    1    3    3    0    0 -0.78310749764E+01 -0.27522345085E+02 -0.32331963045E+02  0.43176060643E+02  0.10566000000E+00 0.  1.
         23    2    1    0    0    0  0.43732703477E+01  0.13606210034E+02  0.13064403494E+02  0.10563681112E+03  0.10384701623E+03 0.  0.
         13    1    3    3    0    0  0.12204345324E+02  0.41128555119E+02  0.45396366539E+02  0.62460750475E+02  0.10566000000E+00 0. -1.
         22    1    1    0    0    0 -0.43732703477E+01 -0.13606210034E+02 -0.13064403494E+02  0.19363188882E+02  0.00000000000E+00 0. -1.
</event>
<event>
 5    1  0.9034917E-005  0.9118800E+02  0.7818608E-02  0.1130116E+00
         25   -1    0    0    0    0  0.00000000000E+00  0.00000000000E+00  0.99999998245E-14  0.12500000000E+03  0.12500000000E+03 0.  0.
        -13    1    3    3    0    0  0.45453846350E+00 -0.10613061861E+02  0.31009795317E+02  0.32778991090E+02  0.10566000000E+00 0.  1.
         23    2    1    0    0    0 -0.67415205252E+01  0.26824496413E+02 -0.15798183181E+02  0.93147460091E+02  0.87532079964E+02 0.  0.
         13    1    3    3    0    0 -0.71960589887E+01  0.37437558273E+02 -0.46807978498E+02  0.60368469001E+02  0.10566000000E+00 0. -1.
         22    1    1    0    0    0  0.67415205252E+01 -0.26824496413E+02  0.15798183181E+02  0.31852539909E+02  0.00000000000E+00 0. -1.
</event>
<event>
 5    1  0.9034917E-005  0.9118800E+02  0.7818608E-02  0.1130116E+00
         25   -1    0    0    0    0  0.00000000000E+00  0.00000000000E+00  0.99999998245E-14  0.12500000000E+03  0.12500000000E+03 0.  0.
        -13    1    3    3    0    0  0.10458218370E+01  0.52073671095E+02 -0.31677394121E+02  0.60960884401E+02  0.10566000000E+00 0.  1.
         23    2    1    0    0    0 -0.43798982938E+01  0.19352918408E+02 -0.21697734218E+02  0.95597438374E+02  0.90963506933E+02 0.  0.
         13    1    3    3    0    0 -0.54257201308E+01 -0.32720752687E+02  0.99796599036E+01  0.34636553974E+02  0.10566000000E+00 0. -1.
         22    1    1    0    0    0  0.43798982938E+01 -0.19352918408E+02  0.21697734218E+02  0.29402561626E+02  0.00000000000E+00 0.  1.
</event>
<event>
 5    1  0.9034917E-005  0.9118800E+02  0.7818608E-02  0.1130116E+00
         25   -1    0    0    0    0  0.00000000000E+00  0.00000000000E+00  0.99999998245E-14  0.12500000000E+03  0.12500000000E+03 0.  0.
        -13    1    3    3    0    0 -0.39258622447E+02 -0.16594699239E+02  0.39664865372E+01  0.42806163794E+02  0.10566000000E+00 0.  1.
         23    2    1    0    0    0 -0.99951008155E+01 -0.11850923899E+02 -0.32015893559E+02  0.89428046470E+02  0.82048836783E+02 0.  0.
         13    1    3    3    0    0  0.29263521632E+02  0.47437753395E+01 -0.35982380096E+02  0.46621882675E+02  0.10566000000E+00 0. -1.
         22    1    1    0    0    0  0.99951008155E+01  0.11850923899E+02  0.32015893559E+02  0.35571953530E+02  0.00000000000E+00 0.  1.
</event>
<event>
 5    1  0.9034917E-005  0.9118800E+02  0.7818608E-02  0.1130116E+00
         25   -1    0    0    0    0  0.00000000000E+00  0.00000000000E+00  0.99999998245E-14  0.12500000000E+03  0.12500000000E+03 0.  0.
        -13    1    3    3    0    0  0.56848452870E+00 -0.54956194546E+02 -0.83630886329E+01  0.55591896074E+02  0.10566000000E+00 0.  1.
         23    2    1    0    0    0  0.93606777134E+01 -0.19530918990E+02 -0.21593895420E+02  0.94416092414E+02  0.89325377712E+02 0.  0.
         13    1    3    3    0    0  0.87921931847E+01  0.35425275555E+02 -0.13230806787E+02  0.38824196340E+02  0.10566000000E+00 0. -1.
         22    1    1    0    0    0 -0.93606777134E+01  0.19530918990E+02  0.21593895420E+02  0.30583907586E+02  0.00000000000E+00 0.  1.
</event>
<event>
 5    1  0.9034917E-005  0.9118800E+02  0.7818608E-02  0.1130116E+00
         25   -1    0    0    0    0  0.00000000000E+00  0.00000000000E+00  0.99999998245E-14  0.12500000000E+03  0.12500000000E+03 0.  0.
        -13    1    3    3    0    0 -0.52421415374E+02 -0.17712617445E+01  0.27531951906E+02  0.59238177705E+02  0.10566000000E+00 0.  1.
         23    2    1    0    0    0 -0.21932076482E+02 -0.14910002086E+02  0.12402859904E+02  0.95722789156E+02  0.91135598363E+02 0.  0.
         13    1    3    3    0    0  0.30489338893E+02 -0.13138740341E+02 -0.15129092002E+02  0.36484611451E+02  0.10566000000E+00 0. -1.
         22    1    1    0    0    0  0.21932076482E+02  0.14910002086E+02 -0.12402859904E+02  0.29277210844E+02  0.00000000000E+00 0.  1.
</event>
<event>
 5    1  0.9034917E-005  0.9118800E+02  0.7818608E-02  0.1130116E+00
         25   -1    0    0    0    0  0.00000000000E+00  0.00000000000E+00  0.99999998245E-14  0.12500000000E+03  0.12500000000E+03 0.  0.
        -13    1    3    3    0    0  0.41918352686E+02  0.40048074584E+02 -0.21306587942E+02  0.61765511603E+02  0.10566000000E+00 0. -1.
         23    2    1    0    0    0  0.18791215962E+02  0.94674893847E+01 -0.53902911227E+01  0.10327907942E+03  0.10096915298E+03 0.  0.
         13    1    3    3    0    0 -0.23127136724E+02 -0.30580585199E+02  0.15916296820E+02  0.41513567814E+02  0.10566000000E+00 0.  1.
         22    1    1    0    0    0 -0.18791215962E+02 -0.94674893847E+01  0.53902911227E+01  0.21720920583E+02  0.00000000000E+00 0. -1.
</event>
<event>
 5    1  0.9034917E-005  0.9118800E+02  0.7818608E-02  0.1130116E+00
         25   -1    0    0    0    0  0.00000000000E+00  0.00000000000E+00  0.99999998245E-14  0.12500000000E+03  0.12500000000E+03 0.  0.
        -13    1    3    3    0    0  0.39346373862E+02  0.34627107545E+02  0.21219682138E+02  0.56546085516E+02  0.10566000000E+00 0.  1.
         23    2    1    0    0    0  0.22067492703E+02 -0.10094463427E+01  0.18398410090E+02  0.96251178982E+02  0.91857469731E+02 0.  0.
         13    1    3    3    0    0 -0.17278881160E+02 -0.35636553888E+02 -0.28212720482E+01  0.39705093466E+02  0.10566000000E+00 0. -1.
         22    1    1    0    0    0 -0.22067492703E+02  0.10094463427E+01 -0.18398410090E+02  0.28748821018E+02  0.00000000000E+00 0.  1.
</event>
<event>
 5    1  0.9034917E-005  0.9118800E+02  0.7818608E-02  0.1130116E+00
         25   -1    0    0    0    0  0.00000000000E+00  0.00000000000E+00  0.99999998245E-14  0.12500000000E+03  0.12500000000E+03 0.  0.
        -13    1    3    3    0    0 -0.44704449737E+01 -0.40368776042E+02  0.33769600265E+02  0.52820640127E+02  0.10566000000E+00 0.  1.
         23    2    1    0    0    0  0.18250895966E+02 -0.57758318683E+01  0.21975289042E+02  0.95856068113E+02  0.91318218491E+02 0.  0.
         13    1    3    3    0    0  0.22721340940E+02  0.34592944173E+02 -0.11794311223E+02  0.43035427986E+02  0.10566000000E+00 0. -1.
         22    1    1    0    0    0 -0.18250895966E+02  0.57758318683E+01 -0.21975289042E+02  0.29143931887E+02  0.00000000000E+00 0.  1.
</event>
<event>
 5    1  0.9034917E-005  0.9118800E+02  0.7818608E-02  0.1130116E+00
         25   -1    0    0    0    0  0.00000000000E+00  0.00000000000E+00  0.99999998245E-14  0.12500000000E+03  0.12500000000E+03 0.  0.
        -13    1    3    3    0    0 -0.23879055232E+02  0.12899990797E+01  0.52320824239E+02  0.57526977928E+02  0.10566000000E+00 0.  1.
         23    2    1    0    0    0 -0.13633507821E+02  0.17601424164E+02  0.20434409215E+02  0.94780010787E+02  0.89833193735E+02 0.  0.
         13    1    3    3    0    0  0.10245547411E+02  0.16311425084E+02 -0.31886415024E+02  0.37253032859E+02  0.10566000000E+00 0. -1.
         22    1    1    0    0    0  0.13633507821E+02 -0.17601424164E+02 -0.20434409215E+02  0.30219989213E+02  0.00000000000E+00 0.  1.
</event>
<event>
 5    1  0.9034917E-005  0.9118800E+02  0.7818608E-02  0.1130116E+00
         25   -1    0    0    0    0  0.00000000000E+00  0.00000000000E+00  0.99999998245E-14  0.12500000000E+03  0.12500000000E+03 0.  0.
        -13    1    3    3    0    0 -0.53779513862E+02 -0.28467508631E+00 -0.36461455671E+00  0.53781607069E+02  0.10566000000E+00 0. -1.
         23    2    1    0    0    0 -0.18968069290E+02  0.10071780337E+02  0.20198024147E+02  0.95517995468E+02  0.90854272696E+02 0.  0.
         13    1    3    3    0    0  0.34811444572E+02  0.10356455424E+02  0.20562638704E+02  0.41736388399E+02  0.10566000000E+00 0.  1.
         22    1    1    0    0    0  0.18968069290E+02 -0.10071780337E+02 -0.20198024147E+02  0.29482004532E+02  0.00000000000E+00 0. -1.
</event>
<event>
 5    1  0.9034917E-005  0.9118800E+02  0.7818608E-02  0.1130116E+00
         25   -1    0    0    0    0  0.00000000000E+00  0.00000000000E+00  0.99999998245E-14  0.12500000000E+03  0.12500000000E+03 0.  0.
        -13    1    3    3    0    0  0.21311705838E+02 -0.14413926984E+02 -0.15633650362E+02  0.30106017414E+02  0.10566000000E+00 0.  1.
         23    2    1    0    0    0 -0.22501902075E+02  0.21744246128E+02  0.96053181724E+01  0.92267600549E+02  0.86266448502E+02 0.  0.
         13    1    3    3    0    0 -0.43813607913E+02  0.36158173112E+02  0.25238968535E+02  0.62161583135E+02  0.10566000000E+00 0. -1.
         22    1    1    0    0    0  0.22501902075E+02 -0.21744246128E+02 -0.96053181724E+01  0.32732399451E+02  0.00000000000E+00 0. -1.
</event>
<event>
 5    1  0.9034917E-005  0.9118800E+02  0.7818608E-02  0.1130116E+00
         25   -1    0    0    0    0  0.00000000000E+00  0.00000000000E+00  0.99999998245E-14  0.12500000000E+03  0.12500000000E+03 0.  0.
        -13    1    3    3    0    0 -0.50530900525E+02 -0.22982185899E+01 -0.34892763059E+02  0.61450547552E+02  0.10566000000E+00 0.  1.
         23    2    1    0    0    0 -0.26745090814E+02  0.34514334655E+01 -0.10331351259E+02  0.96121823214E+02  0.91681272916E+02 0.  0.
         13    1    3    3    0    0  0.23785809711E+02  0.57496520554E+01  0.24561411800E+02  0.34671275662E+02  0.10566000000E+00 0. -1.
         22    1    1    0    0    0  0.26745090814E+02 -0.34514334655E+01  0.10331351259E+02  0.28878176786E+02  0.00000000000E+00 0.  1.
</event>
<event>
 5    1  0.9034917E-005  0.9118800E+02  0.7818608E-02  0.1130116E+00
         25   -1    0    0    0    0  0.00000000000E+00  0.00000000000E+00  0.99999998245E-14  0.12500000000E+03  0.12500000000E+03 0.  0.
        -13    1    3    3    0    0 -0.32044097817E+02  0.77186307452E-01  0.19755169999E+02  0.37644495857E+02  0.10566000000E+00 0.  1.
         23    2    1    0    0    0  0.17225711136E+01  0.12220149771E+02 -0.26252583726E+02  0.95991424303E+02  0.91503311830E+02 0.  0.
         13    1    3    3    0    0  0.33766668930E+02  0.12142963463E+02 -0.46007753725E+02  0.58346928446E+02  0.10566000000E+00 0. -1.
         22    1    1    0    0    0 -0.17225711136E+01 -0.12220149771E+02  0.26252583726E+02  0.29008575697E+02  0.00000000000E+00 0. -1.
</event>
<event>
 5    1  0.9034917E-005  0.9118800E+02  0.7818608E-02  0.1130116E+00
         25   -1    0    0    0    0  0.00000000000E+00  0.00000000000E+00  0.99999998245E-14  0.12500000000E+03  0.12500000000E+03 0.  0.
        -13    1    3    3    0    0 -0.39430692614E+02  0.23462510849E+02 -0.31242214248E+02  0.55509963524E+02  0.10566000000E+00 0. -1.
         23    2    1    0    0    0 -0.15940566040E+02 -0.77193343433E+01 -0.23929980638E+02  0.95228642259E+02  0.90455295947E+02 0.  0.
         13    1    3    3    0    0  0.23490126574E+02 -0.31181845192E+02  0.73122336097E+01  0.39718678735E+02  0.10566000000E+00 0.  1.
         22    1    1    0    0    0  0.15940566040E+02  0.77193343433E+01  0.23929980638E+02  0.29771357741E+02  0.00000000000E+00 0. -1.
</event>
<event>
 5    1  0.9034917E-005  0.9118800E+02  0.7818608E-02  0.1130116E+00
         25   -1    0    0    0    0  0.00000000000E+00  0.00000000000E+00  0.99999998245E-14  0.12500000000E+03  0.12500000000E+03 0.  0.
        -13    1    3    3    0    0  0.11001492086E+02 -0.35644297272E+02 -0.15104585006E+02  0.40245601106E+02  0.10566000000E+00 0. -1.
         23    2    1    0    0    0 -0.27677907831E+02 -0.42830240459E+01  0.90178309773E+01  0.95576673328E+02  0.90934967598E+02 0.  0.
         13    1    3    3    0    0 -0.38679399917E+02  0.31361273226E+02  0.24122415984E+02  0.55331072222E+02  0.10566000000E+00 0.  1.
         22    1    1    0    0    0  0.27677907831E+02  0.42830240459E+01 -0.90178309773E+01  0.29423326672E+02  0.00000000000E+00 0.  1.
</event>
<event>
 5    1  0.9034917E-005  0.9118800E+02  0.7818608E-02  0.1130116E+00
         25   -1    0    0    0    0  0.00000000000E+00  0.00000000000E+00  0.99999998245E-14  0.12500000000E+03  0.12500000000E+03 0.  0.
        -13    1    3    3    0    0  0.45839100273E+01 -0.55679677533E+02  0.17250148217E+02  0.58470655023E+02  0.10566000000E+00 0.  1.
         23    2    1    0    0    0  0.59530077194E+01 -0.27664165131E+02 -0.73329528404E+01  0.95767885286E+02  0.91197430455E+02 0.  0.
         13    1    3    3    0    0  0.13690976921E+01  0.28015512402E+02 -0.24583101057E+02  0.37297230263E+02  0.10566000000E+00 0. -1.
         22    1    1    0    0    0 -0.59530077194E+01  0.27664165131E+02  0.73329528404E+01  0.29232114714E+02  0.00000000000E+00 0.  1.
</event>
<event>
 5    1  0.9034917E-005  0.9118800E+02  0.7818608E-02  0.1130116E+00
         25   -1    0    0    0    0  0.00000000000E+00  0.00000000000E+00  0.99999998245E-14  0.12500000000E+03  0.12500000000E+03 0.  0.
        -13    1    3    3    0    0 -0.34326095794E+02  0.77173323478E+00 -0.47613881223E+02  0.58702378775E+02  0.10566000000E+00 0.  1.
         23    2    1    0    0    0 -0.30199938716E+01  0.56968426717E+01 -0.28648009204E+02  0.95635347597E+02  0.91015586023E+02 0.  0.
         13    1    3    3    0    0  0.31306101922E+02  0.49251094369E+01  0.18965872019E+02  0.36932968822E+02  0.10566000000E+00 0. -1.
         22    1    1    0    0    0  0.30199938716E+01 -0.56968426717E+01  0.28648009204E+02  0.29364652403E+02  0.00000000000E+00 0.  1.
</event>
<event>
 5    1  0.9034917E-005  0.9118800E+02  0.7818608E-02  0.1130116E+00
         25   -1    0    0    0    0  0.00000000000E+00  0.00000000000E+00  0.99999998245E-14  0.12500000000E+03  0.12500000000E+03 0.  0.
        -13    1    3    3    0    0  0.33321178289E+01  0.12982652705E+02  0.31477391535E+02  0.34212419125E+02  0.10566000000E+00 0. -1.
         23    2    1    0    0    0 -0.99313799878E+01 -0.19690148336E+02 -0.19070683530E+02  0.95844808005E+02  0.91302803907E+02 0.  0.
         13    1    3    3    0    0 -0.13263497817E+02 -0.32672801041E+02 -0.50548075065E+02  0.61632388880E+02  0.10566000000E+00 0.  1.
         22    1    1    0    0    0  0.99313799878E+01  0.19690148336E+02  0.19070683530E+02  0.29155191995E+02  0.00000000000E+00 0.  1.
</event>
<event>
 5    1  0.9034917E-005  0.9118800E+02  0.7818608E-02  0.1130116E+00
         25   -1    0    0    0    0  0.00000000000E+00  0.00000000000E+00  0.99999998245E-14  0.12500000000E+03  0.12500000000E+03 0.  0.
        -13    1    3    3    0    0  0.99304652266E+01  0.60468348260E+02  0.42369430635E+01  0.61424735501E+02  0.10566000000E+00 0. -1.
         23    2    1    0    0    0  0.11520600900E+02  0.27424155485E+02  0.63839387470E+01  0.94576929427E+02  0.89550166704E+02 0.  0.
         13    1    3    3    0    0  0.15901356736E+01 -0.33044192774E+02  0.21469956835E+01  0.33152193925E+02  0.10566000000E+00 0.  1.
         22    1    1    0    0    0 -0.11520600900E+02 -0.27424155485E+02 -0.63839387470E+01  0.30423070573E+02  0.00000000000E+00 0. -1.
</event>
<event>
 5    1  0.9034917E-005  0.9118800E+02  0.7818608E-02  0.1130116E+00
         25   -1    0    0    0    0  0.00000000000E+00  0.00000000000E+00  0.99999998245E-14  0.12500000000E+03  0.12500000000E+03 0.  0.
        -13    1    3    3    0    0 -0.47121753554E+02  0.40537882456E+01 -0.17458947615E+02  0.50415462638E+02  0.10566000000E+00 0. -1.
         23    2    1    0    0    0 -0.27194407948E+01  0.11691756148E+02 -0.26082423896E+02  0.96287888334E+02  0.91907410383E+02 0.  0.
         13    1    3    3    0    0  0.44402312759E+02  0.76379679024E+01 -0.86234762813E+01  0.45872425696E+02  0.10566000000E+00 0.  1.
         22    1    1    0    0    0  0.27194407948E+01 -0.11691756148E+02  0.26082423896E+02  0.28712111666E+02  0.00000000000E+00 0. -1.
</event>
<event>
 5    1  0.9034917E-005  0.9118800E+02  0.7818608E-02  0.1130116E+00
         25   -1    0    0    0    0  0.00000000000E+00  0.00000000000E+00  0.99999998245E-14  0.12500000000E+03  0.12500000000E+03 0.  0.
        -13    1    3    3    0    0 -0.34080023865E+02  0.29615123639E+02 -0.28354448961E+02  0.53315002717E+02  0.10566000000E+00 0. -1.
         23    2    1    0    0    0 -0.27317820845E+02  0.12703996145E+01  0.45595771072E+01  0.97275155649E+02  0.93240489661E+02 0.  0.
         13    1    3    3    0    0  0.67622030198E+01 -0.28344724025E+02  0.32914026068E+02  0.43960152932E+02  0.10566000000E+00 0.  1.
         22    1    1    0    0    0  0.27317820845E+02 -0.12703996145E+01 -0.45595771072E+01  0.27724844351E+02  0.00000000000E+00 0. -1.
</event>
<event>
 5    1  0.9034917E-005  0.9118800E+02  0.7818608E-02  0.1130116E+00
         25   -1    0    0    0    0  0.00000000000E+00  0.00000000000E+00  0.99999998245E-14  0.12500000000E+03  0.12500000000E+03 0.  0.
        -13    1    3    3    0    0 -0.57491843199E+01  0.35921067860E+02 -0.38618012510E+02  0.53054107200E+02  0.10566000000E+00 0. -1.
         23    2    1    0    0    0 -0.23816143080E+02  0.42937270801E+01 -0.17221192663E+02  0.95297908488E+02  0.90550964225E+02 0.  0.
         13    1    3    3    0    0 -0.18066958760E+02 -0.31627340780E+02  0.21396819847E+02  0.42243801288E+02  0.10566000000E+00 0.  1.
         22    1    1    0    0    0  0.23816143080E+02 -0.42937270801E+01  0.17221192663E+02  0.29702091512E+02  0.00000000000E+00 0. -1.
</event>
<event>
 5    1  0.9034917E-005  0.9118800E+02  0.7818608E-02  0.1130116E+00
         25   -1    0    0    0    0  0.00000000000E+00  0.00000000000E+00  0.99999998245E-14  0.12500000000E+03  0.12500000000E+03 0.  0.
        -13    1    3    3    0    0  0.20601469403E+02  0.35551833553E+02 -0.45234665416E+00  0.41092203544E+02  0.10566000000E+00 0.  1.
         23    2    1    0    0    0 -0.26489829736E+02  0.44594476016E+01 -0.48884884755E+01  0.97696244362E+02  0.93803310659E+02 0.  0.
         13    1    3    3    0    0 -0.47091299139E+02 -0.31092385951E+02 -0.44361418213E+01  0.56604040819E+02  0.10566000000E+00 0. -1.
         22    1    1    0    0    0  0.26489829736E+02 -0.44594476016E+01  0.48884884755E+01  0.27303755638E+02  0.00000000000E+00 0. -1.
</event>
<event>
 5    1  0.9034917E-005  0.9118800E+02  0.7818608E-02  0.1130116E+00
         25   -1    0    0    0    0  0.00000000000E+00  0.00000000000E+00  0.99999998245E-14  0.12500000000E+03  0.12500000000E+03 0.  0.
        -13    1    3    3    0    0  0.19379083690E+02 -0.46564677789E+02  0.26878900678E+02  0.57151592873E+02  0.10566000000E+00 0.  1.
         23    2    1    0    0    0  0.25125990724E+02 -0.13632470750E+02  0.91900398442E+01  0.94973070404E+02  0.90101429517E+02 0.  0.
         13    1    3    3    0    0  0.57469070349E+01  0.32932207040E+02 -0.17688860834E+02  0.37821477531E+02  0.10566000000E+00 0. -1.
         22    1    1    0    0    0 -0.25125990724E+02  0.13632470750E+02 -0.91900398442E+01  0.30026929596E+02  0.00000000000E+00 0.  1.
</event>
<event>
 5    1  0.9034917E-005  0.9118800E+02  0.7818608E-02  0.1130116E+00
         25   -1    0    0    0    0  0.00000000000E+00  0.00000000000E+00  0.99999998245E-14  0.12500000000E+03  0.12500000000E+03 0.  0.
        -13    1    3    3    0    0  0.27688518975E+02  0.51300462624E+02 -0.20182066325E+02  0.61690505863E+02  0.10566000000E+00 0.  1.
         23    2    1    0    0    0  0.19591473467E+02  0.21755912695E+02 -0.80809861174E+01  0.94628172487E+02  0.89621666587E+02 0.  0.
         13    1    3    3    0    0 -0.80970455082E+01 -0.29544549928E+02  0.12101080208E+02  0.32937666624E+02  0.10566000000E+00 0. -1.
         22    1    1    0    0    0 -0.19591473467E+02 -0.21755912695E+02  0.80809861174E+01  0.30371827513E+02  0.00000000000E+00 0.  1.
</event>
<event>
 5    1  0.9034917E-005  0.9118800E+02  0.7818608E-02  0.1130116E+00
         25   -1    0    0    0    0  0.00000000000E+00  0.00000000000E+00  0.99999998245E-14  0.12500000000E+03  0.12500000000E+03 0.  0.
        -13    1    3    3    0    0  0.40587496272E+01  0.29359206078E+01  0.29373872710E+02  0.29798131491E+02  0.10566000000E+00 0. -1.
         23    2    1    0    0    0 -0.43449721442E+00 -0.43575578846E+02  0.10637122320E+02  0.80142801794E+02  0.66413104494E+02 0.  0.
         13    1    3    3    0    0 -0.44932468417E+01 -0.46511499454E+02 -0.18736750390E+02  0.50344670303E+02  0.10566000000E+00 0.  1.
         22    1    1    0    0    0  0.43449721442E+00  0.43575578846E+02 -0.10637122320E+02  0.44857198206E+02  0.00000000000E+00 0.  1.
</event>
<event>
 5    1  0.9034917E-005  0.9118800E+02  0.7818608E-02  0.1130116E+00
         25   -1    0    0    0    0  0.00000000000E+00  0.00000000000E+00  0.99999998245E-14  0.12500000000E+03  0.12500000000E+03 0.  0.
        -13    1    3    3    0    0  0.37396227251E+02 -0.26872070487E+02 -0.25716172748E+02  0.52743897180E+02  0.10566000000E+00 0. -1.
         23    2    1    0    0    0  0.11171351558E+02 -0.28269557524E+02  0.60981645977E+01  0.93997506718E+02  0.88737684664E+02 0.  0.
         13    1    3    3    0    0 -0.26224875693E+02 -0.13974870375E+01  0.31814337346E+02  0.41253609538E+02  0.10566000000E+00 0.  1.
         22    1    1    0    0    0 -0.11171351558E+02  0.28269557524E+02 -0.60981645977E+01  0.31002493282E+02  0.00000000000E+00 0. -1.
</event>
<event>
 5    1  0.9034917E-005  0.9118800E+02  0.7818608E-02  0.1130116E+00
         25   -1    0    0    0    0  0.00000000000E+00  0.00000000000E+00  0.99999998245E-14  0.12500000000E+03  0.12500000000E+03 0.  0.
        -13    1    3    3    0    0 -0.35161861789E+02  0.67634565954E+00  0.49136447661E+01  0.35510125835E+02  0.10566000000E+00 0.  1.
         23    2    1    0    0    0  0.20588465495E+02 -0.18944021604E+02  0.11026670312E+02  0.94927615257E+02  0.90038346354E+02 0.  0.
         13    1    3    3    0    0  0.55750327284E+02 -0.19620367263E+02  0.61130255459E+01  0.59417489422E+02  0.10566000000E+00 0. -1.
         22    1    1    0    0    0 -0.20588465495E+02  0.18944021604E+02 -0.11026670312E+02  0.30072384743E+02  0.00000000000E+00 0. -1.
</event>
<event>
 5    1  0.9034917E-005  0.9118800E+02  0.7818608E-02  0.1130116E+00
         25   -1    0    0    0    0  0.00000000000E+00  0.00000000000E+00  0.99999998245E-14  0.12500000000E+03  0.12500000000E+03 0.  0.
        -13    1    3    3    0    0  0.15005951695E+02  0.92576631083E+01  0.38809502441E+02  0.42627122308E+02  0.10566000000E+00 0.  1.
         23    2    1    0    0    0 -0.18518237171E+02  0.23024377095E+02  0.37940812242E+00  0.95450194602E+02  0.90760942318E+02 0.  0.
         13    1    3    3    0    0 -0.33524188866E+02  0.13766713987E+02 -0.38430094319E+02  0.52823072293E+02  0.10566000000E+00 0. -1.
         22    1    1    0    0    0  0.18518237171E+02 -0.23024377095E+02 -0.37940812242E+00  0.29549805398E+02  0.00000000000E+00 0. -1.
</event>
<event>
 5    1  0.9034917E-005  0.9118800E+02  0.7818608E-02  0.1130116E+00
         25   -1    0    0    0    0  0.00000000000E+00  0.00000000000E+00  0.99999998245E-14  0.12500000000E+03  0.12500000000E+03 0.  0.
        -13    1    3    3    0    0  0.93517966394E+01  0.42295222410E+02 -0.32229984718E+02  0.53991897707E+02  0.10566000000E+00 0.  1.
         23    2    1    0    0    0  0.11017463395E+02  0.27262712236E+02  0.58973893012E+01  0.95009681918E+02  0.90152207291E+02 0.  0.
         13    1    3    3    0    0  0.16656667558E+01 -0.15032510174E+02  0.38127374019E+02  0.41017784210E+02  0.10566000000E+00 0. -1.
         22    1    1    0    0    0 -0.11017463395E+02 -0.27262712236E+02 -0.58973893012E+01  0.29990318082E+02  0.00000000000E+00 0. -1.
</event>
<event>
 5    1  0.9034917E-005  0.9118800E+02  0.7818608E-02  0.1130116E+00
         25   -1    0    0    0    0  0.00000000000E+00  0.00000000000E+00  0.99999998245E-14  0.12500000000E+03  0.12500000000E+03 0.  0.
        -13    1    3    3    0    0  0.89632695479E+01 -0.51308828198E+02 -0.28905722204E+02  0.59569186600E+02  0.10566000000E+00 0.  1.
         23    2    1    0    0    0  0.17766057456E+02 -0.23092860174E+02 -0.13876265715E+02  0.92728282680E+02  0.86931413598E+02 0.  0.
         13    1    3    3    0    0  0.88027879084E+01  0.28215968023E+02  0.15029456489E+02  0.33159096080E+02  0.10566000000E+00 0. -1.
         22    1    1    0    0    0 -0.17766057456E+02  0.23092860174E+02  0.13876265715E+02  0.32271717320E+02  0.00000000000E+00 0.  1.
</event>
<event>
 5    1  0.9034917E-005  0.9118800E+02  0.7818608E-02  0.1130116E+00
         25   -1    0    0    0    0  0.00000000000E+00  0.00000000000E+00  0.99999998245E-14  0.12500000000E+03  0.12500000000E+03 0.  0.
        -13    1    3    3    0    0  0.29728071826E+01  0.16626788144E+01  0.24951879516E+02  0.25183517205E+02  0.10566000000E+00 0.  1.
         23    2    1    0    0    0 -0.38109112436E+02  0.24972818896E+02 -0.16760770340E+01  0.79406630213E+02  0.65012749159E+02 0.  0.
         13    1    3    3    0    0 -0.41081919619E+02  0.23310140082E+02 -0.26627956550E+02  0.54223113008E+02  0.10566000000E+00 0. -1.
         22    1    1    0    0    0  0.38109112436E+02 -0.24972818896E+02  0.16760770340E+01  0.45593369787E+02  0.00000000000E+00 0. -1.
</event>
<event>
 5    1  0.9034917E-005  0.9118800E+02  0.7818608E-02  0.1130116E+00
         25   -1    0    0    0    0  0.00000000000E+00  0.00000000000E+00  0.99999998245E-14  0.12500000000E+03  0.12500000000E+03 0.  0.
        -13    1    3    3    0    0 -0.21997036336E+01 -0.44123256974E+02  0.11070671242E+02  0.45544170076E+02  0.10566000000E+00 0.  1.
         23    2    1    0    0    0 -0.24379755008E+02 -0.40398543406E+01 -0.12765611613E+02  0.97185368649E+02  0.93120041679E+02 0.  0.
         13    1    3    3    0    0 -0.22180051374E+02  0.40083402634E+02 -0.23836282855E+02  0.51641198573E+02  0.10566000000E+00 0. -1.
         22    1    1    0    0    0  0.24379755008E+02  0.40398543406E+01  0.12765611613E+02  0.27814631351E+02  0.00000000000E+00 0.  1.
</event>
<event>
 5    1  0.9034917E-005  0.9118800E+02  0.7818608E-02  0.1130116E+00
         25   -1    0    0    0    0  0.00000000000E+00  0.00000000000E+00  0.99999998245E-14  0.12500000000E+03  0.12500000000E+03 0.  0.
        -13    1    3    3    0    0  0.33458644426E+02  0.10159728452E+02  0.10788782434E+02  0.36593851390E+02  0.10566000000E+00 0.  1.
         23    2    1    0    0    0 -0.22645544613E+02  0.20510951873E+02  0.13833092189E+01  0.94415144566E+02  0.89324051304E+02 0.  0.
         13    1    3    3    0    0 -0.56104189040E+02  0.10351223420E+02 -0.94054732156E+01  0.57821293176E+02  0.10566000000E+00 0. -1.
         22    1    1    0    0    0  0.22645544613E+02 -0.20510951873E+02 -0.13833092189E+01  0.30584855434E+02  0.00000000000E+00 0. -1.
</event>
<event>
 5    1  0.9034917E-005  0.9118800E+02  0.7818608E-02  0.1130116E+00
         25   -1    0    0    0    0  0.00000000000E+00  0.00000000000E+00  0.99999998245E-14  0.12500000000E+03  0.12500000000E+03 0.  0.
        -13    1    3    3    0    0  0.20513557658E+02  0.20096952021E+02  0.54230690756E+02  0.61365075672E+02  0.10566000000E+00 0. -1.
         23    2    1    0    0    0  0.80776705970E+01  0.17567134444E+01  0.28514886945E+02  0.95311052867E+02  0.90569107408E+02 0.  0.
         13    1    3    3    0    0 -0.12435887061E+02 -0.18340238577E+02 -0.25715803811E+02  0.33945977195E+02  0.10566000000E+00 0.  1.
         22    1    1    0    0    0 -0.80776705970E+01 -0.17567134444E+01 -0.28514886945E+02  0.29688947133E+02  0.00000000000E+00 0. -1.
</event>
<event>
 5    1  0.9034917E-005  0.9118800E+02  0.7818608E-02  0.1130116E+00
         25   -1    0    0    0    0  0.00000000000E+00  0.00000000000E+00  0.99999998245E-14  0.12500000000E+03  0.12500000000E+03 0.  0.
        -13    1    3    3    0    0  0.47161698727E+02 -0.91883478907E+01  0.39725482187E+02  0.62344018661E+02  0.10566000000E+00 0. -1.
         23    2    1    0    0    0  0.20737134968E+02 -0.51728597877E+01  0.21429122187E+02  0.94734598586E+02  0.89769981878E+02 0.  0.
         13    1    3    3    0    0 -0.26424563759E+02  0.40154881029E+01 -0.18296360000E+02  0.32390579924E+02  0.10566000000E+00 0.  1.
         22    1    1    0    0    0 -0.20737134968E+02  0.51728597877E+01 -0.21429122187E+02  0.30265401414E+02  0.00000000000E+00 0. -1.
</event>
<event>
 5    1  0.9034917E-005  0.9118800E+02  0.7818608E-02  0.1130116E+00
         25   -1    0    0    0    0  0.00000000000E+00  0.00000000000E+00  0.99999998245E-14  0.12500000000E+03  0.12500000000E+03 0.  0.
        -13    1    3    3    0    0  0.46240191676E+02  0.12005128715E+02 -0.13956722543E+02  0.49770269337E+02  0.10566000000E+00 0.  1.
         23    2    1    0    0    0  0.32684058740E+01 -0.34820946332E+01 -0.27243534282E+02  0.97341048101E+02  0.93328784548E+02 0.  0.
         13    1    3    3    0    0 -0.42971785802E+02 -0.15487223348E+02 -0.13286811739E+02  0.47570778764E+02  0.10566000000E+00 0. -1.
         22    1    1    0    0    0 -0.32684058740E+01  0.34820946332E+01  0.27243534282E+02  0.27658951899E+02  0.00000000000E+00 0.  1.
</event>
<event>
 5    1  0.9034917E-005  0.9118800E+02  0.7818608E-02  0.1130116E+00
         25   -1    0    0    0    0  0.00000000000E+00  0.00000000000E+00  0.99999998245E-14  0.12500000000E+03  0.12500000000E+03 0.  0.
        -13    1    3    3    0    0  0.28696803371E+02 -0.36981051989E+02  0.11716907518E+02  0.48253516098E+02  0.10566000000E+00 0.  1.
         23    2    1    0    0    0  0.99788701071E+01  0.34784598285E+01  0.27495857844E+02  0.95543256630E+02  0.90889021106E+02 0.  0.
         13    1    3    3    0    0 -0.18717933264E+02  0.40459511818E+02  0.15778950326E+02  0.47289740533E+02  0.10566000000E+00 0. -1.
         22    1    1    0    0    0 -0.99788701071E+01 -0.34784598285E+01 -0.27495857844E+02  0.29456743370E+02  0.00000000000E+00 0.  1.
</event>
<event>
 5    1  0.9034917E-005  0.9118800E+02  0.7818608E-02  0.1130116E+00
         25   -1    0    0    0    0  0.00000000000E+00  0.00000000000E+00  0.99999998245E-14  0.12500000000E+03  0.12500000000E+03 0.  0.
        -13    1    3    3    0    0  0.44722644043E+01  0.12154030488E+02 -0.30735842957E+02  0.33353033030E+02  0.10566000000E+00 0.  1.
         23    2    1    0    0    0 -0.38560003359E+02 -0.57466803374E+01 -0.20011655884E+02  0.81178035585E+02  0.68333804930E+02 0.  0.
         13    1    3    3    0    0 -0.43032267764E+02 -0.17900710825E+02  0.10724187073E+02  0.47825002555E+02  0.10566000000E+00 0. -1.
         22    1    1    0    0    0  0.38560003359E+02  0.57466803374E+01  0.20011655884E+02  0.43821964415E+02  0.00000000000E+00 0. -1.
</event>
<event>
 5    1  0.9034917E-005  0.9118800E+02  0.7818608E-02  0.1130116E+00
         25   -1    0    0    0    0  0.00000000000E+00  0.00000000000E+00  0.99999998245E-14  0.12500000000E+03  0.12500000000E+03 0.  0.
        -13    1    3    3    0    0 -0.19275229056E+02  0.40151534465E+02  0.32809149930E+02  0.55318456759E+02  0.10566000000E+00 0.  1.
         23    2    1    0    0    0 -0.13682610633E+02  0.10941185451E+01  0.26335631317E+02  0.95301912418E+02  0.90556491234E+02 0.  0.
         13    1    3    3    0    0  0.55926184230E+01 -0.39057415920E+02 -0.64735186133E+01  0.39983455659E+02  0.10566000000E+00 0. -1.
         22    1    1    0    0    0  0.13682610633E+02 -0.10941185451E+01 -0.26335631317E+02  0.29698087582E+02  0.00000000000E+00 0.  1.
</event>
<event>
 5    1  0.9034917E-005  0.9118800E+02  0.7818608E-02  0.1130116E+00
         25   -1    0    0    0    0  0.00000000000E+00  0.00000000000E+00  0.99999998245E-14  0.12500000000E+03  0.12500000000E+03 0.  0.
        -13    1    3    3    0    0  0.86782444446E+00  0.99193639939E+00  0.33501850916E+02  0.33527932174E+02  0.10566000000E+00 0.  1.
         23    2    1    0    0    0  0.26433441469E+01  0.85326024614E+00 -0.28905785913E+02  0.95961064403E+02  0.91461828654E+02 0.  0.
         13    1    3    3    0    0  0.17755197025E+01 -0.13867615326E+00 -0.62407636829E+02  0.62433132229E+02  0.10566000000E+00 0. -1.
         22    1    1    0    0    0 -0.26433441469E+01 -0.85326024614E+00  0.28905785913E+02  0.29038935597E+02  0.00000000000E+00 0. -1.
</event>
<event>
 5    1  0.9034917E-005  0.9118800E+02  0.7818608E-02  0.1130116E+00
         25   -1    0    0    0    0  0.00000000000E+00  0.00000000000E+00  0.99999998245E-14  0.12500000000E+03  0.12500000000E+03 0.  0.
        -13    1    3    3    0    0  0.17099419407E+01 -0.53138860618E+01 -0.47675871023E+02  0.48001678391E+02  0.10566000000E+00 0.  1.
         23    2    1    0    0    0  0.27198291657E+02 -0.57726572787E+01 -0.64744907455E+01  0.96451976048E+02  0.92130309953E+02 0.  0.
         13    1    3    3    0    0  0.25488349716E+02 -0.45877121687E+00  0.41201380277E+02  0.48450297657E+02  0.10566000000E+00 0. -1.
         22    1    1    0    0    0 -0.27198291657E+02  0.57726572787E+01  0.64744907455E+01  0.28548023952E+02  0.00000000000E+00 0.  1.
</event>
<event>
 5    1  0.9034917E-005  0.9118800E+02  0.7818608E-02  0.1130116E+00
         25   -1    0    0    0    0  0.00000000000E+00  0.00000000000E+00  0.99999998245E-14  0.12500000000E+03  0.12500000000E+03 0.  0.
        -13    1    3    3    0    0  0.23470779448E+02 -0.46626513353E+02  0.17599021045E+02  0.55087620580E+02  0.10566000000E+00 0. -1.
         23    2    1    0    0    0  0.63691730673E+01 -0.27759290680E+02 -0.11966375608E+02  0.94107626672E+02  0.88892669372E+02 0.  0.
         13    1    3    3    0    0 -0.17101606381E+02  0.18867222672E+02 -0.29565396653E+02  0.39020006093E+02  0.10566000000E+00 0.  1.
         22    1    1    0    0    0 -0.63691730673E+01  0.27759290680E+02  0.11966375608E+02  0.30892373328E+02  0.00000000000E+00 0. -1.
</event>
<event>
 5    1  0.9034917E-005  0.9118800E+02  0.7818608E-02  0.1130116E+00
         25   -1    0    0    0    0  0.00000000000E+00  0.00000000000E+00  0.99999998245E-14  0.12500000000E+03  0.12500000000E+03 0.  0.
        -13    1    3    3    0    0 -0.94125257238E+01 -0.22901473123E+02 -0.42461278237E+02  0.49153274817E+02  0.10566000000E+00 0. -1.
         23    2    1    0    0    0 -0.28323161555E+02 -0.89025107711E+01 -0.29172175272E+01  0.95167696425E+02  0.90371035771E+02 0.  0.
         13    1    3    3    0    0 -0.18910635831E+02  0.13998962352E+02  0.39544060710E+02  0.46014421608E+02  0.10566000000E+00 0.  1.
         22    1    1    0    0    0  0.28323161555E+02  0.89025107711E+01  0.29172175272E+01  0.29832303575E+02  0.00000000000E+00 0.  1.
</event>
<event>
 5    1  0.9034917E-005  0.9118800E+02  0.7818608E-02  0.1130116E+00
         25   -1    0    0    0    0  0.00000000000E+00  0.00000000000E+00  0.99999998245E-14  0.12500000000E+03  0.12500000000E+03 0.  0.
        -13    1    3    3    0    0 -0.55161047500E+02 -0.81863116575E+01 -0.26246626728E+02  0.61633217006E+02  0.10566000000E+00 0.  1.
         23    2    1    0    0    0 -0.25300057743E+02 -0.10610821715E+02 -0.94309562771E+01  0.95989219321E+02  0.91500299619E+02 0.  0.
         13    1    3    3    0    0  0.29860989757E+02 -0.24245100576E+01  0.16815670451E+02  0.34356002315E+02  0.10566000000E+00 0. -1.
         22    1    1    0    0    0  0.25300057743E+02  0.10610821715E+02  0.94309562771E+01  0.29010780679E+02  0.00000000000E+00 0.  1.
</event>
<event>
 5    1  0.9034917E-005  0.9118800E+02  0.7818608E-02  0.1130116E+00
         25   -1    0    0    0    0  0.00000000000E+00  0.00000000000E+00  0.99999998245E-14  0.12500000000E+03  0.12500000000E+03 0.  0.
        -13    1    3    3    0    0 -0.33760518697E+02  0.39852852784E+02 -0.34155266344E+02  0.62406857642E+02  0.10566000000E+00 0. -1.
         23    2    1    0    0    0 -0.13816281741E+02  0.20011139578E+02 -0.15535214602E+02  0.96143835302E+02  0.91711279707E+02 0.  0.
         13    1    3    3    0    0  0.19944236956E+02 -0.19841713205E+02  0.18620051742E+02  0.33736977660E+02  0.10566000000E+00 0.  1.
         22    1    1    0    0    0  0.13816281741E+02 -0.20011139578E+02  0.15535214602E+02  0.28856164698E+02  0.00000000000E+00 0. -1.
</event>
<event>
 5    1  0.9034917E-005  0.9118800E+02  0.7818608E-02  0.1130116E+00
         25   -1    0    0    0    0  0.00000000000E+00  0.00000000000E+00  0.99999998245E-14  0.12500000000E+03  0.12500000000E+03 0.  0.
        -13    1    3    3    0    0 -0.36962072103E+01  0.38263991950E+02 -0.64611237012E+01  0.38981435469E+02  0.10566000000E+00 0.  1.
         23    2    1    0    0    0 -0.18203596001E+02 -0.10909385164E+02  0.19260444330E+02  0.96340790175E+02  0.91979332155E+02 0.  0.
         13    1    3    3    0    0 -0.14507388790E+02 -0.49173377114E+02  0.25721568031E+02  0.57359354706E+02  0.10566000000E+00 0. -1.
         22    1    1    0    0    0  0.18203596001E+02  0.10909385164E+02 -0.19260444330E+02  0.28659209825E+02  0.00000000000E+00 0. -1.
</event>
<event>
 5    1  0.9034917E-005  0.9118800E+02  0.7818608E-02  0.1130116E+00
         25   -1    0    0    0    0  0.00000000000E+00  0.00000000000E+00  0.99999998245E-14  0.12500000000E+03  0.12500000000E+03 0.  0.
        -13    1    3    3    0    0  0.41602898375E+02  0.30034874941E+02  0.31787708835E+02  0.60360288791E+02  0.10566000000E+00 0.  1.
         23    2    1    0    0    0  0.11551993262E+02  0.22475681273E+02  0.15250585449E+02  0.95484154196E+02  0.90807700934E+02 0.  0.
         13    1    3    3    0    0 -0.30050905113E+02 -0.75591936683E+01 -0.16537123386E+02  0.35123865405E+02  0.10566000000E+00 0. -1.
         22    1    1    0    0    0 -0.11551993262E+02 -0.22475681273E+02 -0.15250585449E+02  0.29515845804E+02  0.00000000000E+00 0.  1.
</event>
<event>
 5    1  0.9034917E-005  0.9118800E+02  0.7818608E-02  0.1130116E+00
         25   -1    0    0    0    0  0.00000000000E+00  0.00000000000E+00  0.99999998245E-14  0.12500000000E+03  0.12500000000E+03 0.  0.
        -13    1    3    3    0    0  0.36057600148E+02  0.26524222498E+02  0.43513500511E+02  0.62426923665E+02  0.10566000000E+00 0.  1.
         23    2    1    0    0    0  0.16640724267E+02  0.11995817137E+02  0.17006618026E+02  0.98353454453E+02  0.94675042188E+02 0.  0.
         13    1    3    3    0    0 -0.19416875881E+02 -0.14528405361E+02 -0.26506882486E+02  0.35926530788E+02  0.10566000000E+00 0. -1.
         22    1    1    0    0    0 -0.16640724267E+02 -0.11995817137E+02 -0.17006618026E+02  0.26646545547E+02  0.00000000000E+00 0.  1.
</event>
<event>
 5    1  0.9034917E-005  0.9118800E+02  0.7818608E-02  0.1130116E+00
         25   -1    0    0    0    0  0.00000000000E+00  0.00000000000E+00  0.99999998245E-14  0.12500000000E+03  0.12500000000E+03 0.  0.
        -13    1    3    3    0    0  0.15300768786E+02 -0.33108477460E+02  0.11859719584E+02  0.38352951879E+02  0.10566000000E+00 0. -1.
         23    2    1    0    0    0  0.19129793564E+02  0.21730704684E+02 -0.44834368001E+01  0.95703690789E+02  0.91109399610E+02 0.  0.
         13    1    3    3    0    0  0.38290247777E+01  0.54839182144E+02 -0.16343156384E+02  0.57350738910E+02  0.10566000000E+00 0.  1.
         22    1    1    0    0    0 -0.19129793564E+02 -0.21730704684E+02  0.44834368001E+01  0.29296309211E+02  0.00000000000E+00 0.  1.
</event>
<event>
 5    1  0.9034917E-005  0.9118800E+02  0.7818608E-02  0.1130116E+00
         25   -1    0    0    0    0  0.00000000000E+00  0.00000000000E+00  0.99999998245E-14  0.12500000000E+03  0.12500000000E+03 0.  0.
        -13    1    3    3    0    0  0.70982890119E+01 -0.53875543703E+02  0.12067660082E+02  0.55665065347E+02  0.10566000000E+00 0. -1.
         23    2    1    0    0    0 -0.45487270983E+01 -0.16717573085E+02  0.23087294251E+02  0.96134946321E+02  0.91699163465E+02 0.  0.
         13    1    3    3    0    0 -0.11647016110E+02  0.37157970619E+02  0.11019634169E+02  0.40469880974E+02  0.10566000000E+00 0.  1.
         22    1    1    0    0    0  0.45487270983E+01  0.16717573085E+02 -0.23087294251E+02  0.28865053679E+02  0.00000000000E+00 0. -1.
</event>
<event>
 5    1  0.9034917E-005  0.9118800E+02  0.7818608E-02  0.1130116E+00
         25   -1    0    0    0    0  0.00000000000E+00  0.00000000000E+00  0.99999998245E-14  0.12500000000E+03  0.12500000000E+03 0.  0.
        -13    1    3    3    0    0  0.15240371474E+02 -0.21281464170E+02 -0.21888591641E+01  0.26267316352E+02  0.10566000000E+00 0. -1.
         23    2    1    0    0    0 -0.12074727221E+02  0.78217929479E+01  0.38884193862E+02  0.83539657325E+02  0.72525266848E+02 0.  0.
         13    1    3    3    0    0 -0.27315098695E+02  0.29103257118E+02  0.41073053026E+02  0.57272340973E+02  0.10566000000E+00 0.  1.
         22    1    1    0    0    0  0.12074727221E+02 -0.78217929479E+01 -0.38884193862E+02  0.41460342675E+02  0.00000000000E+00 0.  1.
</event>
<event>
 5    1  0.9034917E-005  0.9118800E+02  0.7818608E-02  0.1130116E+00
         25   -1    0    0    0    0  0.00000000000E+00  0.00000000000E+00  0.99999998245E-14  0.12500000000E+03  0.12500000000E+03 0.  0.
        -13    1    3    3    0    0  0.20396243770E+02  0.59047881603E+00 -0.48911257659E+02  0.52996959488E+02  0.10566000000E+00 0.  1.
         23    2    1    0    0    0 -0.54826097636E+01  0.19777563134E+02 -0.21225834098E+02  0.95474637234E+02  0.90794599555E+02 0.  0.
         13    1    3    3    0    0 -0.25878853534E+02  0.19187084318E+02  0.27685423562E+02  0.42477677746E+02  0.10566000000E+00 0. -1.
         22    1    1    0    0    0  0.54826097636E+01 -0.19777563134E+02  0.21225834098E+02  0.29525362766E+02  0.00000000000E+00 0.  1.
</event>
<event>
 5    1  0.9034917E-005  0.9118800E+02  0.7818608E-02  0.1130116E+00
         25   -1    0    0    0    0  0.00000000000E+00  0.00000000000E+00  0.99999998245E-14  0.12500000000E+03  0.12500000000E+03 0.  0.
        -13    1    3    3    0    0  0.17867671881E+02 -0.34280058059E+02 -0.17914620256E+02  0.42606582378E+02  0.10566000000E+00 0. -1.
         23    2    1    0    0    0  0.17071001286E+02 -0.43766443059E+00  0.23408148734E+02  0.96024975200E+02  0.91549133256E+02 0.  0.
         13    1    3    3    0    0 -0.79667059526E+00  0.33842393629E+02  0.41322768990E+02  0.53418392821E+02  0.10566000000E+00 0.  1.
         22    1    1    0    0    0 -0.17071001286E+02  0.43766443059E+00 -0.23408148734E+02  0.28975024800E+02  0.00000000000E+00 0.  1.
</event>
<event>
 5    1  0.9034917E-005  0.9118800E+02  0.7818608E-02  0.1130116E+00
         25   -1    0    0    0    0  0.00000000000E+00  0.00000000000E+00  0.99999998245E-14  0.12500000000E+03  0.12500000000E+03 0.  0.
        -13    1    3    3    0    0 -0.34378126547E+02 -0.40677953732E+02 -0.12835010513E+02  0.54784123280E+02  0.10566000000E+00 0.  1.
         23    2    1    0    0    0 -0.21688349735E+00 -0.20678081966E+02 -0.21352354450E+02  0.95275378004E+02  0.90519856943E+02 0.  0.
         13    1    3    3    0    0  0.34161243049E+02  0.19999871766E+02 -0.85173439377E+01  0.40491254724E+02  0.10566000000E+00 0. -1.
         22    1    1    0    0    0  0.21688349735E+00  0.20678081966E+02  0.21352354450E+02  0.29724621996E+02  0.00000000000E+00 0.  1.
</event>
<event>
 5    1  0.9034917E-005  0.9118800E+02  0.7818608E-02  0.1130116E+00
         25   -1    0    0    0    0  0.00000000000E+00  0.00000000000E+00  0.99999998245E-14  0.12500000000E+03  0.12500000000E+03 0.  0.
        -13    1    3    3    0    0 -0.75140106203E+01 -0.53710525445E+02 -0.10705527292E+02  0.55280198786E+02  0.10566000000E+00 0.  1.
         23    2    1    0    0    0 -0.23314868581E+02 -0.19790212588E+02  0.73315402195E+00  0.94409590947E+02  0.89316279236E+02 0.  0.
         13    1    3    3    0    0 -0.15800857961E+02  0.33920312857E+02  0.11438681314E+02  0.39129392161E+02  0.10566000000E+00 0. -1.
         22    1    1    0    0    0  0.23314868581E+02  0.19790212588E+02 -0.73315402195E+00  0.30590409053E+02  0.00000000000E+00 0.  1.
</event>
<event>
 5    1  0.9034917E-005  0.9118800E+02  0.7818608E-02  0.1130116E+00
         25   -1    0    0    0    0  0.00000000000E+00  0.00000000000E+00  0.99999998245E-14  0.12500000000E+03  0.12500000000E+03 0.  0.
        -13    1    3    3    0    0  0.22392623383E+02 -0.96499476372E+00  0.23578292484E+02  0.32531643631E+02  0.10566000000E+00 0. -1.
         23    2    1    0    0    0 -0.23955917198E+02 -0.11531551961E+02 -0.15635718996E+02  0.94156226431E+02  0.88960983627E+02 0.  0.
         13    1    3    3    0    0 -0.46348540581E+02 -0.10566557198E+02 -0.39214011479E+02  0.61624582800E+02  0.10566000000E+00 0.  1.
         22    1    1    0    0    0  0.23955917198E+02  0.11531551961E+02  0.15635718996E+02  0.30843773569E+02  0.00000000000E+00 0.  1.
</event>
<event>
 5    1  0.9034917E-005  0.9118800E+02  0.7818608E-02  0.1130116E+00
         25   -1    0    0    0    0  0.00000000000E+00  0.00000000000E+00  0.99999998245E-14  0.12500000000E+03  0.12500000000E+03 0.  0.
        -13    1    3    3    0    0  0.22882051548E+02 -0.29036503607E+02  0.21288539950E+02  0.42660519477E+02  0.10566000000E+00 0. -1.
         23    2    1    0    0    0  0.23176072865E+02  0.10240744766E+02 -0.14507146876E+02  0.95803073496E+02  0.91245648521E+02 0.  0.
         13    1    3    3    0    0  0.29402131721E+00  0.39277248373E+02 -0.35795686826E+02  0.53142554019E+02  0.10566000000E+00 0.  1.
         22    1    1    0    0    0 -0.23176072865E+02 -0.10240744766E+02  0.14507146876E+02  0.29196926504E+02  0.00000000000E+00 0.  1.
</event>
<event>
 5    1  0.9034917E-005  0.9118800E+02  0.7818608E-02  0.1130116E+00
         25   -1    0    0    0    0  0.00000000000E+00  0.00000000000E+00  0.99999998245E-14  0.12500000000E+03  0.12500000000E+03 0.  0.
        -13    1    3    3    0    0  0.23338050995E+02  0.52482980921E+01 -0.24474107827E+02  0.34222834118E+02  0.10566000000E+00 0.  1.
         23    2    1    0    0    0 -0.91944326793E+01 -0.22451666878E+01  0.27456123817E+02  0.95958355749E+02  0.91458126688E+02 0.  0.
         13    1    3    3    0    0 -0.32532483674E+02 -0.74934647800E+01  0.51930231644E+02  0.61735521631E+02  0.10566000000E+00 0. -1.
         22    1    1    0    0    0  0.91944326793E+01  0.22451666878E+01 -0.27456123817E+02  0.29041644251E+02  0.00000000000E+00 0. -1.
</event>
<event>
 5    1  0.9034917E-005  0.9118800E+02  0.7818608E-02  0.1130116E+00
         25   -1    0    0    0    0  0.00000000000E+00  0.00000000000E+00  0.99999998245E-14  0.12500000000E+03  0.12500000000E+03 0.  0.
        -13    1    3    3    0    0  0.26658413399E+02 -0.47089009487E+02  0.46500292446E+01  0.54310954286E+02  0.10566000000E+00 0. -1.
         23    2    1    0    0    0  0.30050135606E+02 -0.87622079747E+01 -0.30486916228E+01  0.93550334515E+02  0.88105525528E+02 0.  0.
         13    1    3    3    0    0  0.33917222075E+01  0.38326801512E+02 -0.76987208674E+01  0.39239380229E+02  0.10566000000E+00 0.  1.
         22    1    1    0    0    0 -0.30050135606E+02  0.87622079747E+01  0.30486916228E+01  0.31449665485E+02  0.00000000000E+00 0. -1.
</event>
<event>
 5    1  0.9034917E-005  0.9118800E+02  0.7818608E-02  0.1130116E+00
         25   -1    0    0    0    0  0.00000000000E+00  0.00000000000E+00  0.99999998245E-14  0.12500000000E+03  0.12500000000E+03 0.  0.
        -13    1    3    3    0    0 -0.31138116109E+02  0.36346845732E+02  0.16923206887E+02  0.50764963950E+02  0.10566000000E+00 0.  1.
         23    2    1    0    0    0 -0.28851930377E+01  0.23317614049E+02 -0.16393978129E+02  0.96350427880E+02  0.91992428873E+02 0.  0.
         13    1    3    3    0    0  0.28252923071E+02 -0.13029231683E+02 -0.33317185016E+02  0.45585463930E+02  0.10566000000E+00 0. -1.
         22    1    1    0    0    0  0.28851930377E+01 -0.23317614049E+02  0.16393978129E+02  0.28649572120E+02  0.00000000000E+00 0.  1.
</event>
<event>
 5    1  0.9034917E-005  0.9118800E+02  0.7818608E-02  0.1130116E+00
         25   -1    0    0    0    0  0.00000000000E+00  0.00000000000E+00  0.99999998245E-14  0.12500000000E+03  0.12500000000E+03 0.  0.
        -13    1    3    3    0    0  0.35273569872E+02 -0.26342930211E+02 -0.31363024299E+02  0.54053909764E+02  0.10566000000E+00 0. -1.
         23    2    1    0    0    0  0.23342077205E+02 -0.12589713942E+02  0.78951737607E+01  0.97328945916E+02  0.93312574067E+02 0.  0.
         13    1    3    3    0    0 -0.11931492666E+02  0.13753216269E+02  0.39258198060E+02  0.43275036152E+02  0.10566000000E+00 0.  1.
         22    1    1    0    0    0 -0.23342077205E+02  0.12589713942E+02 -0.78951737607E+01  0.27671054084E+02  0.00000000000E+00 0. -1.
</event>
<event>
 5    1  0.9034917E-005  0.9118800E+02  0.7818608E-02  0.1130116E+00
         25   -1    0    0    0    0  0.00000000000E+00  0.00000000000E+00  0.99999998245E-14  0.12500000000E+03  0.12500000000E+03 0.  0.
        -13    1    3    3    0    0  0.36231495231E+02 -0.14320118242E+01 -0.39764242149E+02  0.53814291988E+02  0.10566000000E+00 0.  1.
         23    2    1    0    0    0  0.11535115007E+02 -0.23102458725E+02 -0.13600563244E+02  0.95815110110E+02  0.91262136330E+02 0.  0.
         13    1    3    3    0    0 -0.24696380223E+02 -0.21670446901E+02  0.26163678905E+02  0.42000818122E+02  0.10566000000E+00 0. -1.
         22    1    1    0    0    0 -0.11535115007E+02  0.23102458725E+02  0.13600563244E+02  0.29184889890E+02  0.00000000000E+00 0.  1.
</event>
<event>
 5    1  0.9034917E-005  0.9118800E+02  0.7818608E-02  0.1130116E+00
         25   -1    0    0    0    0  0.00000000000E+00  0.00000000000E+00  0.99999998245E-14  0.12500000000E+03  0.12500000000E+03 0.  0.
        -13    1    3    3    0    0 -0.21062290219E+02 -0.26563060704E+00  0.28188089632E+02  0.35189063500E+02  0.10566000000E+00 0.  1.
         23    2    1    0    0    0 -0.14724570507E+02 -0.15727959050E+02 -0.25615779372E+02  0.91528372831E+02  0.85188574397E+02 0.  0.
         13    1    3    3    0    0  0.63377197128E+01 -0.15462328443E+02 -0.53803869004E+02  0.56339309331E+02  0.10566000000E+00 0. -1.
         22    1    1    0    0    0  0.14724570507E+02  0.15727959050E+02  0.25615779372E+02  0.33471627169E+02  0.00000000000E+00 0.  1.
</event>
<event>
 5    1  0.9034917E-005  0.9118800E+02  0.7818608E-02  0.1130116E+00
         25   -1    0    0    0    0  0.00000000000E+00  0.00000000000E+00  0.99999998245E-14  0.12500000000E+03  0.12500000000E+03 0.  0.
        -13    1    3    3    0    0 -0.80394683480E+01  0.38814944380E+02  0.16606151196E+02  0.42976835390E+02  0.10566000000E+00 0. -1.
         23    2    1    0    0    0 -0.25887804115E+02 -0.97804473963E+00 -0.13320510423E+02  0.95869758475E+02  0.91336956478E+02 0.  0.
         13    1    3    3    0    0 -0.17848335767E+02 -0.39792989120E+02 -0.29926661620E+02  0.52892923085E+02  0.10566000000E+00 0.  1.
         22    1    1    0    0    0  0.25887804115E+02  0.97804473963E+00  0.13320510423E+02  0.29130241525E+02  0.00000000000E+00 0. -1.
</event>
<event>
 5    1  0.9034917E-005  0.9118800E+02  0.7818608E-02  0.1130116E+00
         25   -1    0    0    0    0  0.00000000000E+00  0.00000000000E+00  0.99999998245E-14  0.12500000000E+03  0.12500000000E+03 0.  0.
        -13    1    3    3    0    0 -0.71893390064E+01  0.41140789091E+02  0.45719336931E+02  0.61923501644E+02  0.10566000000E+00 0. -1.
         23    2    1    0    0    0 -0.76109919653E+01  0.15289623524E+02  0.23069838433E+02  0.96296041536E+02  0.91918498595E+02 0.  0.
         13    1    3    3    0    0 -0.42165295885E+00 -0.25851165567E+02 -0.22649498498E+02  0.34372539892E+02  0.10566000000E+00 0.  1.
         22    1    1    0    0    0  0.76109919653E+01 -0.15289623524E+02 -0.23069838433E+02  0.28703958464E+02  0.00000000000E+00 0. -1.
</event>
<event>
 5    1  0.9034917E-005  0.9118800E+02  0.7818608E-02  0.1130116E+00
         25   -1    0    0    0    0  0.00000000000E+00  0.00000000000E+00  0.99999998245E-14  0.12500000000E+03  0.12500000000E+03 0.  0.
        -13    1    3    3    0    0  0.14817300781E+02 -0.73312552534E+01 -0.31395064830E+02  0.35481839943E+02  0.10566000000E+00 0. -1.
         23    2    1    0    0    0 -0.28465080193E+02 -0.29019650027E+01  0.91563817783E+01  0.94958004085E+02  0.90080525205E+02 0.  0.
         13    1    3    3    0    0 -0.43282380974E+02  0.44292902507E+01  0.40551446609E+02  0.59476164142E+02  0.10566000000E+00 0.  1.
         22    1    1    0    0    0  0.28465080193E+02  0.29019650027E+01 -0.91563817783E+01  0.30041995915E+02  0.00000000000E+00 0.  1.
</event>
<event>
 5    1  0.9034917E-005  0.9118800E+02  0.7818608E-02  0.1130116E+00
         25   -1    0    0    0    0  0.00000000000E+00  0.00000000000E+00  0.99999998245E-14  0.12500000000E+03  0.12500000000E+03 0.  0.
        -13    1    3    3    0    0 -0.42741232231E+02  0.35322161754E+02  0.20859539945E+02  0.59241873826E+02  0.10566000000E+00 0.  1.
         23    2    1    0    0    0 -0.26698893501E+02  0.37948487659E+01  0.98579215219E+01  0.96287452080E+02  0.91906817048E+02 0.  0.
         13    1    3    3    0    0  0.16042338730E+02 -0.31527312988E+02 -0.11001618424E+02  0.37045578254E+02  0.10566000000E+00 0. -1.
         22    1    1    0    0    0  0.26698893501E+02 -0.37948487659E+01 -0.98579215219E+01  0.28712547920E+02  0.00000000000E+00 0.  1.
</event>
<event>
 5    1  0.9034917E-005  0.9118800E+02  0.7818608E-02  0.1130116E+00
         25   -1    0    0    0    0  0.00000000000E+00  0.00000000000E+00  0.99999998245E-14  0.12500000000E+03  0.12500000000E+03 0.  0.
        -13    1    3    3    0    0  0.16446690658E+02 -0.43371229294E+02 -0.35392294641E+02  0.58345375550E+02  0.10566000000E+00 0.  1.
         23    2    1    0    0    0  0.20648448560E+02 -0.11071141178E+02 -0.19136343374E+02  0.94748913529E+02  0.89789912475E+02 0.  0.
         13    1    3    3    0    0  0.42017579018E+01  0.32300088116E+02  0.16255951267E+02  0.36403537979E+02  0.10566000000E+00 0. -1.
         22    1    1    0    0    0 -0.20648448560E+02  0.11071141178E+02  0.19136343374E+02  0.30251086471E+02  0.00000000000E+00 0. -1.
</event>
<event>
 5    1  0.9034917E-005  0.9118800E+02  0.7818608E-02  0.1130116E+00
         25   -1    0    0    0    0  0.00000000000E+00  0.00000000000E+00  0.99999998245E-14  0.12500000000E+03  0.12500000000E+03 0.  0.
        -13    1    3    3    0    0  0.17540578780E+02  0.26997882371E+02 -0.20071608306E+02  0.37939928577E+02  0.10566000000E+00 0.  1.
         23    2    1    0    0    0  0.12651490362E+02 -0.71370757153E+01  0.25838655424E+02  0.95358236013E+02  0.90634204379E+02 0.  0.
         13    1    3    3    0    0 -0.48890884187E+01 -0.34134958086E+02  0.45910263729E+02  0.57418307436E+02  0.10566000000E+00 0. -1.
         22    1    1    0    0    0 -0.12651490362E+02  0.71370757153E+01 -0.25838655424E+02  0.29641763987E+02  0.00000000000E+00 0. -1.
</event>
<event>
 5    1  0.9034917E-005  0.9118800E+02  0.7818608E-02  0.1130116E+00
         25   -1    0    0    0    0  0.00000000000E+00  0.00000000000E+00  0.99999998245E-14  0.12500000000E+03  0.12500000000E+03 0.  0.
        -13    1    3    3    0    0 -0.13741372266E+02  0.23719623589E+02  0.32302183561E+02  0.42366119503E+02  0.10566000000E+00 0.  1.
         23    2    1    0    0    0 -0.12636703358E+02 -0.24550252705E+02  0.91576735547E+01  0.95909380128E+02  0.91391164956E+02 0.  0.
         13    1    3    3    0    0  0.11046689079E+01 -0.48269876294E+02 -0.23144510006E+02  0.53543260624E+02  0.10566000000E+00 0. -1.
         22    1    1    0    0    0  0.12636703358E+02  0.24550252705E+02 -0.91576735547E+01  0.29090619872E+02  0.00000000000E+00 0. -1.
</event>
<event>
 5    1  0.9034917E-005  0.9118800E+02  0.7818608E-02  0.1130116E+00
         25   -1    0    0    0    0  0.00000000000E+00  0.00000000000E+00  0.99999998245E-14  0.12500000000E+03  0.12500000000E+03 0.  0.
        -13    1    3    3    0    0 -0.12188017282E+02 -0.14708822307E+02 -0.52221169723E+02  0.55605385982E+02  0.10566000000E+00 0. -1.
         23    2    1    0    0    0  0.39691077479E+01 -0.24552260558E+02 -0.19527006459E+02  0.93379258452E+02  0.87862475568E+02 0.  0.
         13    1    3    3    0    0  0.16157125030E+02 -0.98434382506E+01  0.32694163264E+02  0.37773872470E+02  0.10566000000E+00 0.  1.
         22    1    1    0    0    0 -0.39691077479E+01  0.24552260558E+02  0.19527006459E+02  0.31620741548E+02  0.00000000000E+00 0. -1.
</event>
<event>
 5    1  0.9034917E-005  0.9118800E+02  0.7818608E-02  0.1130116E+00
         25   -1    0    0    0    0  0.00000000000E+00  0.00000000000E+00  0.99999998245E-14  0.12500000000E+03  0.12500000000E+03 0.  0.
        -13    1    3    3    0    0 -0.16606080336E+02  0.14032286049E+02 -0.19099610365E+02  0.28939129843E+02  0.10566000000E+00 0. -1.
         23    2    1    0    0    0  0.46132583606E+01 -0.11938313365E+02  0.32268558032E+02  0.90285949297E+02  0.83345589711E+02 0.  0.
         13    1    3    3    0    0  0.21219338697E+02 -0.25970599414E+02  0.51368168397E+02  0.61346819455E+02  0.10566000000E+00 0.  1.
         22    1    1    0    0    0 -0.46132583606E+01  0.11938313365E+02 -0.32268558032E+02  0.34714050703E+02  0.00000000000E+00 0.  1.
</event>
<event>
 5    1  0.9034917E-005  0.9118800E+02  0.7818608E-02  0.1130116E+00
         25   -1    0    0    0    0  0.00000000000E+00  0.00000000000E+00  0.99999998245E-14  0.12500000000E+03  0.12500000000E+03 0.  0.
        -13    1    3    3    0    0 -0.28705098903E+01  0.43826812374E+02  0.43828651591E+02  0.62048297110E+02  0.10566000000E+00 0. -1.
         23    2    1    0    0    0 -0.43329352065E+01  0.23055242506E+02  0.16906265273E+02  0.96083908632E+02  0.91629564869E+02 0.  0.
         13    1    3    3    0    0 -0.14624253162E+01 -0.20771569868E+02 -0.26922386318E+02  0.34035611522E+02  0.10566000000E+00 0.  1.
         22    1    1    0    0    0  0.43329352065E+01 -0.23055242506E+02 -0.16906265273E+02  0.28916091368E+02  0.00000000000E+00 0. -1.
</event>
<event>
 5    1  0.9034917E-005  0.9118800E+02  0.7818608E-02  0.1130116E+00
         25   -1    0    0    0    0  0.00000000000E+00  0.00000000000E+00  0.99999998245E-14  0.12500000000E+03  0.12500000000E+03 0.  0.
        -13    1    3    3    0    0  0.66625922437E+01  0.37001137858E+02  0.49511834447E+02  0.62168378236E+02  0.10566000000E+00 0. -1.
         23    2    1    0    0    0  0.51753308082E+01  0.20451828279E+02  0.20605630221E+02  0.95510114857E+02  0.90843429671E+02 0.  0.
         13    1    3    3    0    0 -0.14872614354E+01 -0.16549309580E+02 -0.28906204225E+02  0.33341736621E+02  0.10566000000E+00 0.  1.
         22    1    1    0    0    0 -0.51753308082E+01 -0.20451828279E+02 -0.20605630221E+02  0.29489885143E+02  0.00000000000E+00 0. -1.
</event>
<event>
 5    1  0.9034917E-005  0.9118800E+02  0.7818608E-02  0.1130116E+00
         25   -1    0    0    0    0  0.00000000000E+00  0.00000000000E+00  0.99999998245E-14  0.12500000000E+03  0.12500000000E+03 0.  0.
        -13    1    3    3    0    0 -0.51215254937E+01 -0.46497136600E+02  0.24951097578E+02  0.53016810256E+02  0.10566000000E+00 0. -1.
         23    2    1    0    0    0 -0.14774237216E+02 -0.25585374322E+02 -0.90640070638E+01  0.94096186505E+02  0.88876580865E+02 0.  0.
         13    1    3    3    0    0 -0.96527117219E+01  0.20911762278E+02 -0.34015104642E+02  0.41079376249E+02  0.10566000000E+00 0.  1.
         22    1    1    0    0    0  0.14774237216E+02  0.25585374322E+02  0.90640070638E+01  0.30903813495E+02  0.00000000000E+00 0. -1.
</event>
<event>
 5    1  0.9034917E-005  0.9118800E+02  0.7818608E-02  0.1130116E+00
         25   -1    0    0    0    0  0.00000000000E+00  0.00000000000E+00  0.99999998245E-14  0.12500000000E+03  0.12500000000E+03 0.  0.
        -13    1    3    3    0    0  0.89163847862E+01 -0.41412323640E+01  0.44387875558E+02  0.45463682030E+02  0.10566000000E+00 0.  1.
         23    2    1    0    0    0  0.84270417285E+01  0.18889227950E+02 -0.81020821633E+01  0.10278600216E+03  0.10035686593E+03 0.  0.
         13    1    3    3    0    0 -0.48934305773E+00  0.23030460314E+02 -0.52489957721E+02  0.57322320125E+02  0.10566000000E+00 0. -1.
         22    1    1    0    0    0 -0.84270417285E+01 -0.18889227950E+02  0.81020821633E+01  0.22213997845E+02  0.00000000000E+00 0. -1.
</event>
<event>
 5    1  0.9034917E-005  0.9118800E+02  0.7818608E-02  0.1130116E+00
         25   -1    0    0    0    0  0.00000000000E+00  0.00000000000E+00  0.99999998245E-14  0.12500000000E+03  0.12500000000E+03 0.  0.
        -13    1    3    3    0    0  0.35745458546E+02 -0.31755306536E+02  0.34985701125E+02  0.59246499872E+02  0.10566000000E+00 0. -1.
         23    2    1    0    0    0  0.22668096341E+02 -0.16282512321E+02  0.32443600368E+01  0.96902158957E+02  0.92739094989E+02 0.  0.
         13    1    3    3    0    0 -0.13077362205E+02  0.15472794215E+02 -0.31741341088E+02  0.37655659085E+02  0.10566000000E+00 0.  1.
         22    1    1    0    0    0 -0.22668096341E+02  0.16282512321E+02 -0.32443600368E+01  0.28097841043E+02  0.00000000000E+00 0. -1.
</event>
<event>
 5    1  0.9034917E-005  0.9118800E+02  0.7818608E-02  0.1130116E+00
         25   -1    0    0    0    0  0.00000000000E+00  0.00000000000E+00  0.99999998245E-14  0.12500000000E+03  0.12500000000E+03 0.  0.
        -13    1    3    3    0    0  0.43458944007E+02 -0.23340183254E+02 -0.16852180192E+02  0.52129177145E+02  0.10566000000E+00 0.  1.
         23    2    1    0    0    0 -0.72723527240E+00 -0.22550306861E+02 -0.17688899969E+02  0.96330462285E+02  0.91965295472E+02 0.  0.
         13    1    3    3    0    0 -0.44186179280E+02  0.78987639296E+00 -0.83671977712E+00  0.44201285140E+02  0.10566000000E+00 0. -1.
         22    1    1    0    0    0  0.72723527240E+00  0.22550306861E+02  0.17688899969E+02  0.28669537715E+02  0.00000000000E+00 0.  1.
</event>
<event>
 5    1  0.9034917E-005  0.9118800E+02  0.7818608E-02  0.1130116E+00
         25   -1    0    0    0    0  0.00000000000E+00  0.00000000000E+00  0.99999998245E-14  0.12500000000E+03  0.12500000000E+03 0.  0.
        -13    1    3    3    0    0 -0.53629306767E+02  0.19938404051E+02 -0.15107303845E+02  0.59176720878E+02  0.10566000000E+00 0.  1.
         23    2    1    0    0    0 -0.28243534820E+02  0.12142431539E+02  0.66953512229E+01  0.93536312505E+02  0.88085629510E+02 0.  0.
         13    1    3    3    0    0  0.25385771947E+02 -0.77959725120E+01  0.21802655068E+02  0.34359591627E+02  0.10566000000E+00 0. -1.
         22    1    1    0    0    0  0.28243534820E+02 -0.12142431539E+02 -0.66953512229E+01  0.31463687495E+02  0.00000000000E+00 0.  1.
</event>
<event>
 5    1  0.9034917E-005  0.9118800E+02  0.7818608E-02  0.1130116E+00
         25   -1    0    0    0    0  0.00000000000E+00  0.00000000000E+00  0.99999998245E-14  0.12500000000E+03  0.12500000000E+03 0.  0.
        -13    1    3    3    0    0 -0.53409809432E+02 -0.10223322074E+02  0.51700859287E+01  0.54624765540E+02  0.10566000000E+00 0.  1.
         23    2    1    0    0    0 -0.17285018169E+02 -0.22400614076E+02 -0.90209638816E+01  0.95302573286E+02  0.90557403460E+02 0.  0.
         13    1    3    3    0    0  0.36124791262E+02 -0.12177292002E+02 -0.14191049810E+02  0.40677807746E+02  0.10566000000E+00 0. -1.
         22    1    1    0    0    0  0.17285018169E+02  0.22400614076E+02  0.90209638816E+01  0.29697426714E+02  0.00000000000E+00 0.  1.
</event>
<event>
 5    1  0.9034917E-005  0.9118800E+02  0.7818608E-02  0.1130116E+00
         25   -1    0    0    0    0  0.00000000000E+00  0.00000000000E+00  0.99999998245E-14  0.12500000000E+03  0.12500000000E+03 0.  0.
        -13    1    3    3    0    0 -0.36578611567E+02  0.22894100963E+02  0.18183672486E+01  0.43190882216E+02  0.10566000000E+00 0.  1.
         23    2    1    0    0    0  0.83758716388E+01  0.17382129371E+02  0.24475835185E+02  0.93833348669E+02  0.88506141975E+02 0.  0.
         13    1    3    3    0    0  0.44954483206E+02 -0.55119715919E+01  0.22657467936E+02  0.50642466453E+02  0.10566000000E+00 0. -1.
         22    1    1    0    0    0 -0.83758716388E+01 -0.17382129371E+02 -0.24475835185E+02  0.31166651331E+02  0.00000000000E+00 0. -1.
</event>
<event>
 5    1  0.9034917E-005  0.9118800E+02  0.7818608E-02  0.1130116E+00
         25   -1    0    0    0    0  0.00000000000E+00  0.00000000000E+00  0.99999998245E-14  0.12500000000E+03  0.12500000000E+03 0.  0.
        -13    1    3    3    0    0  0.53326826643E+01 -0.22637543488E+02  0.32031144271E+02  0.39584103462E+02  0.10566000000E+00 0. -1.
         23    2    1    0    0    0 -0.17062254931E+02  0.21004996636E+02  0.43037932911E+00  0.97934973612E+02  0.94120897802E+02 0.  0.
         13    1    3    3    0    0 -0.22394937595E+02  0.43642540124E+02 -0.31600764942E+02  0.58350870150E+02  0.10566000000E+00 0.  1.
         22    1    1    0    0    0  0.17062254931E+02 -0.21004996636E+02 -0.43037932911E+00  0.27065026388E+02  0.00000000000E+00 0.  1.
</event>
<event>
 5    1  0.9034917E-005  0.9118800E+02  0.7818608E-02  0.1130116E+00
         25   -1    0    0    0    0  0.00000000000E+00  0.00000000000E+00  0.99999998245E-14  0.12500000000E+03  0.12500000000E+03 0.  0.
        -13    1    3    3    0    0  0.26770938084E+02 -0.34824962016E+01 -0.41374401264E+02  0.49403068222E+02  0.10566000000E+00 0. -1.
         23    2    1    0    0    0  0.25615497446E+01 -0.26850190092E+02 -0.78314466735E+01  0.96913957166E+02  0.92754996046E+02 0.  0.
         13    1    3    3    0    0 -0.24209388339E+02 -0.23367693891E+02  0.33542954591E+02  0.47510888944E+02  0.10566000000E+00 0.  1.
         22    1    1    0    0    0 -0.25615497446E+01  0.26850190092E+02  0.78314466735E+01  0.28086042834E+02  0.00000000000E+00 0. -1.
</event>
<event>
 5    1  0.9034917E-005  0.9118800E+02  0.7818608E-02  0.1130116E+00
         25   -1    0    0    0    0  0.00000000000E+00  0.00000000000E+00  0.99999998245E-14  0.12500000000E+03  0.12500000000E+03 0.  0.
        -13    1    3    3    0    0 -0.36346455341E+02  0.13433280368E+02  0.19727715011E+02  0.43482315266E+02  0.10566000000E+00 0.  1.
         23    2    1    0    0    0  0.17235520998E+02  0.38323606288E+01  0.20527534043E+02  0.97923629750E+02  0.94105831049E+02 0.  0.
         13    1    3    3    0    0  0.53581976339E+02 -0.96009197394E+01  0.79981903159E+00  0.54441314484E+02  0.10566000000E+00 0. -1.
         22    1    1    0    0    0 -0.17235520998E+02 -0.38323606288E+01 -0.20527534043E+02  0.27076370250E+02  0.00000000000E+00 0. -1.
</event>
<event>
 5    1  0.9034917E-005  0.9118800E+02  0.7818608E-02  0.1130116E+00
         25   -1    0    0    0    0  0.00000000000E+00  0.00000000000E+00  0.99999998245E-14  0.12500000000E+03  0.12500000000E+03 0.  0.
        -13    1    3    3    0    0 -0.67847314502E+01  0.37465360044E+02 -0.79335206425E+01  0.38892643236E+02  0.10566000000E+00 0. -1.
         23    2    1    0    0    0 -0.18771688965E+02 -0.19164673910E+02  0.36535636921E+01  0.97925850700E+02  0.94108781072E+02 0.  0.
         13    1    3    3    0    0 -0.11986957515E+02 -0.56630033954E+02  0.11587084335E+02  0.59033207464E+02  0.10566000000E+00 0.  1.
         22    1    1    0    0    0  0.18771688965E+02  0.19164673910E+02 -0.36535636921E+01  0.27074149300E+02  0.00000000000E+00 0.  1.
</event>
<event>
 5    1  0.9034917E-005  0.9118800E+02  0.7818608E-02  0.1130116E+00
         25   -1    0    0    0    0  0.00000000000E+00  0.00000000000E+00  0.99999998245E-14  0.12500000000E+03  0.12500000000E+03 0.  0.
        -13    1    3    3    0    0  0.30848840763E+02 -0.25619683562E+02 -0.71303923352E+01  0.40729262467E+02  0.10566000000E+00 0. -1.
         23    2    1    0    0    0  0.19126146987E+01  0.12875385971E+02 -0.28691761357E+02  0.93493638283E+02  0.88025050813E+02 0.  0.
         13    1    3    3    0    0 -0.28936226064E+02  0.38495069533E+02 -0.21561369022E+02  0.52764375816E+02  0.10566000000E+00 0.  1.
         22    1    1    0    0    0 -0.19126146987E+01 -0.12875385971E+02  0.28691761357E+02  0.31506361717E+02  0.00000000000E+00 0.  1.
</event>
<event>
 5    1  0.9034917E-005  0.9118800E+02  0.7818608E-02  0.1130116E+00
         25   -1    0    0    0    0  0.00000000000E+00  0.00000000000E+00  0.99999998245E-14  0.12500000000E+03  0.12500000000E+03 0.  0.
        -13    1    3    3    0    0  0.84938000422E+00 -0.23632196499E+01  0.51702011675E+02  0.51763070125E+02  0.10566000000E+00 0. -1.
         23    2    1    0    0    0  0.45378151690E+01 -0.25387931312E+02  0.15241464299E+02  0.95042679413E+02  0.90197948165E+02 0.  0.
         13    1    3    3    0    0  0.36884351648E+01 -0.23024711662E+02 -0.36460547376E+02  0.43279609288E+02  0.10566000000E+00 0.  1.
         22    1    1    0    0    0 -0.45378151690E+01  0.25387931312E+02 -0.15241464299E+02  0.29957320587E+02  0.00000000000E+00 0. -1.
</event>
<event>
 5    1  0.9034917E-005  0.9118800E+02  0.7818608E-02  0.1130116E+00
         25   -1    0    0    0    0  0.00000000000E+00  0.00000000000E+00  0.99999998245E-14  0.12500000000E+03  0.12500000000E+03 0.  0.
        -13    1    3    3    0    0  0.46053383202E+02 -0.38608344020E+02 -0.74774662462E+01  0.60559408830E+02  0.10566000000E+00 0. -1.
         23    2    1    0    0    0  0.21380156317E+02 -0.20417415004E+02  0.72392107810E+01  0.94563375806E+02  0.89531245672E+02 0.  0.
         13    1    3    3    0    0 -0.24673226885E+02  0.18190929016E+02  0.14716677027E+02  0.34003966977E+02  0.10566000000E+00 0.  1.
         22    1    1    0    0    0 -0.21380156317E+02  0.20417415004E+02 -0.72392107810E+01  0.30436624194E+02  0.00000000000E+00 0. -1.
</event>
<event>
 5    1  0.9034917E-005  0.9118800E+02  0.7818608E-02  0.1130116E+00
         25   -1    0    0    0    0  0.00000000000E+00  0.00000000000E+00  0.99999998245E-14  0.12500000000E+03  0.12500000000E+03 0.  0.
        -13    1    3    3    0    0  0.33736533224E+01  0.77917715499E+01  0.33825902374E+02  0.34875436572E+02  0.10566000000E+00 0.  1.
         23    2    1    0    0    0 -0.12731418749E+02 -0.43322139840E+01 -0.24755045429E+02  0.96827861715E+02  0.92638898033E+02 0.  0.
         13    1    3    3    0    0 -0.16105072071E+02 -0.12123985534E+02 -0.58580947803E+02  0.61952425143E+02  0.10566000000E+00 0. -1.
         22    1    1    0    0    0  0.12731418749E+02  0.43322139840E+01  0.24755045429E+02  0.28172138285E+02  0.00000000000E+00 0. -1.
</event>
<event>
 5    1  0.9034917E-005  0.9118800E+02  0.7818608E-02  0.1130116E+00
         25   -1    0    0    0    0  0.00000000000E+00  0.00000000000E+00  0.99999998245E-14  0.12500000000E+03  0.12500000000E+03 0.  0.
        -13    1    3    3    0    0  0.44807375834E+01  0.36928031412E+02  0.24497819891E+02  0.44541114228E+02  0.10566000000E+00 0. -1.
         23    2    1    0    0    0 -0.25028011412E+02  0.11545100029E+02 -0.91147940748E+01  0.95969496027E+02  0.91473351348E+02 0.  0.
         13    1    3    3    0    0 -0.29508748995E+02 -0.25382931383E+02 -0.33612613966E+02  0.51428381799E+02  0.10566000000E+00 0.  1.
         22    1    1    0    0    0  0.25028011412E+02 -0.11545100029E+02  0.91147940748E+01  0.29030503973E+02  0.00000000000E+00 0.  1.
</event>
<event>
 5    1  0.9034917E-005  0.9118800E+02  0.7818608E-02  0.1130116E+00
         25   -1    0    0    0    0  0.00000000000E+00  0.00000000000E+00  0.99999998245E-14  0.12500000000E+03  0.12500000000E+03 0.  0.
        -13    1    3    3    0    0 -0.10755240282E+02  0.41728350034E+02 -0.29891423907E+02  0.52444625819E+02  0.10566000000E+00 0. -1.
         23    2    1    0    0    0 -0.11605094599E+02  0.59364284428E+01 -0.34100123403E+02  0.88493318154E+02  0.80612217055E+02 0.  0.
         13    1    3    3    0    0 -0.84985431774E+00 -0.35791921592E+02 -0.42086994960E+01  0.36048692335E+02  0.10566000000E+00 0.  1.
         22    1    1    0    0    0  0.11605094599E+02 -0.59364284428E+01  0.34100123403E+02  0.36506681846E+02  0.00000000000E+00 0. -1.
</event>
<event>
 5    1  0.9034917E-005  0.9118800E+02  0.7818608E-02  0.1130116E+00
         25   -1    0    0    0    0  0.00000000000E+00  0.00000000000E+00  0.99999998245E-14  0.12500000000E+03  0.12500000000E+03 0.  0.
        -13    1    3    3    0    0 -0.14385809096E+02 -0.39717466583E+02 -0.31486815057E+01  0.42359816034E+02  0.10566000000E+00 0.  1.
         23    2    1    0    0    0  0.26679081513E+02 -0.20197022961E+02 -0.13375010761E+02  0.88964128431E+02  0.81338995001E+02 0.  0.
         13    1    3    3    0    0  0.41064890609E+02  0.19520443622E+02 -0.10226329256E+02  0.46604312397E+02  0.10566000000E+00 0. -1.
         22    1    1    0    0    0 -0.26679081513E+02  0.20197022961E+02  0.13375010761E+02  0.36035871569E+02  0.00000000000E+00 0.  1.
</event>
<event>
 5    1  0.9034917E-005  0.9118800E+02  0.7818608E-02  0.1130116E+00
         25   -1    0    0    0    0  0.00000000000E+00  0.00000000000E+00  0.99999998245E-14  0.12500000000E+03  0.12500000000E+03 0.  0.
        -13    1    3    3    0    0  0.26503885556E+02 -0.45112118808E+02  0.19298682064E+02  0.55767459207E+02  0.10566000000E+00 0. -1.
         23    2    1    0    0    0  0.19556741233E+02 -0.21079324414E+02 -0.10240415426E+02  0.94476727674E+02  0.89410189120E+02 0.  0.
         13    1    3    3    0    0 -0.69471443229E+01  0.24032794394E+02 -0.29539097490E+02  0.38709268467E+02  0.10566000000E+00 0.  1.
         22    1    1    0    0    0 -0.19556741233E+02  0.21079324414E+02  0.10240415426E+02  0.30523272326E+02  0.00000000000E+00 0. -1.
</event>
<event>
 5    1  0.9034917E-005  0.9118800E+02  0.7818608E-02  0.1130116E+00
         25   -1    0    0    0    0  0.00000000000E+00  0.00000000000E+00  0.99999998245E-14  0.12500000000E+03  0.12500000000E+03 0.  0.
        -13    1    3    3    0    0 -0.42807482218E+02 -0.53823289786E+00 -0.27999365897E+02  0.51154138475E+02  0.10566000000E+00 0. -1.
         23    2    1    0    0    0 -0.18650348351E+01 -0.76439386912E+01 -0.31191723459E+02  0.92831198873E+02  0.87079272609E+02 0.  0.
         13    1    3    3    0    0  0.40942447383E+02 -0.71057057933E+01 -0.31923575622E+01  0.41677060397E+02  0.10566000000E+00 0.  1.
         22    1    1    0    0    0  0.18650348351E+01  0.76439386912E+01  0.31191723459E+02  0.32168801127E+02  0.00000000000E+00 0. -1.
</event>
<event>
 5    1  0.9034917E-005  0.9118800E+02  0.7818608E-02  0.1130116E+00
         25   -1    0    0    0    0  0.00000000000E+00  0.00000000000E+00  0.99999998245E-14  0.12500000000E+03  0.12500000000E+03 0.  0.
        -13    1    3    3    0    0  0.15967023801E+02 -0.13192578581E+02 -0.55204568620E+02  0.58962238248E+02  0.10566000000E+00 0.  1.
         23    2    1    0    0    0  0.37450163656E+01 -0.19129520459E+02 -0.18401292799E+02  0.98193820166E+02  0.94464040998E+02 0.  0.
         13    1    3    3    0    0 -0.12222007435E+02 -0.59369418784E+01  0.36803275821E+02  0.39231581918E+02  0.10566000000E+00 0. -1.
         22    1    1    0    0    0 -0.37450163656E+01  0.19129520459E+02  0.18401292799E+02  0.26806179834E+02  0.00000000000E+00 0.  1.
</event>
<event>
 5    1  0.9034917E-005  0.9118800E+02  0.7818608E-02  0.1130116E+00
         25   -1    0    0    0    0  0.00000000000E+00  0.00000000000E+00  0.99999998245E-14  0.12500000000E+03  0.12500000000E+03 0.  0.
        -13    1    3    3    0    0 -0.46929230836E+02 -0.20712541449E+02 -0.25656551905E+02  0.57355312743E+02  0.10566000000E+00 0.  1.
         23    2    1    0    0    0 -0.12094493502E+02 -0.44825611730E+01 -0.26208453501E+02  0.95789502527E+02  0.91227055371E+02 0.  0.
         13    1    3    3    0    0  0.34834737335E+02  0.16229980276E+02 -0.55190159591E+00  0.38434189784E+02  0.10566000000E+00 0. -1.
         22    1    1    0    0    0  0.12094493502E+02  0.44825611730E+01  0.26208453501E+02  0.29210497473E+02  0.00000000000E+00 0.  1.
</event>
<event>
 5    1  0.9034917E-005  0.9118800E+02  0.7818608E-02  0.1130116E+00
         25   -1    0    0    0    0  0.00000000000E+00  0.00000000000E+00  0.99999998245E-14  0.12500000000E+03  0.12500000000E+03 0.  0.
        -13    1    3    3    0    0 -0.35249819077E+01  0.25115064911E+02 -0.32744060783E+02  0.41417105929E+02  0.10566000000E+00 0. -1.
         23    2    1    0    0    0 -0.27248429164E+02  0.62355605071E+01  0.11267976212E+02  0.94861546246E+02  0.89946576152E+02 0.  0.
         13    1    3    3    0    0 -0.23723447256E+02 -0.18879504404E+02  0.44012036995E+02  0.53444440317E+02  0.10566000000E+00 0.  1.
         22    1    1    0    0    0  0.27248429164E+02 -0.62355605071E+01 -0.11267976212E+02  0.30138453754E+02  0.00000000000E+00 0.  1.
</event>
<event>
 5    1  0.9034917E-005  0.9118800E+02  0.7818608E-02  0.1130116E+00
         25   -1    0    0    0    0  0.00000000000E+00  0.00000000000E+00  0.99999998245E-14  0.12500000000E+03  0.12500000000E+03 0.  0.
        -13    1    3    3    0    0  0.30160364213E+02  0.31638214369E+01 -0.26567484956E+02  0.40317486981E+02  0.10566000000E+00 0.  1.
         23    2    1    0    0    0  0.82863886355E+01 -0.25625103752E+02  0.13989948939E+02  0.94651542869E+02  0.89654256549E+02 0.  0.
         13    1    3    3    0    0 -0.21873975578E+02 -0.28788925189E+02  0.40557433894E+02  0.54334055888E+02  0.10566000000E+00 0. -1.
         22    1    1    0    0    0 -0.82863886355E+01  0.25625103752E+02 -0.13989948939E+02  0.30348457131E+02  0.00000000000E+00 0. -1.
</event>
<event>
 5    1  0.9034917E-005  0.9118800E+02  0.7818608E-02  0.1130116E+00
         25   -1    0    0    0    0  0.00000000000E+00  0.00000000000E+00  0.99999998245E-14  0.12500000000E+03  0.12500000000E+03 0.  0.
        -13    1    3    3    0    0 -0.30671341770E+02  0.10974142182E+02 -0.33544017287E+02  0.46758691837E+02  0.10566000000E+00 0.  1.
         23    2    1    0    0    0 -0.25035475928E+01  0.29445002526E+02  0.15575676556E+01  0.95407738489E+02  0.90702451027E+02 0.  0.
         13    1    3    3    0    0  0.28167794177E+02  0.18470860344E+02  0.35101584942E+02  0.48649046652E+02  0.10566000000E+00 0. -1.
         22    1    1    0    0    0  0.25035475928E+01 -0.29445002526E+02 -0.15575676556E+01  0.29592261511E+02  0.00000000000E+00 0.  1.
</event>
<event>
 5    1  0.9034917E-005  0.9118800E+02  0.7818608E-02  0.1130116E+00
         25   -1    0    0    0    0  0.00000000000E+00  0.00000000000E+00  0.99999998245E-14  0.12500000000E+03  0.12500000000E+03 0.  0.
        -13    1    3    3    0    0 -0.36282896842E+02 -0.13207006586E+02 -0.77242853253E+01  0.39377015809E+02  0.10566000000E+00 0. -1.
         23    2    1    0    0    0 -0.24747699157E+01  0.29956177484E+02  0.11583922366E+01  0.94919459311E+02  0.90027022764E+02 0.  0.
         13    1    3    3    0    0  0.33808126927E+02  0.43163184070E+02  0.88826775619E+01  0.55542443501E+02  0.10566000000E+00 0.  1.
         22    1    1    0    0    0  0.24747699157E+01 -0.29956177484E+02 -0.11583922366E+01  0.30080540689E+02  0.00000000000E+00 0.  1.
</event>
<event>
 5    1  0.9034917E-005  0.9118800E+02  0.7818608E-02  0.1130116E+00
         25   -1    0    0    0    0  0.00000000000E+00  0.00000000000E+00  0.99999998245E-14  0.12500000000E+03  0.12500000000E+03 0.  0.
        -13    1    3    3    0    0  0.24815130379E+02  0.30461793616E+02 -0.26910802391E+02  0.47622620838E+02  0.10566000000E+00 0. -1.
         23    2    1    0    0    0  0.22874043467E+02 -0.14787220216E+02 -0.92570022498E+01  0.96232382148E+02  0.91831887365E+02 0.  0.
         13    1    3    3    0    0 -0.19410869122E+01 -0.45249013832E+02  0.17653800142E+02  0.48609761310E+02  0.10566000000E+00 0.  1.
         22    1    1    0    0    0 -0.22874043467E+02  0.14787220216E+02  0.92570022498E+01  0.28767617852E+02  0.00000000000E+00 0.  1.
</event>
<event>
 5    1  0.9034917E-005  0.9118800E+02  0.7818608E-02  0.1130116E+00
         25   -1    0    0    0    0  0.00000000000E+00  0.00000000000E+00  0.99999998245E-14  0.12500000000E+03  0.12500000000E+03 0.  0.
        -13    1    3    3    0    0 -0.33168769523E+02  0.12881534941E+02 -0.15220498463E+02  0.38701110470E+02  0.10566000000E+00 0. -1.
         23    2    1    0    0    0  0.56559301026E+01  0.15852803373E+02  0.25116031331E+02  0.94765649503E+02  0.89813208248E+02 0.  0.
         13    1    3    3    0    0  0.38824699625E+02  0.29712684322E+01  0.40336529795E+02  0.56064539033E+02  0.10566000000E+00 0.  1.
         22    1    1    0    0    0 -0.56559301026E+01 -0.15852803373E+02 -0.25116031331E+02  0.30234350497E+02  0.00000000000E+00 0.  1.
</event>
<event>
 5    1  0.9034917E-005  0.9118800E+02  0.7818608E-02  0.1130116E+00
         25   -1    0    0    0    0  0.00000000000E+00  0.00000000000E+00  0.99999998245E-14  0.12500000000E+03  0.12500000000E+03 0.  0.
        -13    1    3    3    0    0  0.24217565570E+02  0.29001708348E+02  0.19206615443E+02  0.42385077681E+02  0.10566000000E+00 0. -1.
         23    2    1    0    0    0  0.74479318031E+01  0.91269653449E+01 -0.27075680287E+02  0.95472628842E+02  0.90791834492E+02 0.  0.
         13    1    3    3    0    0 -0.16769633767E+02 -0.19874743003E+02 -0.46282295730E+02  0.53087551160E+02  0.10566000000E+00 0.  1.
         22    1    1    0    0    0 -0.74479318031E+01 -0.91269653449E+01  0.27075680287E+02  0.29527371158E+02  0.00000000000E+00 0.  1.
</event>
<event>
 5    1  0.9034917E-005  0.9118800E+02  0.7818608E-02  0.1130116E+00
         25   -1    0    0    0    0  0.00000000000E+00  0.00000000000E+00  0.99999998245E-14  0.12500000000E+03  0.12500000000E+03 0.  0.
        -13    1    3    3    0    0 -0.24296809572E+02 -0.10731331821E+02  0.23050686363E+02  0.35168760909E+02  0.10566000000E+00 0. -1.
         23    2    1    0    0    0  0.19728969264E+02 -0.15036340386E+02 -0.17069675199E+02  0.94888580707E+02  0.89984138474E+02 0.  0.
         13    1    3    3    0    0  0.44025778836E+02 -0.43050085649E+01 -0.40120361562E+02  0.59719819798E+02  0.10566000000E+00 0.  1.
         22    1    1    0    0    0 -0.19728969264E+02  0.15036340386E+02  0.17069675199E+02  0.30111419293E+02  0.00000000000E+00 0.  1.
</event>
<event>
 5    1  0.9034917E-005  0.9118800E+02  0.7818608E-02  0.1130116E+00
         25   -1    0    0    0    0  0.00000000000E+00  0.00000000000E+00  0.99999998245E-14  0.12500000000E+03  0.12500000000E+03 0.  0.
        -13    1    3    3    0    0 -0.10110693004E+02  0.48618864951E+02  0.31895852395E+02  0.59020138141E+02  0.10566000000E+00 0. -1.
         23    2    1    0    0    0  0.59840682529E+01  0.27126980456E+02  0.54819228987E+01  0.96685098973E+02  0.92446063968E+02 0.  0.
         13    1    3    3    0    0  0.16094761256E+02 -0.21491884495E+02 -0.26413929496E+02  0.37664960832E+02  0.10566000000E+00 0.  1.
         22    1    1    0    0    0 -0.59840682529E+01 -0.27126980456E+02 -0.54819228987E+01  0.28314901027E+02  0.00000000000E+00 0. -1.
</event>
<event>
 5    1  0.9034917E-005  0.9118800E+02  0.7818608E-02  0.1130116E+00
         25   -1    0    0    0    0  0.00000000000E+00  0.00000000000E+00  0.99999998245E-14  0.12500000000E+03  0.12500000000E+03 0.  0.
        -13    1    3    3    0    0 -0.13011358425E+02 -0.87488003954E+01 -0.33757874857E+02  0.37221529191E+02  0.10566000000E+00 0. -1.
         23    2    1    0    0    0 -0.19124739913E+02  0.50985626530E+01  0.22239301136E+02  0.95228578588E+02  0.90455207960E+02 0.  0.
         13    1    3    3    0    0 -0.61133814874E+01  0.13847363048E+02  0.55997175993E+02  0.58007049398E+02  0.10566000000E+00 0.  1.
         22    1    1    0    0    0  0.19124739913E+02 -0.50985626530E+01 -0.22239301136E+02  0.29771421412E+02  0.00000000000E+00 0.  1.
</event>
<event>
 5    1  0.9034917E-005  0.9118800E+02  0.7818608E-02  0.1130116E+00
         25   -1    0    0    0    0  0.00000000000E+00  0.00000000000E+00  0.99999998245E-14  0.12500000000E+03  0.12500000000E+03 0.  0.
        -13    1    3    3    0    0 -0.21467402277E+02  0.34998565910E+02 -0.46794213134E+02  0.62253180828E+02  0.10566000000E+00 0. -1.
         23    2    1    0    0    0 -0.77723019039E+01  0.15084712956E+02 -0.24920648801E+02  0.94850439829E+02  0.89931140087E+02 0.  0.
         13    1    3    3    0    0  0.13695100373E+02 -0.19913852954E+02  0.21873564334E+02  0.32597259002E+02  0.10566000000E+00 0.  1.
         22    1    1    0    0    0  0.77723019039E+01 -0.15084712956E+02  0.24920648801E+02  0.30149560171E+02  0.00000000000E+00 0. -1.
</event>
<event>
 5    1  0.9034917E-005  0.9118800E+02  0.7818608E-02  0.1130116E+00
         25   -1    0    0    0    0  0.00000000000E+00  0.00000000000E+00  0.99999998245E-14  0.12500000000E+03  0.12500000000E+03 0.  0.
        -13    1    3    3    0    0  0.31033873624E+02 -0.76671116163E+01  0.38487389263E+01  0.32197979253E+02  0.10566000000E+00 0.  1.
         23    2    1    0    0    0 -0.18836472210E+02 -0.15703085485E+02 -0.24677150567E+02  0.90209752240E+02  0.83231232479E+02 0.  0.
         13    1    3    3    0    0 -0.49870345834E+02 -0.80359738690E+01 -0.28525889493E+02  0.58011772987E+02  0.10566000000E+00 0. -1.
         22    1    1    0    0    0  0.18836472210E+02  0.15703085485E+02  0.24677150567E+02  0.34790247760E+02  0.00000000000E+00 0. -1.
</event>
<event>
 5    1  0.9034917E-005  0.9118800E+02  0.7818608E-02  0.1130116E+00
         25   -1    0    0    0    0  0.00000000000E+00  0.00000000000E+00  0.99999998245E-14  0.12500000000E+03  0.12500000000E+03 0.  0.
        -13    1    3    3    0    0 -0.36894928545E+02  0.17398909357E+01 -0.14548342739E+02  0.39697964850E+02  0.10566000000E+00 0. -1.
         23    2    1    0    0    0 -0.15235716422E+02  0.84932789235E+01 -0.44460045687E+02  0.77240618678E+02  0.60705474790E+02 0.  0.
         13    1    3    3    0    0  0.21659212123E+02  0.67533879878E+01 -0.29911702948E+02  0.37542653827E+02  0.10566000000E+00 0.  1.
         22    1    1    0    0    0  0.15235716422E+02 -0.84932789235E+01  0.44460045687E+02  0.47759381322E+02  0.00000000000E+00 0. -1.
</event>
<event>
 5    1  0.9034917E-005  0.9118800E+02  0.7818608E-02  0.1130116E+00
         25   -1    0    0    0    0  0.00000000000E+00  0.00000000000E+00  0.99999998245E-14  0.12500000000E+03  0.12500000000E+03 0.  0.
        -13    1    3    3    0    0  0.22724059385E+02  0.16801020459E+02 -0.21967766232E+02  0.35794567753E+02  0.10566000000E+00 0.  1.
         23    2    1    0    0    0  0.75412800238E+01 -0.24079972480E+02  0.17241493329E+02  0.94438830663E+02  0.89357191460E+02 0.  0.
         13    1    3    3    0    0 -0.15182779361E+02 -0.40880992940E+02  0.39209259561E+02  0.58644262909E+02  0.10566000000E+00 0. -1.
         22    1    1    0    0    0 -0.75412800238E+01  0.24079972480E+02 -0.17241493329E+02  0.30561169337E+02  0.00000000000E+00 0. -1.
</event>
<event>
 5    1  0.9034917E-005  0.9118800E+02  0.7818608E-02  0.1130116E+00
         25   -1    0    0    0    0  0.00000000000E+00  0.00000000000E+00  0.99999998245E-14  0.12500000000E+03  0.12500000000E+03 0.  0.
        -13    1    3    3    0    0 -0.18732409675E+02  0.18349590675E+02  0.19613104134E+02  0.32745925975E+02  0.10566000000E+00 0. -1.
         23    2    1    0    0    0  0.54050108387E+01 -0.86592750628E+01 -0.29506684400E+02  0.93777546364E+02  0.88427295508E+02 0.  0.
         13    1    3    3    0    0  0.24137420513E+02 -0.27008865738E+02 -0.49119788535E+02  0.61031620388E+02  0.10566000000E+00 0.  1.
         22    1    1    0    0    0 -0.54050108387E+01  0.86592750628E+01  0.29506684400E+02  0.31222453636E+02  0.00000000000E+00 0.  1.
</event>
<event>
 5    1  0.9034917E-005  0.9118800E+02  0.7818608E-02  0.1130116E+00
         25   -1    0    0    0    0  0.00000000000E+00  0.00000000000E+00  0.99999998245E-14  0.12500000000E+03  0.12500000000E+03 0.  0.
        -13    1    3    3    0    0  0.32692277448E+01  0.46211052960E+00  0.51044005689E+02  0.51150787647E+02  0.10566000000E+00 0.  1.
         23    2    1    0    0    0 -0.10335001999E+01 -0.25554607764E+02  0.16683564501E+02  0.94463997886E+02  0.89392390457E+02 0.  0.
         13    1    3    3    0    0 -0.43027279448E+01 -0.26016718294E+02 -0.34360441188E+02  0.43313210239E+02  0.10566000000E+00 0. -1.
         22    1    1    0    0    0  0.10335001999E+01  0.25554607764E+02 -0.16683564501E+02  0.30536002114E+02  0.00000000000E+00 0.  1.
</event>
<event>
 5    1  0.9034917E-005  0.9118800E+02  0.7818608E-02  0.1130116E+00
         25   -1    0    0    0    0  0.00000000000E+00  0.00000000000E+00  0.99999998245E-14  0.12500000000E+03  0.12500000000E+03 0.  0.
        -13    1    3    3    0    0 -0.34318442741E+01 -0.40000156593E+02 -0.46184545080E+02  0.61194880921E+02  0.10566000000E+00 0. -1.
         23    2    1    0    0    0 -0.27862895169E+01 -0.13779525450E+02 -0.29611016210E+02  0.92221180438E+02  0.86199159564E+02 0.  0.
         13    1    3    3    0    0  0.64555475714E+00  0.26220631143E+02  0.16573528871E+02  0.31026299518E+02  0.10566000000E+00 0.  1.
         22    1    1    0    0    0  0.27862895169E+01  0.13779525450E+02  0.29611016210E+02  0.32778819562E+02  0.00000000000E+00 0. -1.
</event>
<event>
 5    1  0.9034917E-005  0.9118800E+02  0.7818608E-02  0.1130116E+00
         25   -1    0    0    0    0  0.00000000000E+00  0.00000000000E+00  0.99999998245E-14  0.12500000000E+03  0.12500000000E+03 0.  0.
        -13    1    3    3    0    0  0.13446972836E+01  0.56549621559E+02  0.84532937238E+01  0.57193856734E+02  0.10566000000E+00 0. -1.
         23    2    1    0    0    0  0.12304822508E+02  0.20725400347E+02 -0.99386393857E+01  0.98928417207E+02  0.95431149536E+02 0.  0.
         13    1    3    3    0    0  0.10960125224E+02 -0.35824221212E+02 -0.18391933110E+02  0.41734560473E+02  0.10566000000E+00 0.  1.
         22    1    1    0    0    0 -0.12304822508E+02 -0.20725400347E+02  0.99386393857E+01  0.26071582793E+02  0.00000000000E+00 0. -1.
</event>
<event>
 5    1  0.9034917E-005  0.9118800E+02  0.7818608E-02  0.1130116E+00
         25   -1    0    0    0    0  0.00000000000E+00  0.00000000000E+00  0.99999998245E-14  0.12500000000E+03  0.12500000000E+03 0.  0.
        -13    1    3    3    0    0  0.22009086040E+02  0.26380616209E+02 -0.49850933830E+02  0.60543071839E+02  0.10566000000E+00 0.  1.
         23    2    1    0    0    0  0.19785371653E+02  0.19121393691E+02 -0.20971825230E+02  0.90403669536E+02  0.83521957496E+02 0.  0.
         13    1    3    3    0    0 -0.22237143870E+01 -0.72592225182E+01  0.28879108600E+02  0.29860597697E+02  0.10566000000E+00 0. -1.
         22    1    1    0    0    0 -0.19785371653E+02 -0.19121393691E+02  0.20971825230E+02  0.34596330464E+02  0.00000000000E+00 0.  1.
</event>
<event>
 5    1  0.9034917E-005  0.9118800E+02  0.7818608E-02  0.1130116E+00
         25   -1    0    0    0    0  0.00000000000E+00  0.00000000000E+00  0.99999998245E-14  0.12500000000E+03  0.12500000000E+03 0.  0.
        -13    1    3    3    0    0  0.47575702304E+01  0.25889962064E+02 -0.26110054546E+02  0.37076552195E+02  0.10566000000E+00 0. -1.
         23    2    1    0    0    0 -0.15598540691E+02 -0.54069948624E+01  0.21698079376E+02  0.97735431165E+02  0.93855515508E+02 0.  0.
         13    1    3    3    0    0 -0.20356110922E+02 -0.31296956927E+02  0.47808133923E+02  0.60658878970E+02  0.10566000000E+00 0.  1.
         22    1    1    0    0    0  0.15598540691E+02  0.54069948624E+01 -0.21698079376E+02  0.27264568835E+02  0.00000000000E+00 0.  1.
</event>
<event>
 5    1  0.9034917E-005  0.9118800E+02  0.7818608E-02  0.1130116E+00
         25   -1    0    0    0    0  0.00000000000E+00  0.00000000000E+00  0.99999998245E-14  0.12500000000E+03  0.12500000000E+03 0.  0.
        -13    1    3    3    0    0  0.35057994053E+02 -0.13146809630E+02 -0.25908650011E+02  0.45532086048E+02  0.10566000000E+00 0. -1.
         23    2    1    0    0    0 -0.15343477717E+02 -0.14080735391E+01 -0.22937558356E+02  0.97367834633E+02  0.93364654223E+02 0.  0.
         13    1    3    3    0    0 -0.50401471770E+02  0.11738736091E+02  0.29710916553E+01  0.51835748584E+02  0.10566000000E+00 0.  1.
         22    1    1    0    0    0  0.15343477717E+02  0.14080735391E+01  0.22937558356E+02  0.27632165367E+02  0.00000000000E+00 0. -1.
</event>
<event>
 5    1  0.9034917E-005  0.9118800E+02  0.7818608E-02  0.1130116E+00
         25   -1    0    0    0    0  0.00000000000E+00  0.00000000000E+00  0.99999998245E-14  0.12500000000E+03  0.12500000000E+03 0.  0.
        -13    1    3    3    0    0  0.31148204554E+02  0.31303653383E+01 -0.23935501823E+02  0.39407223267E+02  0.10566000000E+00 0.  1.
         23    2    1    0    0    0 -0.65729313840E+00 -0.21693949608E+02 -0.37245154776E+02  0.81892448015E+02  0.69628385043E+02 0.  0.
         13    1    3    3    0    0 -0.31805497693E+02 -0.24824314947E+02 -0.13309652953E+02  0.42485224747E+02  0.10566000000E+00 0. -1.
         22    1    1    0    0    0  0.65729313840E+00  0.21693949608E+02  0.37245154776E+02  0.43107551985E+02  0.00000000000E+00 0.  1.
</event>
<event>
 5    1  0.9034917E-005  0.9118800E+02  0.7818608E-02  0.1130116E+00
         25   -1    0    0    0    0  0.00000000000E+00  0.00000000000E+00  0.99999998245E-14  0.12500000000E+03  0.12500000000E+03 0.  0.
        -13    1    3    3    0    0 -0.28835321509E+01  0.28985587244E+02  0.23093410325E+02  0.37172513905E+02  0.10566000000E+00 0.  1.
         23    2    1    0    0    0 -0.46072383638E+01  0.43325387446E+01 -0.29259201961E+02  0.95065096681E+02  0.90229009583E+02 0.  0.
         13    1    3    3    0    0 -0.17237062129E+01 -0.24653048499E+02 -0.52352612285E+02  0.57892582777E+02  0.10566000000E+00 0. -1.
         22    1    1    0    0    0  0.46072383638E+01 -0.43325387446E+01  0.29259201961E+02  0.29934903319E+02  0.00000000000E+00 0. -1.
</event>
<event>
 5    1  0.9034917E-005  0.9118800E+02  0.7818608E-02  0.1130116E+00
         25   -1    0    0    0    0  0.00000000000E+00  0.00000000000E+00  0.99999998245E-14  0.12500000000E+03  0.12500000000E+03 0.  0.
        -13    1    3    3    0    0 -0.32303744041E+02 -0.46799368988E+02  0.54707636633E+01  0.57128392555E+02  0.10566000000E+00 0.  1.
         23    2    1    0    0    0 -0.21046126972E+02 -0.13099053700E+02  0.17516954969E+02  0.94645949533E+02  0.89646457729E+02 0.  0.
         13    1    3    3    0    0  0.11257617069E+02  0.33700315289E+02  0.12046191306E+02  0.37517556979E+02  0.10566000000E+00 0. -1.
         22    1    1    0    0    0  0.21046126972E+02  0.13099053700E+02 -0.17516954969E+02  0.30354050467E+02  0.00000000000E+00 0.  1.
</event>
<event>
 5    1  0.9034917E-005  0.9118800E+02  0.7818608E-02  0.1130116E+00
         25   -1    0    0    0    0  0.00000000000E+00  0.00000000000E+00  0.99999998245E-14  0.12500000000E+03  0.12500000000E+03 0.  0.
        -13    1    3    3    0    0 -0.94978301334E+01 -0.12179892023E+02  0.43505793396E+02  0.46166262248E+02  0.10566000000E+00 0.  1.
         23    2    1    0    0    0 -0.44405154983E+01  0.25955617793E+02  0.11267896301E+02  0.96357762658E+02  0.92002394885E+02 0.  0.
         13    1    3    3    0    0  0.50573146351E+01  0.38135509816E+02 -0.32237897095E+02  0.50191500410E+02  0.10566000000E+00 0. -1.
         22    1    1    0    0    0  0.44405154983E+01 -0.25955617793E+02 -0.11267896301E+02  0.28642237342E+02  0.00000000000E+00 0.  1.
</event>
<event>
 5    1  0.9034917E-005  0.9118800E+02  0.7818608E-02  0.1130116E+00
         25   -1    0    0    0    0  0.00000000000E+00  0.00000000000E+00  0.99999998245E-14  0.12500000000E+03  0.12500000000E+03 0.  0.
        -13    1    3    3    0    0  0.34080365653E+02 -0.58148757104E+01  0.50146588885E+02  0.60909569391E+02  0.10566000000E+00 0.  1.
         23    2    1    0    0    0  0.79742632978E+01 -0.10491453241E+01  0.29184110067E+02  0.94727869889E+02  0.89760612032E+02 0.  0.
         13    1    3    3    0    0 -0.26106102355E+02  0.47657303863E+01 -0.20962478819E+02  0.33818300498E+02  0.10566000000E+00 0. -1.
         22    1    1    0    0    0 -0.79742632978E+01  0.10491453241E+01 -0.29184110067E+02  0.30272130111E+02  0.00000000000E+00 0.  1.
</event>
<event>
 5    1  0.9034917E-005  0.9118800E+02  0.7818608E-02  0.1130116E+00
         25   -1    0    0    0    0  0.00000000000E+00  0.00000000000E+00  0.99999998245E-14  0.12500000000E+03  0.12500000000E+03 0.  0.
        -13    1    3    3    0    0  0.39452809255E+02  0.42261260090E+02 -0.61996486937E-01  0.57814818776E+02  0.10566000000E+00 0.  1.
         23    2    1    0    0    0  0.51093716627E+01  0.28947184583E+02  0.55857568230E+01  0.95079340693E+02  0.90248740564E+02 0.  0.
         13    1    3    3    0    0 -0.34343437592E+02 -0.13314075507E+02  0.56477533099E+01  0.37264521917E+02  0.10566000000E+00 0. -1.
         22    1    1    0    0    0 -0.51093716627E+01 -0.28947184583E+02 -0.55857568230E+01  0.29920659307E+02  0.00000000000E+00 0.  1.
</event>
<event>
 5    1  0.9034917E-005  0.9118800E+02  0.7818608E-02  0.1130116E+00
         25   -1    0    0    0    0  0.00000000000E+00  0.00000000000E+00  0.99999998245E-14  0.12500000000E+03  0.12500000000E+03 0.  0.
        -13    1    3    3    0    0  0.23518769533E+02  0.48330971579E+02 -0.27360330572E+00  0.53750361459E+02  0.10566000000E+00 0.  1.
         23    2    1    0    0    0  0.28508604680E+02  0.67212496821E+01 -0.14381480441E+01  0.95674516067E+02  0.91069363766E+02 0.  0.
         13    1    3    3    0    0  0.49898351476E+01 -0.41609721897E+02 -0.11645447384E+01  0.41924154609E+02  0.10566000000E+00 0. -1.
         22    1    1    0    0    0 -0.28508604680E+02 -0.67212496821E+01  0.14381480441E+01  0.29325483933E+02  0.00000000000E+00 0.  1.
</event>
<event>
 5    1  0.9034917E-005  0.9118800E+02  0.7818608E-02  0.1130116E+00
         25   -1    0    0    0    0  0.00000000000E+00  0.00000000000E+00  0.99999998245E-14  0.12500000000E+03  0.12500000000E+03 0.  0.
        -13    1    3    3    0    0 -0.45606635086E+02  0.45831859946E+01 -0.98946347312E+01  0.46892277810E+02  0.10566000000E+00 0.  1.
         23    2    1    0    0    0 -0.15972201384E+01  0.86809033494E+00 -0.29663530130E+02  0.95280819110E+02  0.90527370322E+02 0.  0.
         13    1    3    3    0    0  0.44009414947E+02 -0.37150956597E+01 -0.19768895399E+02  0.48388541300E+02  0.10566000000E+00 0. -1.
         22    1    1    0    0    0  0.15972201384E+01 -0.86809033494E+00  0.29663530130E+02  0.29719180890E+02  0.00000000000E+00 0.  1.
</event>
<event>
 5    1  0.9034917E-005  0.9118800E+02  0.7818608E-02  0.1130116E+00
         25   -1    0    0    0    0  0.00000000000E+00  0.00000000000E+00  0.99999998245E-14  0.12500000000E+03  0.12500000000E+03 0.  0.
        -13    1    3    3    0    0  0.18354334997E+02 -0.26169466960E+02 -0.24606329791E+02  0.40338632152E+02  0.10566000000E+00 0.  1.
         23    2    1    0    0    0  0.22946624058E+02  0.21565382530E+02 -0.17521811711E+01  0.93461397967E+02  0.87979256031E+02 0.  0.
         13    1    3    3    0    0  0.45922890614E+01  0.47734849490E+02  0.22854148619E+02  0.53122765815E+02  0.10566000000E+00 0. -1.
         22    1    1    0    0    0 -0.22946624058E+02 -0.21565382530E+02  0.17521811711E+01  0.31538602033E+02  0.00000000000E+00 0. -1.
</event>
<event>
 5    1  0.9034917E-005  0.9118800E+02  0.7818608E-02  0.1130116E+00
         25   -1    0    0    0    0  0.00000000000E+00  0.00000000000E+00  0.99999998245E-14  0.12500000000E+03  0.12500000000E+03 0.  0.
        -13    1    3    3    0    0  0.11577093281E+02  0.33625126900E+02  0.28507233670E+01  0.35676547417E+02  0.10566000000E+00 0.  1.
         23    2    1    0    0    0 -0.17895294816E+02 -0.14347096626E+02 -0.18132355200E+02  0.95761958628E+02  0.91189306703E+02 0.  0.
         13    1    3    3    0    0 -0.29472388097E+02 -0.47972223526E+02 -0.20983078567E+02  0.60085411211E+02  0.10566000000E+00 0. -1.
         22    1    1    0    0    0  0.17895294816E+02  0.14347096626E+02  0.18132355200E+02  0.29238041372E+02  0.00000000000E+00 0. -1.
</event>
<event>
 5    1  0.9034917E-005  0.9118800E+02  0.7818608E-02  0.1130116E+00
         25   -1    0    0    0    0  0.00000000000E+00  0.00000000000E+00  0.99999998245E-14  0.12500000000E+03  0.12500000000E+03 0.  0.
        -13    1    3    3    0    0 -0.40715622522E+02 -0.17410921534E+02 -0.65917046378E+01  0.44770122181E+02  0.10566000000E+00 0. -1.
         23    2    1    0    0    0  0.12151292404E+01  0.44518520532E+01  0.23651580077E+02  0.10090243237E+03  0.97982692816E+02 0.  0.
         13    1    3    3    0    0  0.41930751763E+02  0.21862773587E+02  0.30243284714E+02  0.56132310185E+02  0.10566000000E+00 0.  1.
         22    1    1    0    0    0 -0.12151292404E+01 -0.44518520532E+01 -0.23651580077E+02  0.24097567634E+02  0.00000000000E+00 0.  1.
</event>
<event>
 5    1  0.9034917E-005  0.9118800E+02  0.7818608E-02  0.1130116E+00
         25   -1    0    0    0    0  0.00000000000E+00  0.00000000000E+00  0.99999998245E-14  0.12500000000E+03  0.12500000000E+03 0.  0.
        -13    1    3    3    0    0  0.39327592610E+02  0.15744097837E+02  0.10445600087E+02  0.43630928049E+02  0.10566000000E+00 0. -1.
         23    2    1    0    0    0  0.19087991740E+01 -0.86709920114E+01 -0.23587977913E+02  0.99796382823E+02  0.96561357208E+02 0.  0.
         13    1    3    3    0    0 -0.37418793436E+02 -0.24415089848E+02 -0.34033578000E+02  0.56165454775E+02  0.10566000000E+00 0.  1.
         22    1    1    0    0    0 -0.19087991740E+01  0.86709920114E+01  0.23587977913E+02  0.25203617177E+02  0.00000000000E+00 0.  1.
</event>
<event>
 5    1  0.9034917E-005  0.9118800E+02  0.7818608E-02  0.1130116E+00
         25   -1    0    0    0    0  0.00000000000E+00  0.00000000000E+00  0.99999998245E-14  0.12500000000E+03  0.12500000000E+03 0.  0.
        -13    1    3    3    0    0  0.36138956677E+02  0.13522742540E+02  0.51521735911E+01  0.38928714495E+02  0.10566000000E+00 0.  1.
         23    2    1    0    0    0 -0.16610433356E+02  0.21684922778E+01  0.23693296811E+02  0.95983088228E+02  0.91491923453E+02 0.  0.
         13    1    3    3    0    0 -0.52749390033E+02 -0.11354250262E+02  0.18541123219E+02  0.57054373733E+02  0.10566000000E+00 0. -1.
         22    1    1    0    0    0  0.16610433356E+02 -0.21684922778E+01 -0.23693296811E+02  0.29016911772E+02  0.00000000000E+00 0.  1.
</event>
<event>
 5    1  0.9034917E-005  0.9118800E+02  0.7818608E-02  0.1130116E+00
         25   -1    0    0    0    0  0.00000000000E+00  0.00000000000E+00  0.99999998245E-14  0.12500000000E+03  0.12500000000E+03 0.  0.
        -13    1    3    3    0    0 -0.33578123374E+02 -0.32662182615E+01  0.32538967461E+01  0.33893326173E+02  0.10566000000E+00 0. -1.
         23    2    1    0    0    0  0.26628594826E+02 -0.53770302832E+01  0.12937736971E+02  0.94910474331E+02  0.90014546506E+02 0.  0.
         13    1    3    3    0    0  0.60206718199E+02 -0.21108120217E+01  0.96838402252E+01  0.61017148157E+02  0.10566000000E+00 0.  1.
         22    1    1    0    0    0 -0.26628594826E+02  0.53770302832E+01 -0.12937736971E+02  0.30089525669E+02  0.00000000000E+00 0.  1.
</event>
<event>
 5    1  0.9034917E-005  0.9118800E+02  0.7818608E-02  0.1130116E+00
         25   -1    0    0    0    0  0.00000000000E+00  0.00000000000E+00  0.99999998245E-14  0.12500000000E+03  0.12500000000E+03 0.  0.
        -13    1    3    3    0    0 -0.30045398175E+02 -0.28423758751E+02  0.10957595730E+01  0.41374483273E+02  0.10566000000E+00 0. -1.
         23    2    1    0    0    0  0.19688383751E+02 -0.15378168867E+02  0.16513951087E+02  0.95052861356E+02  0.90212057615E+02 0.  0.
         13    1    3    3    0    0  0.49733781926E+02  0.13045589885E+02  0.15418191514E+02  0.53678378084E+02  0.10566000000E+00 0.  1.
         22    1    1    0    0    0 -0.19688383751E+02  0.15378168867E+02 -0.16513951087E+02  0.29947138644E+02  0.00000000000E+00 0.  1.
</event>
<event>
 5    1  0.9034917E-005  0.9118800E+02  0.7818608E-02  0.1130116E+00
         25   -1    0    0    0    0  0.00000000000E+00  0.00000000000E+00  0.99999998245E-14  0.12500000000E+03  0.12500000000E+03 0.  0.
        -13    1    3    3    0    0  0.11812495028E+02 -0.24342969244E+02 -0.29962751465E+02  0.40371931212E+02  0.10566000000E+00 0.  1.
         23    2    1    0    0    0  0.32573005352E+02 -0.24815324090E+01  0.10368973471E+02  0.90726478273E+02  0.84003687825E+02 0.  0.
         13    1    3    3    0    0  0.20760510324E+02  0.21861436835E+02  0.40331724936E+02  0.50354547061E+02  0.10566000000E+00 0. -1.
         22    1    1    0    0    0 -0.32573005352E+02  0.24815324090E+01 -0.10368973471E+02  0.34273521727E+02  0.00000000000E+00 0.  1.
</event>
<event>
 5    1  0.9034917E-005  0.9118800E+02  0.7818608E-02  0.1130116E+00
         25   -1    0    0    0    0  0.00000000000E+00  0.00000000000E+00  0.99999998245E-14  0.12500000000E+03  0.12500000000E+03 0.  0.
        -13    1    3    3    0    0  0.23191647308E+02 -0.52442939836E+02 -0.47935290251E+01  0.57542189114E+02  0.10566000000E+00 0.  1.
         23    2    1    0    0    0  0.15282371055E+02 -0.17530088481E+02 -0.17888379493E+02  0.95659771847E+02  0.91049123893E+02 0.  0.
         13    1    3    3    0    0 -0.79092762534E+01  0.34912851355E+02 -0.13094850468E+02  0.38117582733E+02  0.10566000000E+00 0. -1.
         22    1    1    0    0    0 -0.15282371055E+02  0.17530088481E+02  0.17888379493E+02  0.29340228153E+02  0.00000000000E+00 0.  1.
</event>
<event>
 5    1  0.9034917E-005  0.9118800E+02  0.7818608E-02  0.1130116E+00
         25   -1    0    0    0    0  0.00000000000E+00  0.00000000000E+00  0.99999998245E-14  0.12500000000E+03  0.12500000000E+03 0.  0.
        -13    1    3    3    0    0 -0.56936669686E+02 -0.25814402327E+01 -0.20971403474E+02  0.60731039151E+02  0.10566000000E+00 0.  1.
         23    2    1    0    0    0 -0.22443602440E+02  0.37028112142E+01 -0.18138855804E+02  0.95906286053E+02  0.91386932946E+02 0.  0.
         13    1    3    3    0    0  0.34493067246E+02  0.62842514469E+01  0.28325476704E+01  0.35175246902E+02  0.10566000000E+00 0. -1.
         22    1    1    0    0    0  0.22443602440E+02 -0.37028112142E+01  0.18138855804E+02  0.29093713947E+02  0.00000000000E+00 0.  1.
</event>
<event>
 5    1  0.9034917E-005  0.9118800E+02  0.7818608E-02  0.1130116E+00
         25   -1    0    0    0    0  0.00000000000E+00  0.00000000000E+00  0.99999998245E-14  0.12500000000E+03  0.12500000000E+03 0.  0.
        -13    1    3    3    0    0 -0.27564894008E+02 -0.39119417676E+02  0.24811768550E+02  0.53905354498E+02  0.10566000000E+00 0.  1.
         23    2    1    0    0    0  0.99101478871E+01 -0.19800693805E+02  0.17678445363E+02  0.96666169748E+02  0.92420465466E+02 0.  0.
         13    1    3    3    0    0  0.37475041896E+02  0.19318723871E+02 -0.71333231866E+01  0.42760815249E+02  0.10566000000E+00 0. -1.
         22    1    1    0    0    0 -0.99101478871E+01  0.19800693805E+02 -0.17678445363E+02  0.28333830252E+02  0.00000000000E+00 0.  1.
</event>
<event>
 5    1  0.9034917E-005  0.9118800E+02  0.7818608E-02  0.1130116E+00
         25   -1    0    0    0    0  0.00000000000E+00  0.00000000000E+00  0.99999998245E-14  0.12500000000E+03  0.12500000000E+03 0.  0.
        -13    1    3    3    0    0 -0.11583233098E+02  0.29315261403E+02  0.30184154634E+02  0.43642298234E+02  0.10566000000E+00 0.  1.
         23    2    1    0    0    0 -0.26010464581E+02 -0.11508328394E+02 -0.23257647201E+00  0.96556371857E+02  0.92271842748E+02 0.  0.
         13    1    3    3    0    0 -0.14427231483E+02 -0.40823589797E+02 -0.30416731106E+02  0.52914073623E+02  0.10566000000E+00 0. -1.
         22    1    1    0    0    0  0.26010464581E+02  0.11508328394E+02  0.23257647201E+00  0.28443628143E+02  0.00000000000E+00 0. -1.
</event>
<event>
 5    1  0.9034917E-005  0.9118800E+02  0.7818608E-02  0.1130116E+00
         25   -1    0    0    0    0  0.00000000000E+00  0.00000000000E+00  0.99999998245E-14  0.12500000000E+03  0.12500000000E+03 0.  0.
        -13    1    3    3    0    0  0.50201486690E+02 -0.23848786692E+02 -0.20611191818E+02  0.59277198692E+02  0.10566000000E+00 0.  1.
         23    2    1    0    0    0  0.16863975188E+02 -0.21054171219E+02 -0.17431505842E+02  0.92882572008E+02  0.87152986191E+02 0.  0.
         13    1    3    3    0    0 -0.33337511502E+02  0.27946154730E+01  0.31796859765E+01  0.33605373316E+02  0.10566000000E+00 0. -1.
         22    1    1    0    0    0 -0.16863975188E+02  0.21054171219E+02  0.17431505842E+02  0.32117427992E+02  0.00000000000E+00 0.  1.
</event>
<event>
 5    1  0.9034917E-005  0.9118800E+02  0.7818608E-02  0.1130116E+00
         25   -1    0    0    0    0  0.00000000000E+00  0.00000000000E+00  0.99999998245E-14  0.12500000000E+03  0.12500000000E+03 0.  0.
        -13    1    3    3    0    0  0.23944330697E+02  0.19886287090E+02 -0.32153477233E+02  0.44751007239E+02  0.10566000000E+00 0.  1.
         23    2    1    0    0    0 -0.10429412596E+02  0.26774817255E+02  0.50006550629E+01  0.95833751747E+02  0.91287665852E+02 0.  0.
         13    1    3    3    0    0 -0.34373743292E+02  0.68885301651E+01  0.37154132296E+02  0.51082744508E+02  0.10566000000E+00 0. -1.
         22    1    1    0    0    0  0.10429412596E+02 -0.26774817255E+02 -0.50006550629E+01  0.29166248253E+02  0.00000000000E+00 0. -1.
</event>
<event>
 5    1  0.9034917E-005  0.9118800E+02  0.7818608E-02  0.1130116E+00
         25   -1    0    0    0    0  0.00000000000E+00  0.00000000000E+00  0.99999998245E-14  0.12500000000E+03  0.12500000000E+03 0.  0.
        -13    1    3    3    0    0  0.18738520899E+02  0.12483432939E+02 -0.50011646809E+02  0.54846551797E+02  0.10566000000E+00 0.  1.
         23    2    1    0    0    0 -0.13479041280E+02  0.47790757142E+01 -0.24395408399E+02  0.96721738571E+02  0.92495592558E+02 0.  0.
         13    1    3    3    0    0 -0.32217562179E+02 -0.77043572244E+01  0.25616238411E+02  0.41875186774E+02  0.10566000000E+00 0. -1.
         22    1    1    0    0    0  0.13479041280E+02 -0.47790757142E+01  0.24395408399E+02  0.28278261429E+02  0.00000000000E+00 0.  1.
</event>
<event>
 5    1  0.9034917E-005  0.9118800E+02  0.7818608E-02  0.1130116E+00
         25   -1    0    0    0    0  0.00000000000E+00  0.00000000000E+00  0.99999998245E-14  0.12500000000E+03  0.12500000000E+03 0.  0.
        -13    1    3    3    0    0  0.33842231500E+01  0.20874347455E+02 -0.55351420939E+02  0.59253542612E+02  0.10566000000E+00 0.  1.
         23    2    1    0    0    0 -0.11951483158E+02  0.13962487942E+02 -0.24769772998E+02  0.94156351163E+02  0.88961158888E+02 0.  0.
         13    1    3    3    0    0 -0.15335706308E+02 -0.69118595137E+01  0.30581647941E+02  0.34902808551E+02  0.10566000000E+00 0. -1.
         22    1    1    0    0    0  0.11951483158E+02 -0.13962487942E+02  0.24769772998E+02  0.30843648837E+02  0.00000000000E+00 0.  1.
</event>
<event>
 5    1  0.9034917E-005  0.9118800E+02  0.7818608E-02  0.1130116E+00
         25   -1    0    0    0    0  0.00000000000E+00  0.00000000000E+00  0.99999998245E-14  0.12500000000E+03  0.12500000000E+03 0.  0.
        -13    1    3    3    0    0  0.17907858756E+02  0.14851699197E+02  0.50908099610E+02  0.55972405203E+02  0.10566000000E+00 0.  1.
         23    2    1    0    0    0 -0.91250391872E+01  0.17183339045E+02  0.22442246021E+02  0.95298352110E+02  0.90551576615E+02 0.  0.
         13    1    3    3    0    0 -0.27032897943E+02  0.23316398479E+01 -0.28465853589E+02  0.39325946907E+02  0.10566000000E+00 0. -1.
         22    1    1    0    0    0  0.91250391872E+01 -0.17183339045E+02 -0.22442246021E+02  0.29701647890E+02  0.00000000000E+00 0.  1.
</event>
<event>
 5    1  0.9034917E-005  0.9118800E+02  0.7818608E-02  0.1130116E+00
         25   -1    0    0    0    0  0.00000000000E+00  0.00000000000E+00  0.99999998245E-14  0.12500000000E+03  0.12500000000E+03 0.  0.
        -13    1    3    3    0    0  0.75922498288E+01  0.89405295418E+01  0.37638162341E+02  0.39423568514E+02  0.10566000000E+00 0. -1.
         23    2    1    0    0    0 -0.94835835760E+01 -0.26301088514E+02 -0.41976101829E+01  0.96728007752E+02  0.92504064440E+02 0.  0.
         13    1    3    3    0    0 -0.17075833405E+02 -0.35241618055E+02 -0.41835772524E+02  0.57304439238E+02  0.10566000000E+00 0.  1.
         22    1    1    0    0    0  0.94835835760E+01  0.26301088514E+02  0.41976101829E+01  0.28271992248E+02  0.00000000000E+00 0.  1.
</event>
<event>
 5    1  0.9034917E-005  0.9118800E+02  0.7818608E-02  0.1130116E+00
         25   -1    0    0    0    0  0.00000000000E+00  0.00000000000E+00  0.99999998245E-14  0.12500000000E+03  0.12500000000E+03 0.  0.
        -13    1    3    3    0    0  0.19396902531E+02  0.62060216905E+00  0.10526480331E+02  0.22078109680E+02  0.10566000000E+00 0.  1.
         23    2    1    0    0    0 -0.35700491716E+02  0.11505423790E+02 -0.16038394216E+02  0.84206250793E+02  0.73665206836E+02 0.  0.
         13    1    3    3    0    0 -0.55097394247E+02  0.10884821621E+02 -0.26564874547E+02  0.62128141113E+02  0.10566000000E+00 0. -1.
         22    1    1    0    0    0  0.35700491716E+02 -0.11505423790E+02  0.16038394216E+02  0.40793749207E+02  0.00000000000E+00 0. -1.
</event>
<event>
 5    1  0.9034917E-005  0.9118800E+02  0.7818608E-02  0.1130116E+00
         25   -1    0    0    0    0  0.00000000000E+00  0.00000000000E+00  0.99999998245E-14  0.12500000000E+03  0.12500000000E+03 0.  0.
        -13    1    3    3    0    0 -0.39370383822E+02  0.26738861131E+02  0.25138407102E+02  0.53823270920E+02  0.10566000000E+00 0.  1.
         23    2    1    0    0    0  0.27715684184E+01  0.19843329171E+02  0.19753398327E+02  0.96863972392E+02  0.92687610272E+02 0.  0.
         13    1    3    3    0    0  0.42141952240E+02 -0.68955319595E+01 -0.53850087754E+01  0.43040701472E+02  0.10566000000E+00 0. -1.
         22    1    1    0    0    0 -0.27715684184E+01 -0.19843329171E+02 -0.19753398327E+02  0.28136027608E+02  0.00000000000E+00 0.  1.
</event>
<event>
 5    1  0.9034917E-005  0.9118800E+02  0.7818608E-02  0.1130116E+00
         25   -1    0    0    0    0  0.00000000000E+00  0.00000000000E+00  0.99999998245E-14  0.12500000000E+03  0.12500000000E+03 0.  0.
        -13    1    3    3    0    0 -0.31350729106E+02 -0.24721920342E+02  0.40867596880E+02  0.57133293268E+02  0.10566000000E+00 0. -1.
         23    2    1    0    0    0 -0.22313987338E+02  0.35507992417E+01  0.26698678271E+02  0.90023699058E+02  0.82951339739E+02 0.  0.
         13    1    3    3    0    0  0.90367417677E+01  0.28272719584E+02 -0.14168918609E+02  0.32890405790E+02  0.10566000000E+00 0.  1.
         22    1    1    0    0    0  0.22313987338E+02 -0.35507992417E+01 -0.26698678271E+02  0.34976300942E+02  0.00000000000E+00 0. -1.
</event>
<event>
 5    1  0.9034917E-005  0.9118800E+02  0.7818608E-02  0.1130116E+00
         25   -1    0    0    0    0  0.00000000000E+00  0.00000000000E+00  0.99999998245E-14  0.12500000000E+03  0.12500000000E+03 0.  0.
        -13    1    3    3    0    0  0.34979534186E+02 -0.35731412684E+02  0.27565389055E+02  0.57097841483E+02  0.10566000000E+00 0. -1.
         23    2    1    0    0    0  0.83180337261E+01 -0.73472830961E+01  0.26739328863E+02  0.96048938499E+02  0.91581846590E+02 0.  0.
         13    1    3    3    0    0 -0.26661500460E+02  0.28384129588E+02 -0.82606019158E+00  0.38951097016E+02  0.10566000000E+00 0.  1.
         22    1    1    0    0    0 -0.83180337261E+01  0.73472830961E+01 -0.26739328863E+02  0.28951061501E+02  0.00000000000E+00 0. -1.
</event>
<event>
 5    1  0.9034917E-005  0.9118800E+02  0.7818608E-02  0.1130116E+00
         25   -1    0    0    0    0  0.00000000000E+00  0.00000000000E+00  0.99999998245E-14  0.12500000000E+03  0.12500000000E+03 0.  0.
        -13    1    3    3    0    0  0.14064880712E+01  0.10749791535E+02  0.52225598195E+02  0.53339108519E+02  0.10566000000E+00 0. -1.
         23    2    1    0    0    0 -0.13021039566E+02  0.22466034164E+02  0.14834729672E+02  0.95094492700E+02  0.90269724576E+02 0.  0.
         13    1    3    3    0    0 -0.14427527638E+02  0.11716242629E+02 -0.37390868524E+02  0.41755384180E+02  0.10566000000E+00 0.  1.
         22    1    1    0    0    0  0.13021039566E+02 -0.22466034164E+02 -0.14834729672E+02  0.29905507300E+02  0.00000000000E+00 0. -1.
</event>
<event>
 5    1  0.9034917E-005  0.9118800E+02  0.7818608E-02  0.1130116E+00
         25   -1    0    0    0    0  0.00000000000E+00  0.00000000000E+00  0.99999998245E-14  0.12500000000E+03  0.12500000000E+03 0.  0.
        -13    1    3    3    0    0  0.52423168497E+02  0.14284848057E+01  0.84461782028E+01  0.53118530235E+02  0.10566000000E+00 0. -1.
         23    2    1    0    0    0  0.18876531824E+02  0.18055185664E+02 -0.12523425412E+02  0.96031925036E+02  0.91558621981E+02 0.  0.
         13    1    3    3    0    0 -0.33546636673E+02  0.16626700858E+02 -0.20969603615E+02  0.42913394801E+02  0.10566000000E+00 0.  1.
         22    1    1    0    0    0 -0.18876531824E+02 -0.18055185664E+02  0.12523425412E+02  0.28968074964E+02  0.00000000000E+00 0. -1.
</event>
<event>
 5    1  0.9034917E-005  0.9118800E+02  0.7818608E-02  0.1130116E+00
         25   -1    0    0    0    0  0.00000000000E+00  0.00000000000E+00  0.99999998245E-14  0.12500000000E+03  0.12500000000E+03 0.  0.
        -13    1    3    3    0    0  0.11566492224E+02  0.38457348375E+02  0.31516445649E+02  0.51049474991E+02  0.10566000000E+00 0.  1.
         23    2    1    0    0    0 -0.79839534510E+01  0.60912467197E+01  0.34585120767E+02  0.88986427867E+02  0.81373257073E+02 0.  0.
         13    1    3    3    0    0 -0.19550445675E+02 -0.32366101656E+02  0.30686751185E+01  0.37936952876E+02  0.10566000000E+00 0. -1.
         22    1    1    0    0    0  0.79839534510E+01 -0.60912467197E+01 -0.34585120767E+02  0.36013572133E+02  0.00000000000E+00 0.  1.
</event>
<event>
 5    1  0.9034917E-005  0.9118800E+02  0.7818608E-02  0.1130116E+00
         25   -1    0    0    0    0  0.00000000000E+00  0.00000000000E+00  0.99999998245E-14  0.12500000000E+03  0.12500000000E+03 0.  0.
        -13    1    3    3    0    0  0.64826307028E+01  0.39252871998E+02 -0.24485589168E+02  0.46715818540E+02  0.10566000000E+00 0.  1.
         23    2    1    0    0    0 -0.27198943397E+02  0.82216006620E+01 -0.11758600014E+02  0.94248708748E+02  0.89090836717E+02 0.  0.
         13    1    3    3    0    0 -0.33681574100E+02 -0.31031271336E+02  0.12726989154E+02  0.47532890208E+02  0.10566000000E+00 0. -1.
         22    1    1    0    0    0  0.27198943397E+02 -0.82216006620E+01  0.11758600014E+02  0.30751291252E+02  0.00000000000E+00 0.  1.
</event>
<event>
 5    1  0.9034917E-005  0.9118800E+02  0.7818608E-02  0.1130116E+00
         25   -1    0    0    0    0  0.00000000000E+00  0.00000000000E+00  0.99999998245E-14  0.12500000000E+03  0.12500000000E+03 0.  0.
        -13    1    3    3    0    0  0.21946455977E+02  0.43789698098E+02 -0.12146906008E+02  0.50465266065E+02  0.10566000000E+00 0.  1.
         23    2    1    0    0    0 -0.15446833545E+02  0.24634909208E+02 -0.14425758325E+02  0.92541011699E+02  0.86661715450E+02 0.  0.
         13    1    3    3    0    0 -0.37393289523E+02 -0.19154788889E+02 -0.22788523171E+01  0.42075745634E+02  0.10566000000E+00 0. -1.
         22    1    1    0    0    0  0.15446833545E+02 -0.24634909208E+02  0.14425758325E+02  0.32458988301E+02  0.00000000000E+00 0.  1.
</event>
<event>
 5    1  0.9034917E-005  0.9118800E+02  0.7818608E-02  0.1130116E+00
         25   -1    0    0    0    0  0.00000000000E+00  0.00000000000E+00  0.99999998245E-14  0.12500000000E+03  0.12500000000E+03 0.  0.
        -13    1    3    3    0    0 -0.10583645982E+00 -0.28821954895E+02 -0.26523666474E+02  0.39169277918E+02  0.10566000000E+00 0. -1.
         23    2    1    0    0    0 -0.14119590137E+02  0.22770658968E+02 -0.16414219491E+02  0.93578791605E+02  0.88145889872E+02 0.  0.
         13    1    3    3    0    0 -0.14013753677E+02  0.51592613863E+02  0.10109446983E+02  0.54409513687E+02  0.10566000000E+00 0.  1.
         22    1    1    0    0    0  0.14119590137E+02 -0.22770658968E+02  0.16414219491E+02  0.31421208395E+02  0.00000000000E+00 0.  1.
</event>
<event>
 5    1  0.9034917E-005  0.9118800E+02  0.7818608E-02  0.1130116E+00
         25   -1    0    0    0    0  0.00000000000E+00  0.00000000000E+00  0.99999998245E-14  0.12500000000E+03  0.12500000000E+03 0.  0.
        -13    1    3    3    0    0  0.28892908075E+02  0.30059497813E+02  0.37580236902E+01  0.41862960381E+02  0.10566000000E+00 0.  1.
         23    2    1    0    0    0  0.75608764741E+01 -0.11131472262E+01 -0.30925602828E+02  0.93144092227E+02  0.87527270360E+02 0.  0.
         13    1    3    3    0    0 -0.21332031601E+02 -0.31172645039E+02 -0.34683626518E+02  0.51281131846E+02  0.10566000000E+00 0. -1.
         22    1    1    0    0    0 -0.75608764741E+01  0.11131472262E+01  0.30925602828E+02  0.31855907773E+02  0.00000000000E+00 0. -1.
</event>
<event>
 5    1  0.9034917E-005  0.9118800E+02  0.7818608E-02  0.1130116E+00
         25   -1    0    0    0    0  0.00000000000E+00  0.00000000000E+00  0.99999998245E-14  0.12500000000E+03  0.12500000000E+03 0.  0.
        -13    1    3    3    0    0  0.12465566039E+01  0.42365189486E+01  0.52043637144E+02  0.52230769929E+02  0.10566000000E+00 0.  1.
         23    2    1    0    0    0  0.24346372513E+02  0.69515616632E+01  0.16260252455E+02  0.94909039995E+02  0.90012554673E+02 0.  0.
         13    1    3    3    0    0  0.23099815909E+02  0.27150427146E+01 -0.35783384689E+02  0.42678270066E+02  0.10566000000E+00 0. -1.
         22    1    1    0    0    0 -0.24346372513E+02 -0.69515616632E+01 -0.16260252455E+02  0.30090960005E+02  0.00000000000E+00 0. -1.
</event>
<event>
 5    1  0.9034917E-005  0.9118800E+02  0.7818608E-02  0.1130116E+00
         25   -1    0    0    0    0  0.00000000000E+00  0.00000000000E+00  0.99999998245E-14  0.12500000000E+03  0.12500000000E+03 0.  0.
        -13    1    3    3    0    0  0.59233434483E+01  0.25480310411E+02  0.23976086268E+02  0.35485153135E+02  0.10566000000E+00 0.  1.
         23    2    1    0    0    0  0.59935689758E+01 -0.29996200285E+02  0.57810919405E+01  0.93869373205E+02  0.88557005942E+02 0.  0.
         13    1    3    3    0    0  0.70225527486E-01 -0.55476510696E+02 -0.18194994328E+02  0.58384220070E+02  0.10566000000E+00 0. -1.
         22    1    1    0    0    0 -0.59935689758E+01  0.29996200285E+02 -0.57810919405E+01  0.31130626795E+02  0.00000000000E+00 0. -1.
</event>
<event>
 5    1  0.9034917E-005  0.9118800E+02  0.7818608E-02  0.1130116E+00
         25   -1    0    0    0    0  0.00000000000E+00  0.00000000000E+00  0.99999998245E-14  0.12500000000E+03  0.12500000000E+03 0.  0.
        -13    1    3    3    0    0  0.37353260316E+02 -0.15285297763E+02 -0.20347075331E+02  0.45198683858E+02  0.10566000000E+00 0.  1.
         23    2    1    0    0    0  0.18057009608E+02  0.12301531983E+02  0.18333492147E+02  0.96478074760E+02  0.92165713202E+02 0.  0.
         13    1    3    3    0    0 -0.19296250708E+02  0.27586829746E+02  0.38680567478E+02  0.51279390902E+02  0.10566000000E+00 0. -1.
         22    1    1    0    0    0 -0.18057009608E+02 -0.12301531983E+02 -0.18333492147E+02  0.28521925240E+02  0.00000000000E+00 0. -1.
</event>
<event>
 5    1  0.9034917E-005  0.9118800E+02  0.7818608E-02  0.1130116E+00
         25   -1    0    0    0    0  0.00000000000E+00  0.00000000000E+00  0.99999998245E-14  0.12500000000E+03  0.12500000000E+03 0.  0.
        -13    1    3    3    0    0  0.14971313618E+02  0.32594792735E+02  0.50679251517E+01  0.36225071074E+02  0.10566000000E+00 0.  1.
         23    2    1    0    0    0 -0.78604199716E+01 -0.15826031375E+02 -0.22460068762E+02  0.96421963678E+02  0.92089580950E+02 0.  0.
         13    1    3    3    0    0 -0.22831733590E+02 -0.48420824111E+02 -0.27527993914E+02  0.60196892604E+02  0.10566000000E+00 0. -1.
         22    1    1    0    0    0  0.78604199716E+01  0.15826031375E+02  0.22460068762E+02  0.28578036322E+02  0.00000000000E+00 0. -1.
</event>
<event>
 5    1  0.9034917E-005  0.9118800E+02  0.7818608E-02  0.1130116E+00
         25   -1    0    0    0    0  0.00000000000E+00  0.00000000000E+00  0.99999998245E-14  0.12500000000E+03  0.12500000000E+03 0.  0.
        -13    1    3    3    0    0 -0.16236507641E+02  0.49376177952E+02 -0.12822753821E+02  0.53535645220E+02  0.10566000000E+00 0.  1.
         23    2    1    0    0    0 -0.72621076393E+01  0.20870978414E+02  0.18022999011E+02  0.96483961694E+02  0.92173697026E+02 0.  0.
         13    1    3    3    0    0  0.89744000020E+01 -0.28505199538E+02  0.30845752832E+02  0.42948316474E+02  0.10566000000E+00 0. -1.
         22    1    1    0    0    0  0.72621076393E+01 -0.20870978414E+02 -0.18022999011E+02  0.28516038306E+02  0.00000000000E+00 0.  1.
</event>
<event>
 5    1  0.9034917E-005  0.9118800E+02  0.7818608E-02  0.1130116E+00
         25   -1    0    0    0    0  0.00000000000E+00  0.00000000000E+00  0.99999998245E-14  0.12500000000E+03  0.12500000000E+03 0.  0.
        -13    1    3    3    0    0 -0.98201106702E+01 -0.43149184616E+02 -0.37390586351E+02  0.57934047142E+02  0.10566000000E+00 0. -1.
         23    2    1    0    0    0  0.11249394811E+02 -0.15419119608E+02 -0.21606448214E+02  0.96170557801E+02  0.91747694523E+02 0.  0.
         13    1    3    3    0    0  0.21069505482E+02  0.27730065008E+02  0.15784138137E+02  0.38236510659E+02  0.10566000000E+00 0.  1.
         22    1    1    0    0    0 -0.11249394811E+02  0.15419119608E+02  0.21606448214E+02  0.28829442199E+02  0.00000000000E+00 0. -1.
</event>
<event>
 5    1  0.9034917E-005  0.9118800E+02  0.7818608E-02  0.1130116E+00
         25   -1    0    0    0    0  0.00000000000E+00  0.00000000000E+00  0.99999998245E-14  0.12500000000E+03  0.12500000000E+03 0.  0.
        -13    1    3    3    0    0  0.25535370452E+02  0.11592085292E+02 -0.52612863857E+02  0.59620098899E+02  0.10566000000E+00 0.  1.
         23    2    1    0    0    0  0.74079042075E+01  0.17623636170E+02 -0.20634200675E+02  0.96871014343E+02  0.92697106674E+02 0.  0.
         13    1    3    3    0    0 -0.18127466244E+02  0.60315508783E+01  0.31978663182E+02  0.37250915443E+02  0.10566000000E+00 0. -1.
         22    1    1    0    0    0 -0.74079042075E+01 -0.17623636170E+02  0.20634200675E+02  0.28128985657E+02  0.00000000000E+00 0.  1.
</event>
<event>
 5    1  0.9034917E-005  0.9118800E+02  0.7818608E-02  0.1130116E+00
         25   -1    0    0    0    0  0.00000000000E+00  0.00000000000E+00  0.99999998245E-14  0.12500000000E+03  0.12500000000E+03 0.  0.
        -13    1    3    3    0    0 -0.77312615800E+01 -0.59224433817E+01  0.41236786326E+02  0.42371351781E+02  0.10566000000E+00 0.  1.
         23    2    1    0    0    0  0.28550904062E+02 -0.40554099037E+00  0.15818384372E+01  0.96402433686E+02  0.92063067630E+02 0.  0.
         13    1    3    3    0    0  0.36282165642E+02  0.55169023914E+01 -0.39654947889E+02  0.54031081905E+02  0.10566000000E+00 0. -1.
         22    1    1    0    0    0 -0.28550904062E+02  0.40554099037E+00 -0.15818384372E+01  0.28597566314E+02  0.00000000000E+00 0. -1.
</event>
<event>
 5    1  0.9034917E-005  0.9118800E+02  0.7818608E-02  0.1130116E+00
         25   -1    0    0    0    0  0.00000000000E+00  0.00000000000E+00  0.99999998245E-14  0.12500000000E+03  0.12500000000E+03 0.  0.
        -13    1    3    3    0    0 -0.22009958507E+01 -0.48596822255E+02  0.70705701183E+01  0.49157905182E+02  0.10566000000E+00 0. -1.
         23    2    1    0    0    0  0.15224321541E+02 -0.14899394478E+02 -0.20014346472E+02  0.95770802494E+02  0.91201428845E+02 0.  0.
         13    1    3    3    0    0  0.17425317391E+02  0.33697427778E+02 -0.27084916590E+02  0.46612897311E+02  0.10566000000E+00 0.  1.
         22    1    1    0    0    0 -0.15224321541E+02  0.14899394478E+02  0.20014346472E+02  0.29229197506E+02  0.00000000000E+00 0. -1.
</event>
<event>
 5    1  0.9034917E-005  0.9118800E+02  0.7818608E-02  0.1130116E+00
         25   -1    0    0    0    0  0.00000000000E+00  0.00000000000E+00  0.99999998245E-14  0.12500000000E+03  0.12500000000E+03 0.  0.
        -13    1    3    3    0    0  0.41933286471E+02 -0.21176119946E+02 -0.21719907034E+02  0.51755135937E+02  0.10566000000E+00 0.  1.
         23    2    1    0    0    0  0.11041448741E+02  0.12442268416E+02 -0.22007862251E+02  0.97412509456E+02  0.93424447357E+02 0.  0.
         13    1    3    3    0    0 -0.30891837730E+02  0.33618388362E+02 -0.28795521765E+00  0.45657373519E+02  0.10566000000E+00 0. -1.
         22    1    1    0    0    0 -0.11041448741E+02 -0.12442268416E+02  0.22007862251E+02  0.27587490544E+02  0.00000000000E+00 0.  1.
</event>
<event>
 5    1  0.9034917E-005  0.9118800E+02  0.7818608E-02  0.1130116E+00
         25   -1    0    0    0    0  0.00000000000E+00  0.00000000000E+00  0.99999998245E-14  0.12500000000E+03  0.12500000000E+03 0.  0.
        -13    1    3    3    0    0  0.26577867865E+02  0.41036138771E+02  0.29307092234E+02  0.57002320696E+02  0.10566000000E+00 0.  1.
         23    2    1    0    0    0 -0.34329783521E+01  0.18246396086E+02  0.23373190889E+02  0.95150002298E+02  0.90346558177E+02 0.  0.
         13    1    3    3    0    0 -0.30010846217E+02 -0.22789742685E+02 -0.59339013451E+01  0.38147681601E+02  0.10566000000E+00 0. -1.
         22    1    1    0    0    0  0.34329783521E+01 -0.18246396086E+02 -0.23373190889E+02  0.29849997702E+02  0.00000000000E+00 0.  1.
</event>
<event>
 5    1  0.9034917E-005  0.9118800E+02  0.7818608E-02  0.1130116E+00
         25   -1    0    0    0    0  0.00000000000E+00  0.00000000000E+00  0.99999998245E-14  0.12500000000E+03  0.12500000000E+03 0.  0.
        -13    1    3    3    0    0  0.49963286629E+02  0.22456441557E+02  0.29639144608E+02  0.62282516289E+02  0.10566000000E+00 0. -1.
         23    2    1    0    0    0  0.25590159490E+02  0.13255976242E+02  0.19318847482E+02  0.90304250449E+02  0.83373032884E+02 0.  0.
         13    1    3    3    0    0 -0.24373127139E+02 -0.92004653147E+01 -0.10320297126E+02  0.28021734160E+02  0.10566000000E+00 0.  1.
         22    1    1    0    0    0 -0.25590159490E+02 -0.13255976242E+02 -0.19318847482E+02  0.34695749551E+02  0.00000000000E+00 0. -1.
</event>
<event>
 5    1  0.9034917E-005  0.9118800E+02  0.7818608E-02  0.1130116E+00
         25   -1    0    0    0    0  0.00000000000E+00  0.00000000000E+00  0.99999998245E-14  0.12500000000E+03  0.12500000000E+03 0.  0.
        -13    1    3    3    0    0 -0.24338951224E+02  0.17442817088E+02 -0.29011758974E+02  0.41693281682E+02  0.10566000000E+00 0.  1.
         23    2    1    0    0    0  0.25805857021E+02  0.50169568556E+01 -0.12169495940E+02  0.96030900185E+02  0.91557222797E+02 0.  0.
         13    1    3    3    0    0  0.50144808245E+02 -0.12425860232E+02  0.16842263034E+02  0.54337618503E+02  0.10566000000E+00 0. -1.
         22    1    1    0    0    0 -0.25805857021E+02 -0.50169568556E+01  0.12169495940E+02  0.28969099815E+02  0.00000000000E+00 0. -1.
</event>
<event>
 5    1  0.9034917E-005  0.9118800E+02  0.7818608E-02  0.1130116E+00
         25   -1    0    0    0    0  0.00000000000E+00  0.00000000000E+00  0.99999998245E-14  0.12500000000E+03  0.12500000000E+03 0.  0.
        -13    1    3    3    0    0 -0.12760739193E+02  0.91503460967E+01  0.47361361008E+02  0.49896642964E+02  0.10566000000E+00 0.  1.
         23    2    1    0    0    0  0.20134818003E+02 -0.69487289417E+01  0.21532890237E+02  0.94712030575E+02  0.89738551602E+02 0.  0.
         13    1    3    3    0    0  0.32895557197E+02 -0.16099075038E+02 -0.25828470771E+02  0.44815387611E+02  0.10566000000E+00 0. -1.
         22    1    1    0    0    0 -0.20134818003E+02  0.69487289417E+01 -0.21532890237E+02  0.30287969425E+02  0.00000000000E+00 0. -1.
</event>
<event>
 5    1  0.9034917E-005  0.9118800E+02  0.7818608E-02  0.1130116E+00
         25   -1    0    0    0    0  0.00000000000E+00  0.00000000000E+00  0.99999998245E-14  0.12500000000E+03  0.12500000000E+03 0.  0.
        -13    1    3    3    0    0  0.13840167803E+02  0.23665041302E+02 -0.19899927059E+02  0.33876285003E+02  0.10566000000E+00 0.  1.
         23    2    1    0    0    0 -0.47247599162E+01 -0.29666467104E+02  0.29934473453E+01  0.94810873585E+02  0.89876128067E+02 0.  0.
         13    1    3    3    0    0 -0.18564927719E+02 -0.53331508405E+02  0.22893374404E+02  0.60934588582E+02  0.10566000000E+00 0. -1.
         22    1    1    0    0    0  0.47247599162E+01  0.29666467104E+02 -0.29934473453E+01  0.30189126415E+02  0.00000000000E+00 0. -1.
</event>
<event>
 5    1  0.9034917E-005  0.9118800E+02  0.7818608E-02  0.1130116E+00
         25   -1    0    0    0    0  0.00000000000E+00  0.00000000000E+00  0.99999998245E-14  0.12500000000E+03  0.12500000000E+03 0.  0.
        -13    1    3    3    0    0  0.44833995161E+01  0.33889268456E+02  0.19693946695E+02  0.39451819833E+02  0.10566000000E+00 0. -1.
         23    2    1    0    0    0  0.25591700412E+02 -0.14871681540E+02  0.25123048408E+01  0.95294550712E+02  0.90546328904E+02 0.  0.
         13    1    3    3    0    0  0.21108300896E+02 -0.48760949996E+02 -0.17181641854E+02  0.55842730879E+02  0.10566000000E+00 0.  1.
         22    1    1    0    0    0 -0.25591700412E+02  0.14871681540E+02 -0.25123048408E+01  0.29705449288E+02  0.00000000000E+00 0.  1.
</event>
<event>
 5    1  0.9034917E-005  0.9118800E+02  0.7818608E-02  0.1130116E+00
         25   -1    0    0    0    0  0.00000000000E+00  0.00000000000E+00  0.99999998245E-14  0.12500000000E+03  0.12500000000E+03 0.  0.
        -13    1    3    3    0    0  0.31281076627E+02  0.41990518606E+02 -0.16626475229E+02  0.54937785269E+02  0.10566000000E+00 0. -1.
         23    2    1    0    0    0  0.33260675340E+02  0.91768349854E+01 -0.13462410750E+02  0.87963216559E+02  0.79785989621E+02 0.  0.
         13    1    3    3    0    0  0.19795987135E+01 -0.32813683621E+02  0.31640644785E+01  0.33025431290E+02  0.10566000000E+00 0.  1.
         22    1    1    0    0    0 -0.33260675340E+02 -0.91768349854E+01  0.13462410750E+02  0.37036783441E+02  0.00000000000E+00 0.  1.
</event>
<event>
 5    1  0.9034917E-005  0.9118800E+02  0.7818608E-02  0.1130116E+00
         25   -1    0    0    0    0  0.00000000000E+00  0.00000000000E+00  0.99999998245E-14  0.12500000000E+03  0.12500000000E+03 0.  0.
        -13    1    3    3    0    0 -0.38328627375E+02 -0.16405733284E+02 -0.19724098845E+02  0.46122478254E+02  0.10566000000E+00 0.  1.
         23    2    1    0    0    0  0.41958248323E+01  0.82917342055E+01 -0.27556664597E+02  0.95918604472E+02  0.91403780654E+02 0.  0.
         13    1    3    3    0    0  0.42524452208E+02  0.24697467489E+02 -0.78325657526E+01  0.49796126217E+02  0.10566000000E+00 0. -1.
         22    1    1    0    0    0 -0.41958248323E+01 -0.82917342055E+01  0.27556664597E+02  0.29081395528E+02  0.00000000000E+00 0. -1.
</event>
<event>
 5    1  0.9034917E-005  0.9118800E+02  0.7818608E-02  0.1130116E+00
         25   -1    0    0    0    0  0.00000000000E+00  0.00000000000E+00  0.99999998245E-14  0.12500000000E+03  0.12500000000E+03 0.  0.
        -13    1    3    3    0    0 -0.25073382728E+02 -0.14205320963E+02  0.31017925044E+02  0.42338971447E+02  0.10566000000E+00 0.  1.
         23    2    1    0    0    0 -0.28228672607E+02  0.19923801629E+02 -0.26026141995E+01  0.90350477216E+02  0.83442311233E+02 0.  0.
         13    1    3    3    0    0 -0.31552898781E+01  0.34129122593E+02 -0.33620539243E+02  0.48011505769E+02  0.10566000000E+00 0. -1.
         22    1    1    0    0    0  0.28228672607E+02 -0.19923801629E+02  0.26026141995E+01  0.34649522784E+02  0.00000000000E+00 0.  1.
</event>
<event>
 5    1  0.9034917E-005  0.9118800E+02  0.7818608E-02  0.1130116E+00
         25   -1    0    0    0    0  0.00000000000E+00  0.00000000000E+00  0.99999998245E-14  0.12500000000E+03  0.12500000000E+03 0.  0.
        -13    1    3    3    0    0 -0.20096254922E+02 -0.36174654065E+02 -0.37069303504E+02  0.55557263116E+02  0.10566000000E+00 0. -1.
         23    2    1    0    0    0  0.90489868860E+01 -0.12029661157E+02 -0.25942485594E+02  0.95006509540E+02  0.90147808542E+02 0.  0.
         13    1    3    3    0    0  0.29145241808E+02  0.24144992907E+02  0.11126817910E+02  0.39449246424E+02  0.10566000000E+00 0.  1.
         22    1    1    0    0    0 -0.90489868860E+01  0.12029661157E+02  0.25942485594E+02  0.29993490460E+02  0.00000000000E+00 0. -1.
</event>
<event>
 5    1  0.9034917E-005  0.9118800E+02  0.7818608E-02  0.1130116E+00
         25   -1    0    0    0    0  0.00000000000E+00  0.00000000000E+00  0.99999998245E-14  0.12500000000E+03  0.12500000000E+03 0.  0.
        -13    1    3    3    0    0  0.15891603914E+02 -0.46502251557E+02 -0.22437616212E+02  0.54022775384E+02  0.10566000000E+00 0.  1.
         23    2    1    0    0    0 -0.95356214733E+01 -0.14207474365E+02 -0.24428954702E+02  0.95174604234E+02  0.90380590055E+02 0.  0.
         13    1    3    3    0    0 -0.25427225387E+02  0.32294777192E+02 -0.19913384903E+01  0.41151828851E+02  0.10566000000E+00 0. -1.
         22    1    1    0    0    0  0.95356214733E+01  0.14207474365E+02  0.24428954702E+02  0.29825395766E+02  0.00000000000E+00 0.  1.
</event>
<event>
 5    1  0.9034917E-005  0.9118800E+02  0.7818608E-02  0.1130116E+00
         25   -1    0    0    0    0  0.00000000000E+00  0.00000000000E+00  0.99999998245E-14  0.12500000000E+03  0.12500000000E+03 0.  0.
        -13    1    3    3    0    0  0.21588242463E+02 -0.21745579402E+02  0.17064698910E+02  0.35073316768E+02  0.10566000000E+00 0. -1.
         23    2    1    0    0    0 -0.28199731403E+02  0.77000390824E+01 -0.12323921576E+01  0.95741937119E+02  0.91161857593E+02 0.  0.
         13    1    3    3    0    0 -0.49787973867E+02  0.29445618485E+02 -0.18297091068E+02  0.60668620351E+02  0.10566000000E+00 0.  1.
         22    1    1    0    0    0  0.28199731403E+02 -0.77000390824E+01  0.12323921576E+01  0.29258062881E+02  0.00000000000E+00 0.  1.
</event>
<event>
 5    1  0.9034917E-005  0.9118800E+02  0.7818608E-02  0.1130116E+00
         25   -1    0    0    0    0  0.00000000000E+00  0.00000000000E+00  0.99999998245E-14  0.12500000000E+03  0.12500000000E+03 0.  0.
        -13    1    3    3    0    0  0.21602566478E+02 -0.13450819789E+02 -0.28401225346E+02  0.38134448949E+02  0.10566000000E+00 0.  1.
         23    2    1    0    0    0  0.14869575444E+02  0.20941507541E+02  0.16030755054E+02  0.94724000932E+02  0.89755223988E+02 0.  0.
         13    1    3    3    0    0 -0.67329910338E+01  0.34392327330E+02  0.44431980399E+02  0.56589551983E+02  0.10566000000E+00 0. -1.
         22    1    1    0    0    0 -0.14869575444E+02 -0.20941507541E+02 -0.16030755054E+02  0.30275999068E+02  0.00000000000E+00 0. -1.
</event>
<event>
 5    1  0.9034917E-005  0.9118800E+02  0.7818608E-02  0.1130116E+00
         25   -1    0    0    0    0  0.00000000000E+00  0.00000000000E+00  0.99999998245E-14  0.12500000000E+03  0.12500000000E+03 0.  0.
        -13    1    3    3    0    0  0.26987335025E+02 -0.45091905043E+02 -0.25808554001E+02  0.58546466809E+02  0.10566000000E+00 0.  1.
         23    2    1    0    0    0  0.13163507100E+02 -0.24598499795E+02  0.34932992830E+01  0.96882972220E+02  0.92713230204E+02 0.  0.
         13    1    3    3    0    0 -0.13823827926E+02  0.20493405248E+02  0.29301853284E+02  0.38336505410E+02  0.10566000000E+00 0. -1.
         22    1    1    0    0    0 -0.13163507100E+02  0.24598499795E+02 -0.34932992830E+01  0.28117027780E+02  0.00000000000E+00 0. -1.
</event>
<event>
 5    1  0.9034917E-005  0.9118800E+02  0.7818608E-02  0.1130116E+00
         25   -1    0    0    0    0  0.00000000000E+00  0.00000000000E+00  0.99999998245E-14  0.12500000000E+03  0.12500000000E+03 0.  0.
        -13    1    3    3    0    0 -0.54268104249E+02  0.28757250733E+02 -0.65945663905E+00  0.61420295144E+02  0.10566000000E+00 0. -1.
         23    2    1    0    0    0 -0.22893016024E+02  0.16913062203E+02 -0.73179113464E+01  0.95611334119E+02  0.90982600149E+02 0.  0.
         13    1    3    3    0    0  0.31375088225E+02 -0.11844188530E+02 -0.66584547073E+01  0.34191038975E+02  0.10566000000E+00 0.  1.
         22    1    1    0    0    0  0.22893016024E+02 -0.16913062203E+02  0.73179113464E+01  0.29388665881E+02  0.00000000000E+00 0. -1.
</event>
<event>
 5    1  0.9034917E-005  0.9118800E+02  0.7818608E-02  0.1130116E+00
         25   -1    0    0    0    0  0.00000000000E+00  0.00000000000E+00  0.99999998245E-14  0.12500000000E+03  0.12500000000E+03 0.  0.
        -13    1    3    3    0    0 -0.35907219806E+02 -0.68251096012E+01  0.20204102461E+02  0.41762752251E+02  0.10566000000E+00 0.  1.
         23    2    1    0    0    0  0.11086689701E+02  0.17969773254E+02  0.21436335488E+02  0.94911066512E+02  0.90015368843E+02 0.  0.
         13    1    3    3    0    0  0.46993909507E+02  0.24794882855E+02  0.12322330275E+01  0.53148314261E+02  0.10566000000E+00 0. -1.
         22    1    1    0    0    0 -0.11086689701E+02 -0.17969773254E+02 -0.21436335488E+02  0.30088933488E+02  0.00000000000E+00 0. -1.
</event>
<event>
 5    1  0.9034917E-005  0.9118800E+02  0.7818608E-02  0.1130116E+00
         25   -1    0    0    0    0  0.00000000000E+00  0.00000000000E+00  0.99999998245E-14  0.12500000000E+03  0.12500000000E+03 0.  0.
        -13    1    3    3    0    0 -0.53395434740E+02 -0.68860430920E+01 -0.21937888971E+02  0.58135808046E+02  0.10566000000E+00 0. -1.
         23    2    1    0    0    0 -0.16202352039E+02 -0.13725582083E+02 -0.19725260691E+02  0.96017354772E+02  0.91538727831E+02 0.  0.
         13    1    3    3    0    0  0.37193082701E+02 -0.68395389908E+01  0.22126282805E+01  0.37881546726E+02  0.10566000000E+00 0.  1.
         22    1    1    0    0    0  0.16202352039E+02  0.13725582083E+02  0.19725260691E+02  0.28982645228E+02  0.00000000000E+00 0. -1.
</event>
<event>
 5    1  0.9034917E-005  0.9118800E+02  0.7818608E-02  0.1130116E+00
         25   -1    0    0    0    0  0.00000000000E+00  0.00000000000E+00  0.99999998245E-14  0.12500000000E+03  0.12500000000E+03 0.  0.
        -13    1    3    3    0    0  0.24749374136E+02  0.68616811815E+01  0.42340616583E+02  0.49521239539E+02  0.10566000000E+00 0.  1.
         23    2    1    0    0    0 -0.62432278551E+01  0.25423957060E+02  0.14992356811E+02  0.94831701251E+02  0.89905090584E+02 0.  0.
         13    1    3    3    0    0 -0.30992601991E+02  0.18562275879E+02 -0.27348259772E+02  0.45310461713E+02  0.10566000000E+00 0. -1.
         22    1    1    0    0    0  0.62432278551E+01 -0.25423957060E+02 -0.14992356811E+02  0.30168298749E+02  0.00000000000E+00 0. -1.
</event>
<event>
 5    1  0.9034917E-005  0.9118800E+02  0.7818608E-02  0.1130116E+00
         25   -1    0    0    0    0  0.00000000000E+00  0.00000000000E+00  0.99999998245E-14  0.12500000000E+03  0.12500000000E+03 0.  0.
        -13    1    3    3    0    0 -0.29768601236E+02  0.30933718320E+02 -0.26617773969E+02  0.50513182474E+02  0.10566000000E+00 0.  1.
         23    2    1    0    0    0  0.81583402445E+01  0.27094454593E+02 -0.54289258456E+00  0.96698715266E+02  0.92464473267E+02 0.  0.
         13    1    3    3    0    0  0.37926941480E+02 -0.38392637267E+01  0.26074881384E+02  0.46185532791E+02  0.10566000000E+00 0. -1.
         22    1    1    0    0    0 -0.81583402445E+01 -0.27094454593E+02  0.54289258456E+00  0.28301284734E+02  0.00000000000E+00 0.  1.
</event>
<event>
 5    1  0.9034917E-005  0.9118800E+02  0.7818608E-02  0.1130116E+00
         25   -1    0    0    0    0  0.00000000000E+00  0.00000000000E+00  0.99999998245E-14  0.12500000000E+03  0.12500000000E+03 0.  0.
        -13    1    3    3    0    0 -0.26282484943E+02  0.16796742851E+02  0.13035583364E+02  0.33805874975E+02  0.10566000000E+00 0. -1.
         23    2    1    0    0    0  0.33624736131E+01 -0.32514509086E+02  0.35324102949E+01  0.92121778448E+02  0.86054893016E+02 0.  0.
         13    1    3    3    0    0  0.29644958556E+02 -0.49311251937E+02 -0.95031730688E+01  0.58315903473E+02  0.10566000000E+00 0.  1.
         22    1    1    0    0    0 -0.33624736131E+01  0.32514509086E+02 -0.35324102949E+01  0.32878221552E+02  0.00000000000E+00 0.  1.
</event>
<event>
 5    1  0.9034917E-005  0.9118800E+02  0.7818608E-02  0.1130116E+00
         25   -1    0    0    0    0  0.00000000000E+00  0.00000000000E+00  0.99999998245E-14  0.12500000000E+03  0.12500000000E+03 0.  0.
        -13    1    3    3    0    0 -0.37073883416E+02 -0.12532122228E+02 -0.41236522747E+02  0.56850583914E+02  0.10566000000E+00 0.  1.
         23    2    1    0    0    0 -0.87620927022E+01  0.10856586252E+02 -0.23589077962E+02  0.97594082160E+02  0.93667072869E+02 0.  0.
         13    1    3    3    0    0  0.28311790714E+02  0.23388708480E+02  0.17647444785E+02  0.40743498245E+02  0.10566000000E+00 0. -1.
         22    1    1    0    0    0  0.87620927022E+01 -0.10856586252E+02  0.23589077962E+02  0.27405917840E+02  0.00000000000E+00 0.  1.
</event>
<event>
 5    1  0.9034917E-005  0.9118800E+02  0.7818608E-02  0.1130116E+00
         25   -1    0    0    0    0  0.00000000000E+00  0.00000000000E+00  0.99999998245E-14  0.12500000000E+03  0.12500000000E+03 0.  0.
        -13    1    3    3    0    0 -0.22674697291E+02 -0.57559799111E+02 -0.60634237912E+01  0.62161472337E+02  0.10566000000E+00 0.  1.
         23    2    1    0    0    0 -0.61466650258E+01 -0.26918169206E+02 -0.46082734679E+01  0.97007045374E+02  0.92880360375E+02 0.  0.
         13    1    3    3    0    0  0.16528032265E+02  0.30641629905E+02  0.14551503233E+01  0.34845573037E+02  0.10566000000E+00 0. -1.
         22    1    1    0    0    0  0.61466650258E+01  0.26918169206E+02  0.46082734679E+01  0.27992954626E+02  0.00000000000E+00 0.  1.
</event>
<event>
 5    1  0.9034917E-005  0.9118800E+02  0.7818608E-02  0.1130116E+00
         25   -1    0    0    0    0  0.00000000000E+00  0.00000000000E+00  0.99999998245E-14  0.12500000000E+03  0.12500000000E+03 0.  0.
        -13    1    3    3    0    0 -0.11697230763E+01  0.29877455967E+02 -0.53299422291E+02  0.61113584477E+02  0.10566000000E+00 0.  1.
         23    2    1    0    0    0 -0.54441802183E+00  0.20422347551E+02 -0.17646801951E+02  0.98004106061E+02  0.94212666427E+02 0.  0.
         13    1    3    3    0    0  0.62530505444E+00 -0.94551084158E+01  0.35652620340E+02  0.36890521584E+02  0.10566000000E+00 0. -1.
         22    1    1    0    0    0  0.54441802183E+00 -0.20422347551E+02  0.17646801951E+02  0.26995893939E+02  0.00000000000E+00 0.  1.
</event>
<event>
 5    1  0.9034917E-005  0.9118800E+02  0.7818608E-02  0.1130116E+00
         25   -1    0    0    0    0  0.00000000000E+00  0.00000000000E+00  0.99999998245E-14  0.12500000000E+03  0.12500000000E+03 0.  0.
        -13    1    3    3    0    0 -0.13188183771E+02  0.28813465164E+02  0.44088045671E+02  0.54294667336E+02  0.10566000000E+00 0.  1.
         23    2    1    0    0    0 -0.26163143020E+02  0.85709715039E+01  0.10648383121E+02  0.95481198054E+02  0.90803631610E+02 0.  0.
         13    1    3    3    0    0 -0.12974959249E+02 -0.20242493661E+02 -0.33439662550E+02  0.41186530718E+02  0.10566000000E+00 0. -1.
         22    1    1    0    0    0  0.26163143020E+02 -0.85709715039E+01 -0.10648383121E+02  0.29518801946E+02  0.00000000000E+00 0.  1.
</event>
<event>
 5    1  0.9034917E-005  0.9118800E+02  0.7818608E-02  0.1130116E+00
         25   -1    0    0    0    0  0.00000000000E+00  0.00000000000E+00  0.99999998245E-14  0.12500000000E+03  0.12500000000E+03 0.  0.
        -13    1    3    3    0    0 -0.30063077663E+02  0.69324909899E+00  0.18316795811E+02  0.35210586558E+02  0.10566000000E+00 0.  1.
         23    2    1    0    0    0 -0.27587200765E+02 -0.39023715395E+02  0.61957571341E+01  0.76809841090E+02  0.59811874010E+02 0.  0.
         13    1    3    3    0    0  0.24758768983E+01 -0.39716964494E+02 -0.12121038677E+02  0.41599254533E+02  0.10566000000E+00 0. -1.
         22    1    1    0    0    0  0.27587200765E+02  0.39023715395E+02 -0.61957571341E+01  0.48190158910E+02  0.00000000000E+00 0.  1.
</event>
<event>
 5    1  0.9034917E-005  0.9118800E+02  0.7818608E-02  0.1130116E+00
         25   -1    0    0    0    0  0.00000000000E+00  0.00000000000E+00  0.99999998245E-14  0.12500000000E+03  0.12500000000E+03 0.  0.
        -13    1    3    3    0    0  0.12043073644E+02 -0.29506586798E+02  0.46946260544E+02  0.56741843735E+02  0.10566000000E+00 0. -1.
         23    2    1    0    0    0 -0.68384306776E+01 -0.29376013273E+01  0.31169433081E+02  0.92954295229E+02  0.87255795265E+02 0.  0.
         13    1    3    3    0    0 -0.18881504321E+02  0.26568985471E+02 -0.15776827464E+02  0.36212451495E+02  0.10566000000E+00 0.  1.
         22    1    1    0    0    0  0.68384306776E+01  0.29376013273E+01 -0.31169433081E+02  0.32045704771E+02  0.00000000000E+00 0. -1.
</event>
<event>
 5    1  0.9034917E-005  0.9118800E+02  0.7818608E-02  0.1130116E+00
         25   -1    0    0    0    0  0.00000000000E+00  0.00000000000E+00  0.99999998245E-14  0.12500000000E+03  0.12500000000E+03 0.  0.
        -13    1    3    3    0    0  0.40041006202E+02 -0.19894650841E+00 -0.27069605347E+02  0.48333181718E+02  0.10566000000E+00 0.  1.
         23    2    1    0    0    0  0.21210784630E+02  0.29619813843E+02 -0.12628726300E+02  0.86442050306E+02  0.77366094488E+02 0.  0.
         13    1    3    3    0    0 -0.18830221572E+02  0.29818760351E+02  0.14440879046E+02  0.38108868587E+02  0.10566000000E+00 0. -1.
         22    1    1    0    0    0 -0.21210784630E+02 -0.29619813843E+02  0.12628726300E+02  0.38557949694E+02  0.00000000000E+00 0.  1.
</event>
<event>
 5    1  0.9034917E-005  0.9118800E+02  0.7818608E-02  0.1130116E+00
         25   -1    0    0    0    0  0.00000000000E+00  0.00000000000E+00  0.99999998245E-14  0.12500000000E+03  0.12500000000E+03 0.  0.
        -13    1    3    3    0    0 -0.34631209589E+02 -0.23131617350E+01  0.53450253347E+01  0.35117685782E+02  0.10566000000E+00 0. -1.
         23    2    1    0    0    0  0.23705437681E+02  0.14462327821E+02 -0.52584266479E+01  0.96737697325E+02  0.92517156956E+02 0.  0.
         13    1    3    3    0    0  0.58336647270E+02  0.16775489556E+02 -0.10603451983E+02  0.61620011543E+02  0.10566000000E+00 0.  1.
         22    1    1    0    0    0 -0.23705437681E+02 -0.14462327821E+02  0.52584266479E+01  0.28262302675E+02  0.00000000000E+00 0.  1.
</event>
<event>
 5    1  0.9034917E-005  0.9118800E+02  0.7818608E-02  0.1130116E+00
         25   -1    0    0    0    0  0.00000000000E+00  0.00000000000E+00  0.99999998245E-14  0.12500000000E+03  0.12500000000E+03 0.  0.
        -13    1    3    3    0    0  0.35084259214E+02  0.87557268339E+00  0.29869786630E+02  0.46085650581E+02  0.10566000000E+00 0.  1.
         23    2    1    0    0    0  0.21804402832E+02 -0.67257794174E+01 -0.17741981533E+02  0.96095917237E+02  0.91645945405E+02 0.  0.
         13    1    3    3    0    0 -0.13279856382E+02 -0.76013521008E+01 -0.47611768164E+02  0.50010266656E+02  0.10566000000E+00 0. -1.
         22    1    1    0    0    0 -0.21804402832E+02  0.67257794174E+01  0.17741981533E+02  0.28904082763E+02  0.00000000000E+00 0. -1.
</event>
<event>
 5    1  0.9034917E-005  0.9118800E+02  0.7818608E-02  0.1130116E+00
         25   -1    0    0    0    0  0.00000000000E+00  0.00000000000E+00  0.99999998245E-14  0.12500000000E+03  0.12500000000E+03 0.  0.
        -13    1    3    3    0    0 -0.35102418327E+02  0.28667297399E+02  0.21193219349E+01  0.45370655738E+02  0.10566000000E+00 0. -1.
         23    2    1    0    0    0  0.10250130752E+02  0.19351056765E+02  0.20326857488E+02  0.95121751831E+02  0.90307463466E+02 0.  0.
         13    1    3    3    0    0  0.45352549079E+02 -0.93162406347E+01  0.18207535553E+02  0.49751096093E+02  0.10566000000E+00 0.  1.
         22    1    1    0    0    0 -0.10250130752E+02 -0.19351056765E+02 -0.20326857488E+02  0.29878248169E+02  0.00000000000E+00 0. -1.
</event>
<event>
 5    1  0.9034917E-005  0.9118800E+02  0.7818608E-02  0.1130116E+00
         25   -1    0    0    0    0  0.00000000000E+00  0.00000000000E+00  0.99999998245E-14  0.12500000000E+03  0.12500000000E+03 0.  0.
        -13    1    3    3    0    0 -0.15311973887E+02 -0.19443523845E+01 -0.31064655732E+02  0.34688053423E+02  0.10566000000E+00 0. -1.
         23    2    1    0    0    0 -0.39319560195E+01  0.30039680900E+01  0.28775869316E+02  0.95801802156E+02  0.91243906860E+02 0.  0.
         13    1    3    3    0    0  0.11380017868E+02  0.49483204745E+01  0.59840525048E+02  0.61113748733E+02  0.10566000000E+00 0.  1.
         22    1    1    0    0    0  0.39319560195E+01 -0.30039680900E+01 -0.28775869316E+02  0.29198197844E+02  0.00000000000E+00 0.  1.
</event>
<event>
 5    1  0.9034917E-005  0.9118800E+02  0.7818608E-02  0.1130116E+00
         25   -1    0    0    0    0  0.00000000000E+00  0.00000000000E+00  0.99999998245E-14  0.12500000000E+03  0.12500000000E+03 0.  0.
        -13    1    3    3    0    0 -0.17057102779E+02  0.20369754053E+02 -0.42875265910E+02  0.50439778214E+02  0.10566000000E+00 0. -1.
         23    2    1    0    0    0  0.16022620525E+02  0.20983496581E+02 -0.10946050606E+02  0.96419455549E+02  0.92086176418E+02 0.  0.
         13    1    3    3    0    0  0.33079723305E+02  0.61374252786E+00  0.31929215304E+02  0.45979677334E+02  0.10566000000E+00 0.  1.
         22    1    1    0    0    0 -0.16022620525E+02 -0.20983496581E+02  0.10946050606E+02  0.28580544451E+02  0.00000000000E+00 0.  1.
</event>
<event>
 5    1  0.9034917E-005  0.9118800E+02  0.7818608E-02  0.1130116E+00
         25   -1    0    0    0    0  0.00000000000E+00  0.00000000000E+00  0.99999998245E-14  0.12500000000E+03  0.12500000000E+03 0.  0.
        -13    1    3    3    0    0 -0.34347716286E+02 -0.21675145573E+02 -0.35710928882E+02  0.54081967007E+02  0.10566000000E+00 0.  1.
         23    2    1    0    0    0 -0.76302986969E+01 -0.27687629651E+02 -0.39651894245E+01  0.96007776542E+02  0.91525647419E+02 0.  0.
         13    1    3    3    0    0  0.26717417589E+02 -0.60124840773E+01  0.31745739458E+02  0.41925809535E+02  0.10566000000E+00 0. -1.
         22    1    1    0    0    0  0.76302986969E+01  0.27687629651E+02  0.39651894245E+01  0.28992223458E+02  0.00000000000E+00 0.  1.
</event>
<event>
 5    1  0.9034917E-005  0.9118800E+02  0.7818608E-02  0.1130116E+00
         25   -1    0    0    0    0  0.00000000000E+00  0.00000000000E+00  0.99999998245E-14  0.12500000000E+03  0.12500000000E+03 0.  0.
        -13    1    3    3    0    0 -0.36885233161E+02 -0.24612926967E+02  0.30201590938E+02  0.53651317397E+02  0.10566000000E+00 0.  1.
         23    2    1    0    0    0 -0.31041573621E+01 -0.23383822782E+01  0.30636922800E+02  0.94117563839E+02  0.88906641820E+02 0.  0.
         13    1    3    3    0    0  0.33781075798E+02  0.22274544689E+02  0.43533186193E+00  0.40466246442E+02  0.10566000000E+00 0. -1.
         22    1    1    0    0    0  0.31041573621E+01  0.23383822782E+01 -0.30636922800E+02  0.30882436161E+02  0.00000000000E+00 0.  1.
</event>
<event>
 5    1  0.9034917E-005  0.9118800E+02  0.7818608E-02  0.1130116E+00
         25   -1    0    0    0    0  0.00000000000E+00  0.00000000000E+00  0.99999998245E-14  0.12500000000E+03  0.12500000000E+03 0.  0.
        -13    1    3    3    0    0  0.53613774880E+01 -0.37099606513E+02  0.14901382269E+02  0.40338412581E+02  0.10566000000E+00 0.  1.
         23    2    1    0    0    0  0.18912520353E+02  0.76691199411E+01 -0.18211419877E+02  0.97647584371E+02  0.93738445117E+02 0.  0.
         13    1    3    3    0    0  0.13551142865E+02  0.44768726454E+02 -0.33112802146E+02  0.57309171790E+02  0.10566000000E+00 0. -1.
         22    1    1    0    0    0 -0.18912520353E+02 -0.76691199411E+01  0.18211419877E+02  0.27352415629E+02  0.00000000000E+00 0. -1.
</event>
<event>
 5    1  0.9034917E-005  0.9118800E+02  0.7818608E-02  0.1130116E+00
         25   -1    0    0    0    0  0.00000000000E+00  0.00000000000E+00  0.99999998245E-14  0.12500000000E+03  0.12500000000E+03 0.  0.
        -13    1    3    3    0    0 -0.33756217815E+02 -0.17991471177E+02  0.67765368948E+01  0.38847237902E+02  0.10566000000E+00 0.  1.
         23    2    1    0    0    0  0.13392790375E+01  0.20192162705E+02  0.24103934438E+02  0.93527523796E+02  0.88073156801E+02 0.  0.
         13    1    3    3    0    0  0.35095496853E+02  0.38183633882E+02  0.17327397544E+02  0.54680285894E+02  0.10566000000E+00 0. -1.
         22    1    1    0    0    0 -0.13392790375E+01 -0.20192162705E+02 -0.24103934438E+02  0.31472476204E+02  0.00000000000E+00 0. -1.
</event>
<event>
 5    1  0.9034917E-005  0.9118800E+02  0.7818608E-02  0.1130116E+00
         25   -1    0    0    0    0  0.00000000000E+00  0.00000000000E+00  0.99999998245E-14  0.12500000000E+03  0.12500000000E+03 0.  0.
        -13    1    3    3    0    0 -0.27505650765E+02 -0.23497785405E+02 -0.11168234543E+02  0.37860894994E+02  0.10566000000E+00 0. -1.
         23    2    1    0    0    0  0.95837678816E+01  0.20885633895E+02 -0.17595833510E+02  0.96057441943E+02  0.91593452199E+02 0.  0.
         13    1    3    3    0    0  0.37089418646E+02  0.44383419299E+02 -0.64275989670E+01  0.58196546948E+02  0.10566000000E+00 0.  1.
         22    1    1    0    0    0 -0.95837678816E+01 -0.20885633895E+02  0.17595833510E+02  0.28942558057E+02  0.00000000000E+00 0.  1.
</event>
<event>
 5    1  0.9034917E-005  0.9118800E+02  0.7818608E-02  0.1130116E+00
         25   -1    0    0    0    0  0.00000000000E+00  0.00000000000E+00  0.99999998245E-14  0.12500000000E+03  0.12500000000E+03 0.  0.
        -13    1    3    3    0    0 -0.15955859024E+02  0.96197793460E+01  0.41905391851E+02  0.45860687109E+02  0.10566000000E+00 0.  1.
         23    2    1    0    0    0  0.69989341950E+01 -0.24566672935E+02  0.11848894647E+02  0.96841470150E+02  0.92657258418E+02 0.  0.
         13    1    3    3    0    0  0.22954793219E+02 -0.34186452281E+02 -0.30056497204E+02  0.50980783041E+02  0.10566000000E+00 0. -1.
         22    1    1    0    0    0 -0.69989341950E+01  0.24566672935E+02 -0.11848894647E+02  0.28158529850E+02  0.00000000000E+00 0. -1.
</event>
<event>
 5    1  0.9034917E-005  0.9118800E+02  0.7818608E-02  0.1130116E+00
         25   -1    0    0    0    0  0.00000000000E+00  0.00000000000E+00  0.99999998245E-14  0.12500000000E+03  0.12500000000E+03 0.  0.
        -13    1    3    3    0    0  0.37936843169E+02 -0.17242268120E+02 -0.45535614268E+02  0.61725223453E+02  0.10566000000E+00 0.  1.
         23    2    1    0    0    0  0.25847384923E+02 -0.99337560601E+01 -0.20231193583E+02  0.90706152001E+02  0.83973436277E+02 0.  0.
         13    1    3    3    0    0 -0.12089458246E+02  0.73085120597E+01  0.25304420685E+02  0.28980928547E+02  0.10566000000E+00 0. -1.
         22    1    1    0    0    0 -0.25847384923E+02  0.99337560601E+01  0.20231193583E+02  0.34293847999E+02  0.00000000000E+00 0.  1.
</event>
<event>
 5    1  0.9034917E-005  0.9118800E+02  0.7818608E-02  0.1130116E+00
         25   -1    0    0    0    0  0.00000000000E+00  0.00000000000E+00  0.99999998245E-14  0.12500000000E+03  0.12500000000E+03 0.  0.
        -13    1    3    3    0    0 -0.45103216926E+02 -0.18279163864E+02 -0.15129262351E+02  0.50964043716E+02  0.10566000000E+00 0. -1.
         23    2    1    0    0    0 -0.16018288392E+02  0.15942689287E+02 -0.18202941014E+02  0.95981006802E+02  0.91489079678E+02 0.  0.
         13    1    3    3    0    0  0.29084928534E+02  0.34221853150E+02 -0.30736786629E+01  0.45016963085E+02  0.10566000000E+00 0.  1.
         22    1    1    0    0    0  0.16018288392E+02 -0.15942689287E+02  0.18202941014E+02  0.29018993198E+02  0.00000000000E+00 0. -1.
</event>
<event>
 5    1  0.9034917E-005  0.9118800E+02  0.7818608E-02  0.1130116E+00
         25   -1    0    0    0    0  0.00000000000E+00  0.00000000000E+00  0.99999998245E-14  0.12500000000E+03  0.12500000000E+03 0.  0.
        -13    1    3    3    0    0  0.36784324986E+02  0.33126254175E+02  0.63716079617E+01  0.49910357967E+02  0.10566000000E+00 0. -1.
         23    2    1    0    0    0  0.25563225273E+02 -0.11626374749E+02 -0.21735523637E+01  0.96833079578E+02  0.92645938359E+02 0.  0.
         13    1    3    3    0    0 -0.11221099712E+02 -0.44752628924E+02 -0.85451603254E+01  0.46922721611E+02  0.10566000000E+00 0.  1.
         22    1    1    0    0    0 -0.25563225273E+02  0.11626374749E+02  0.21735523637E+01  0.28166920422E+02  0.00000000000E+00 0. -1.
</event>
<event>
 5    1  0.9034917E-005  0.9118800E+02  0.7818608E-02  0.1130116E+00
         25   -1    0    0    0    0  0.00000000000E+00  0.00000000000E+00  0.99999998245E-14  0.12500000000E+03  0.12500000000E+03 0.  0.
        -13    1    3    3    0    0  0.18954512953E+02 -0.54887595725E+02 -0.12729575658E+02  0.59447245405E+02  0.10566000000E+00 0.  1.
         23    2    1    0    0    0 -0.18141569766E+01 -0.26450797715E+02 -0.14641751167E+02  0.94712762712E+02  0.89739571416E+02 0.  0.
         13    1    3    3    0    0 -0.20768669930E+02  0.28436798010E+02 -0.19121755085E+01  0.35265517307E+02  0.10566000000E+00 0. -1.
         22    1    1    0    0    0  0.18141569766E+01  0.26450797715E+02  0.14641751167E+02  0.30287237288E+02  0.00000000000E+00 0.  1.
</event>
<event>
 5    1  0.9034917E-005  0.9118800E+02  0.7818608E-02  0.1130116E+00
         25   -1    0    0    0    0  0.00000000000E+00  0.00000000000E+00  0.99999998245E-14  0.12500000000E+03  0.12500000000E+03 0.  0.
        -13    1    3    3    0    0  0.47135349936E+02  0.56524173062E+01  0.29246358742E+02  0.55758871032E+02  0.10566000000E+00 0. -1.
         23    2    1    0    0    0  0.23024048854E+02 -0.16793779444E+02  0.20657345255E+02  0.89802503404E+02  0.82617345945E+02 0.  0.
         13    1    3    3    0    0 -0.24111301082E+02 -0.22446196750E+02 -0.85890134871E+01  0.34043632373E+02  0.10566000000E+00 0.  1.
         22    1    1    0    0    0 -0.23024048854E+02  0.16793779444E+02 -0.20657345255E+02  0.35197496596E+02  0.00000000000E+00 0. -1.
</event>
<event>
 5    1  0.9034917E-005  0.9118800E+02  0.7818608E-02  0.1130116E+00
         25   -1    0    0    0    0  0.00000000000E+00  0.00000000000E+00  0.99999998245E-14  0.12500000000E+03  0.12500000000E+03 0.  0.
        -13    1    3    3    0    0 -0.32017026986E+02  0.19009047650E+02 -0.44869223884E+00  0.37237701304E+02  0.10566000000E+00 0. -1.
         23    2    1    0    0    0  0.16063950785E+02 -0.58587728203E+01 -0.23387235659E+02  0.96028660274E+02  0.91554164670E+02 0.  0.
         13    1    3    3    0    0  0.48080977771E+02 -0.24867820471E+02 -0.22938543420E+02  0.58790958970E+02  0.10566000000E+00 0.  1.
         22    1    1    0    0    0 -0.16063950785E+02  0.58587728203E+01  0.23387235659E+02  0.28971339726E+02  0.00000000000E+00 0.  1.
</event>
<event>
 5    1  0.9034917E-005  0.9118800E+02  0.7818608E-02  0.1130116E+00
         25   -1    0    0    0    0  0.00000000000E+00  0.00000000000E+00  0.99999998245E-14  0.12500000000E+03  0.12500000000E+03 0.  0.
        -13    1    3    3    0    0 -0.27844609922E+02  0.24557070485E+02 -0.32648871867E+02  0.49440186192E+02  0.10566000000E+00 0.  1.
         23    2    1    0    0    0 -0.11646187440E+02 -0.16610769501E+02 -0.22257660343E+02  0.94884309916E+02  0.89978205577E+02 0.  0.
         13    1    3    3    0    0  0.16198422482E+02 -0.41167839986E+02  0.10391211523E+02  0.45444123724E+02  0.10566000000E+00 0. -1.
         22    1    1    0    0    0  0.11646187440E+02  0.16610769501E+02  0.22257660343E+02  0.30115690084E+02  0.00000000000E+00 0.  1.
</event>
<event>
 5    1  0.9034917E-005  0.9118800E+02  0.7818608E-02  0.1130116E+00
         25   -1    0    0    0    0  0.00000000000E+00  0.00000000000E+00  0.99999998245E-14  0.12500000000E+03  0.12500000000E+03 0.  0.
        -13    1    3    3    0    0  0.29733100128E+02 -0.25447687244E+02 -0.34164759315E+02  0.51950784136E+02  0.10566000000E+00 0. -1.
         23    2    1    0    0    0  0.92682371098E+01 -0.27490942450E+02  0.43999473019E+01  0.95656999605E+02  0.91045317844E+02 0.  0.
         13    1    3    3    0    0 -0.20464863018E+02 -0.20432552064E+01  0.38564706617E+02  0.43706215469E+02  0.10566000000E+00 0.  1.
         22    1    1    0    0    0 -0.92682371098E+01  0.27490942450E+02 -0.43999473019E+01  0.29343000395E+02  0.00000000000E+00 0.  1.
</event>
<event>
 5    1  0.9034917E-005  0.9118800E+02  0.7818608E-02  0.1130116E+00
         25   -1    0    0    0    0  0.00000000000E+00  0.00000000000E+00  0.99999998245E-14  0.12500000000E+03  0.12500000000E+03 0.  0.
        -13    1    3    3    0    0  0.28136017887E+02  0.20158579098E+02 -0.18484322940E+02  0.39238822260E+02  0.10566000000E+00 0. -1.
         23    2    1    0    0    0  0.75646402265E+01 -0.28467695483E+02  0.10247111648E+01  0.95526562792E+02  0.90866059110E+02 0.  0.
         13    1    3    3    0    0 -0.20571377661E+02 -0.48626274581E+02  0.19509034105E+02  0.56287740532E+02  0.10566000000E+00 0.  1.
         22    1    1    0    0    0 -0.75646402265E+01  0.28467695483E+02 -0.10247111648E+01  0.29473437208E+02  0.00000000000E+00 0.  1.
</event>
<event>
 5    1  0.9034917E-005  0.9118800E+02  0.7818608E-02  0.1130116E+00
         25   -1    0    0    0    0  0.00000000000E+00  0.00000000000E+00  0.99999998245E-14  0.12500000000E+03  0.12500000000E+03 0.  0.
        -13    1    3    3    0    0  0.51264668088E+02 -0.98716756101E+01  0.47331431833E+01  0.52420701846E+02  0.10566000000E+00 0.  1.
         23    2    1    0    0    0  0.17064533325E+02  0.40357539829E+01  0.24942958301E+02  0.94510054500E+02  0.89456769587E+02 0.  0.
         13    1    3    3    0    0 -0.34200134764E+02  0.13907429593E+02  0.20209815117E+02  0.42089352654E+02  0.10566000000E+00 0. -1.
         22    1    1    0    0    0 -0.17064533325E+02 -0.40357539829E+01 -0.24942958301E+02  0.30489945500E+02  0.00000000000E+00 0.  1.
</event>
<event>
 5    1  0.9034917E-005  0.9118800E+02  0.7818608E-02  0.1130116E+00
         25   -1    0    0    0    0  0.00000000000E+00  0.00000000000E+00  0.99999998245E-14  0.12500000000E+03  0.12500000000E+03 0.  0.
        -13    1    3    3    0    0  0.11328654442E+02 -0.26914849032E+02  0.25135489206E+02  0.38529877907E+02  0.10566000000E+00 0. -1.
         23    2    1    0    0    0  0.12723547501E+01  0.26811297544E+02  0.15415734330E+02  0.94046657248E+02  0.88806893381E+02 0.  0.
         13    1    3    3    0    0 -0.10056299692E+02  0.53726146576E+02 -0.97197548764E+01  0.55516779340E+02  0.10566000000E+00 0.  1.
         22    1    1    0    0    0 -0.12723547501E+01 -0.26811297544E+02 -0.15415734330E+02  0.30953342752E+02  0.00000000000E+00 0.  1.
</event>
<event>
 5    1  0.9034917E-005  0.9118800E+02  0.7818608E-02  0.1130116E+00
         25   -1    0    0    0    0  0.00000000000E+00  0.00000000000E+00  0.99999998245E-14  0.12500000000E+03  0.12500000000E+03 0.  0.
        -13    1    3    3    0    0  0.17710306832E+02  0.29449335699E+02 -0.43206253872E+02  0.55206067410E+02  0.10566000000E+00 0. -1.
         23    2    1    0    0    0  0.11259770020E+02  0.28524148033E+02 -0.50427817402E+01  0.93922048175E+02  0.88631326538E+02 0.  0.
         13    1    3    3    0    0 -0.64505368115E+01 -0.92518766610E+00  0.38163472132E+02  0.38715980765E+02  0.10566000000E+00 0.  1.
         22    1    1    0    0    0 -0.11259770020E+02 -0.28524148033E+02  0.50427817402E+01  0.31077951825E+02  0.00000000000E+00 0.  1.
</event>
<event>
 5    1  0.9034917E-005  0.9118800E+02  0.7818608E-02  0.1130116E+00
         25   -1    0    0    0    0  0.00000000000E+00  0.00000000000E+00  0.99999998245E-14  0.12500000000E+03  0.12500000000E+03 0.  0.
        -13    1    3    3    0    0 -0.35320295974E+02  0.20673536462E+02 -0.39833665572E+02  0.57110861440E+02  0.10566000000E+00 0. -1.
         23    2    1    0    0    0 -0.24142758256E+02  0.17870909226E+02 -0.40665648702E+01  0.94688630473E+02  0.89705950852E+02 0.  0.
         13    1    3    3    0    0  0.11177537717E+02 -0.28026272357E+01  0.35767100702E+02  0.37577769033E+02  0.10566000000E+00 0.  1.
         22    1    1    0    0    0  0.24142758256E+02 -0.17870909226E+02  0.40665648702E+01  0.30311369527E+02  0.00000000000E+00 0. -1.
</event>
<event>
 5    1  0.9034917E-005  0.9118800E+02  0.7818608E-02  0.1130116E+00
         25   -1    0    0    0    0  0.00000000000E+00  0.00000000000E+00  0.99999998245E-14  0.12500000000E+03  0.12500000000E+03 0.  0.
        -13    1    3    3    0    0 -0.22265908526E+02 -0.22621209341E+02  0.14519009479E+02  0.34904191651E+02  0.10566000000E+00 0. -1.
         23    2    1    0    0    0  0.29718501352E+02  0.18402150541E+01 -0.32655587960E+01  0.95046042193E+02  0.90202608323E+02 0.  0.
         13    1    3    3    0    0  0.51984409878E+02  0.24461424395E+02 -0.17784568276E+02  0.60141850542E+02  0.10566000000E+00 0.  1.
         22    1    1    0    0    0 -0.29718501352E+02 -0.18402150541E+01  0.32655587960E+01  0.29953957807E+02  0.00000000000E+00 0.  1.
</event>
<event>
 5    1  0.9034917E-005  0.9118800E+02  0.7818608E-02  0.1130116E+00
         25   -1    0    0    0    0  0.00000000000E+00  0.00000000000E+00  0.99999998245E-14  0.12500000000E+03  0.12500000000E+03 0.  0.
        -13    1    3    3    0    0 -0.44701215366E+01  0.22876503593E+02  0.30945150407E+00  0.23311441986E+02  0.10566000000E+00 0.  1.
         23    2    1    0    0    0  0.88438484583E+00 -0.33680541079E+02 -0.22452714228E+02  0.84511910885E+02  0.74182057948E+02 0.  0.
         13    1    3    3    0    0  0.53545063824E+01 -0.56557044672E+02 -0.22762165732E+02  0.61200468899E+02  0.10566000000E+00 0. -1.
         22    1    1    0    0    0 -0.88438484583E+00  0.33680541079E+02  0.22452714228E+02  0.40488089115E+02  0.00000000000E+00 0. -1.
</event>
<event>
 5    1  0.9034917E-005  0.9118800E+02  0.7818608E-02  0.1130116E+00
         25   -1    0    0    0    0  0.00000000000E+00  0.00000000000E+00  0.99999998245E-14  0.12500000000E+03  0.12500000000E+03 0.  0.
        -13    1    3    3    0    0 -0.16519488863E+02 -0.98757092690E+01 -0.42042200303E+02  0.46238305724E+02  0.10566000000E+00 0.  1.
         23    2    1    0    0    0  0.11672114440E+02 -0.27705950696E+02 -0.80211869571E+01  0.93884129457E+02  0.88577832239E+02 0.  0.
         13    1    3    3    0    0  0.28191603303E+02 -0.17830241427E+02  0.34021013346E+02  0.47645823733E+02  0.10566000000E+00 0. -1.
         22    1    1    0    0    0 -0.11672114440E+02  0.27705950696E+02  0.80211869571E+01  0.31115870543E+02  0.00000000000E+00 0.  1.
</event>
<event>
 5    1  0.9034917E-005  0.9118800E+02  0.7818608E-02  0.1130116E+00
         25   -1    0    0    0    0  0.00000000000E+00  0.00000000000E+00  0.99999998245E-14  0.12500000000E+03  0.12500000000E+03 0.  0.
        -13    1    3    3    0    0 -0.24986069124E+00 -0.36488832003E+02 -0.41194118517E+02  0.55031480588E+02  0.10566000000E+00 0.  1.
         23    2    1    0    0    0 -0.19518623921E+01 -0.28855258037E+02 -0.91361421357E+00  0.96064375346E+02  0.91602913909E+02 0.  0.
         13    1    3    3    0    0 -0.17020017009E+01  0.76335739663E+01  0.40280504303E+02  0.41032894758E+02  0.10566000000E+00 0. -1.
         22    1    1    0    0    0  0.19518623921E+01  0.28855258037E+02  0.91361421357E+00  0.28935624654E+02  0.00000000000E+00 0.  1.
</event>
<event>
 5    1  0.9034917E-005  0.9118800E+02  0.7818608E-02  0.1130116E+00
         25   -1    0    0    0    0  0.00000000000E+00  0.00000000000E+00  0.99999998245E-14  0.12500000000E+03  0.12500000000E+03 0.  0.
        -13    1    3    3    0    0  0.57301592845E+02  0.21183264820E+02 -0.12362591384E+02  0.62330153865E+02  0.10566000000E+00 0. -1.
         23    2    1    0    0    0  0.28596418110E+02  0.71648764271E+01 -0.65667256844E+01  0.94797144686E+02  0.89857031842E+02 0.  0.
         13    1    3    3    0    0 -0.28705174735E+02 -0.14018388393E+02  0.57958657000E+01  0.32466990821E+02  0.10566000000E+00 0.  1.
         22    1    1    0    0    0 -0.28596418110E+02 -0.71648764271E+01  0.65667256844E+01  0.30202855314E+02  0.00000000000E+00 0. -1.
</event>
<event>
 5    1  0.9034917E-005  0.9118800E+02  0.7818608E-02  0.1130116E+00
         25   -1    0    0    0    0  0.00000000000E+00  0.00000000000E+00  0.99999998245E-14  0.12500000000E+03  0.12500000000E+03 0.  0.
        -13    1    3    3    0    0  0.17347323420E+02  0.56836599026E+02  0.35726424165E+01  0.59532374021E+02  0.10566000000E+00 0. -1.
         23    2    1    0    0    0  0.12455506565E+02  0.30976520669E+02 -0.11287493837E+02  0.89756674481E+02  0.82547977687E+02 0.  0.
         13    1    3    3    0    0 -0.48918168550E+01 -0.25860078357E+02 -0.14860136254E+02  0.30224300460E+02  0.10566000000E+00 0.  1.
         22    1    1    0    0    0 -0.12455506565E+02 -0.30976520669E+02  0.11287493837E+02  0.35243325519E+02  0.00000000000E+00 0. -1.
</event>
<event>
 5    1  0.9034917E-005  0.9118800E+02  0.7818608E-02  0.1130116E+00
         25   -1    0    0    0    0  0.00000000000E+00  0.00000000000E+00  0.99999998245E-14  0.12500000000E+03  0.12500000000E+03 0.  0.
        -13    1    3    3    0    0 -0.15787314413E+02 -0.50723454798E+02 -0.20841160208E+02  0.57065517485E+02  0.10566000000E+00 0. -1.
         23    2    1    0    0    0  0.46920645170E+01 -0.27334568347E+02  0.41549603876E+01  0.96956145202E+02  0.92811832761E+02 0.  0.
         13    1    3    3    0    0  0.20479378930E+02  0.23388886451E+02  0.24996120596E+02  0.39890627717E+02  0.10566000000E+00 0.  1.
         22    1    1    0    0    0 -0.46920645170E+01  0.27334568347E+02 -0.41549603876E+01  0.28043854798E+02  0.00000000000E+00 0. -1.
</event>
<event>
 5    1  0.9034917E-005  0.9118800E+02  0.7818608E-02  0.1130116E+00
         25   -1    0    0    0    0  0.00000000000E+00  0.00000000000E+00  0.99999998245E-14  0.12500000000E+03  0.12500000000E+03 0.  0.
        -13    1    3    3    0    0 -0.24116893717E+02  0.32189401396E+02 -0.31462041250E+02  0.51065187050E+02  0.10566000000E+00 0.  1.
         23    2    1    0    0    0  0.14632364973E+02  0.12703624029E+02 -0.22412556970E+02  0.95372126669E+02  0.90653359934E+02 0.  0.
         13    1    3    3    0    0  0.38749258691E+02 -0.19485777367E+02  0.90494842804E+01  0.44306939619E+02  0.10566000000E+00 0. -1.
         22    1    1    0    0    0 -0.14632364973E+02 -0.12703624029E+02  0.22412556970E+02  0.29627873331E+02  0.00000000000E+00 0.  1.
</event>
<event>
 5    1  0.9034917E-005  0.9118800E+02  0.7818608E-02  0.1130116E+00
         25   -1    0    0    0    0  0.00000000000E+00  0.00000000000E+00  0.99999998245E-14  0.12500000000E+03  0.12500000000E+03 0.  0.
        -13    1    3    3    0    0  0.44779499908E+02  0.26492801268E+02 -0.19197774907E+02  0.55458433592E+02  0.10566000000E+00 0. -1.
         23    2    1    0    0    0  0.27802197412E+02 -0.53736412036E+01  0.67943935176E+00  0.96675102144E+02  0.92432545869E+02 0.  0.
         13    1    3    3    0    0 -0.16977302496E+02 -0.31866442471E+02  0.19877214259E+02  0.41216668552E+02  0.10566000000E+00 0.  1.
         22    1    1    0    0    0 -0.27802197412E+02  0.53736412036E+01 -0.67943935176E+00  0.28324897856E+02  0.00000000000E+00 0. -1.
</event>
<event>
 5    1  0.9034917E-005  0.9118800E+02  0.7818608E-02  0.1130116E+00
         25   -1    0    0    0    0  0.00000000000E+00  0.00000000000E+00  0.99999998245E-14  0.12500000000E+03  0.12500000000E+03 0.  0.
        -13    1    3    3    0    0  0.33578797217E+02 -0.53972802474E+01  0.48490033854E+02  0.59228040689E+02  0.10566000000E+00 0.  1.
         23    2    1    0    0    0  0.30282011635E+02 -0.14951778214E+02  0.32599953382E+02  0.78060540470E+02  0.62370947705E+02 0.  0.
         13    1    3    3    0    0 -0.32967855823E+01 -0.95544979666E+01 -0.15890080472E+02  0.18832499781E+02  0.10566000000E+00 0. -1.
         22    1    1    0    0    0 -0.30282011635E+02  0.14951778214E+02 -0.32599953382E+02  0.46939459530E+02  0.00000000000E+00 0.  1.
</event>
<event>
 5    1  0.9034917E-005  0.9118800E+02  0.7818608E-02  0.1130116E+00
         25   -1    0    0    0    0  0.00000000000E+00  0.00000000000E+00  0.99999998245E-14  0.12500000000E+03  0.12500000000E+03 0.  0.
        -13    1    3    3    0    0 -0.97340055500E+01 -0.39608328056E+02  0.11442787179E+02  0.42361764103E+02  0.10566000000E+00 0. -1.
         23    2    1    0    0    0  0.17047826027E+02 -0.45675564256E+01 -0.21334446449E+02  0.97311562896E+02  0.93289285151E+02 0.  0.
         13    1    3    3    0    0  0.26781831577E+02  0.35040771631E+02 -0.32777233628E+02  0.54949798793E+02  0.10566000000E+00 0.  1.
         22    1    1    0    0    0 -0.17047826027E+02  0.45675564256E+01  0.21334446449E+02  0.27688437104E+02  0.00000000000E+00 0.  1.
</event>
<event>
 5    1  0.9034917E-005  0.9118800E+02  0.7818608E-02  0.1130116E+00
         25   -1    0    0    0    0  0.00000000000E+00  0.00000000000E+00  0.99999998245E-14  0.12500000000E+03  0.12500000000E+03 0.  0.
        -13    1    3    3    0    0 -0.35917899807E+02 -0.53385279008E+01  0.26655767229E+01  0.36410326419E+02  0.10566000000E+00 0.  1.
         23    2    1    0    0    0  0.18214723348E+02  0.11911006928E+02  0.19617411740E+02  0.95699981637E+02  0.91104310597E+02 0.  0.
         13    1    3    3    0    0  0.54132623155E+02  0.17249534828E+02  0.16951835017E+02  0.59289655218E+02  0.10566000000E+00 0. -1.
         22    1    1    0    0    0 -0.18214723348E+02 -0.11911006928E+02 -0.19617411740E+02  0.29300018363E+02  0.00000000000E+00 0. -1.
</event>
<event>
 5    1  0.9034917E-005  0.9118800E+02  0.7818608E-02  0.1130116E+00
         25   -1    0    0    0    0  0.00000000000E+00  0.00000000000E+00  0.99999998245E-14  0.12500000000E+03  0.12500000000E+03 0.  0.
        -13    1    3    3    0    0  0.18572665821E+02  0.13011170417E+02 -0.34532924097E+02  0.41313054620E+02  0.10566000000E+00 0. -1.
         23    2    1    0    0    0  0.16973051205E+02 -0.12413384269E+02  0.16447167316E+02  0.98303822578E+02  0.94609490245E+02 0.  0.
         13    1    3    3    0    0 -0.15996146163E+01 -0.25424554686E+02  0.50980091413E+02  0.56990767958E+02  0.10566000000E+00 0.  1.
         22    1    1    0    0    0 -0.16973051205E+02  0.12413384269E+02 -0.16447167316E+02  0.26696177422E+02  0.00000000000E+00 0.  1.
</event>
<event>
 5    1  0.9034917E-005  0.9118800E+02  0.7818608E-02  0.1130116E+00
         25   -1    0    0    0    0  0.00000000000E+00  0.00000000000E+00  0.99999998245E-14  0.12500000000E+03  0.12500000000E+03 0.  0.
        -13    1    3    3    0    0  0.18249706033E+02  0.23243476127E+02 -0.51322017011E+02  0.59222221732E+02  0.10566000000E+00 0.  1.
         23    2    1    0    0    0 -0.67782358094E+00  0.21428053113E+02 -0.21160828724E+02  0.94876892967E+02  0.89967901174E+02 0.  0.
         13    1    3    3    0    0 -0.18927529614E+02 -0.18154230136E+01  0.30161188286E+02  0.35654671235E+02  0.10566000000E+00 0. -1.
         22    1    1    0    0    0  0.67782358094E+00 -0.21428053113E+02  0.21160828724E+02  0.30123107033E+02  0.00000000000E+00 0.  1.
</event>
<event>
 5    1  0.9034917E-005  0.9118800E+02  0.7818608E-02  0.1130116E+00
         25   -1    0    0    0    0  0.00000000000E+00  0.00000000000E+00  0.99999998245E-14  0.12500000000E+03  0.12500000000E+03 0.  0.
        -13    1    3    3    0    0 -0.45810132933E+02  0.55234594315E-01  0.63574452493E+01  0.46249320041E+02  0.10566000000E+00 0.  1.
         23    2    1    0    0    0 -0.11632946683E+01  0.88430197215E+01  0.27255434663E+02  0.96322291393E+02  0.91954188857E+02 0.  0.
         13    1    3    3    0    0  0.44646838264E+02  0.87877851272E+01  0.20897989413E+02  0.50072971352E+02  0.10566000000E+00 0. -1.
         22    1    1    0    0    0  0.11632946683E+01 -0.88430197215E+01 -0.27255434663E+02  0.28677708607E+02  0.00000000000E+00 0.  1.
</event>
<event>
 5    1  0.9034917E-005  0.9118800E+02  0.7818608E-02  0.1130116E+00
         25   -1    0    0    0    0  0.00000000000E+00  0.00000000000E+00  0.99999998245E-14  0.12500000000E+03  0.12500000000E+03 0.  0.
        -13    1    3    3    0    0 -0.16813847721E+02 -0.49620536827E+02  0.72972192061E+00  0.52397011445E+02  0.10566000000E+00 0. -1.
         23    2    1    0    0    0  0.93655950266E+01 -0.21584794788E+02 -0.18276997262E+02  0.95206269700E+02  0.90424374065E+02 0.  0.
         13    1    3    3    0    0  0.26179442747E+02  0.28035742039E+02 -0.19006719183E+02  0.42809258255E+02  0.10566000000E+00 0.  1.
         22    1    1    0    0    0 -0.93655950266E+01  0.21584794788E+02  0.18276997262E+02  0.29793730300E+02  0.00000000000E+00 0. -1.
</event>
<event>
 5    1  0.9034917E-005  0.9118800E+02  0.7818608E-02  0.1130116E+00
         25   -1    0    0    0    0  0.00000000000E+00  0.00000000000E+00  0.99999998245E-14  0.12500000000E+03  0.12500000000E+03 0.  0.
        -13    1    3    3    0    0 -0.34705780788E+02 -0.11525450444E+02  0.10821296344E+02  0.38137105903E+02  0.10566000000E+00 0. -1.
         23    2    1    0    0    0  0.41339645914E+01 -0.64352592314E+01 -0.29601626783E+02  0.94426178963E+02  0.89339491495E+02 0.  0.
         13    1    3    3    0    0  0.38839745379E+02  0.50901912125E+01 -0.40422923127E+02  0.56289073060E+02  0.10566000000E+00 0.  1.
         22    1    1    0    0    0 -0.41339645914E+01  0.64352592314E+01  0.29601626783E+02  0.30573821037E+02  0.00000000000E+00 0.  1.
</event>
<event>
 5    1  0.9034917E-005  0.9118800E+02  0.7818608E-02  0.1130116E+00
         25   -1    0    0    0    0  0.00000000000E+00  0.00000000000E+00  0.99999998245E-14  0.12500000000E+03  0.12500000000E+03 0.  0.
        -13    1    3    3    0    0 -0.55733102384E+02  0.17519379055E+02 -0.12154711669E+02  0.59672904434E+02  0.10566000000E+00 0. -1.
         23    2    1    0    0    0 -0.25107520098E+02  0.16312430206E+02  0.47640592209E+01  0.94682031649E+02  0.89696755305E+02 0.  0.
         13    1    3    3    0    0  0.30625582286E+02 -0.12069488482E+01  0.16918770890E+02  0.35009127215E+02  0.10566000000E+00 0.  1.
         22    1    1    0    0    0  0.25107520098E+02 -0.16312430206E+02 -0.47640592209E+01  0.30317968351E+02  0.00000000000E+00 0. -1.
</event>
<event>
 5    1  0.9034917E-005  0.9118800E+02  0.7818608E-02  0.1130116E+00
         25   -1    0    0    0    0  0.00000000000E+00  0.00000000000E+00  0.99999998245E-14  0.12500000000E+03  0.12500000000E+03 0.  0.
        -13    1    3    3    0    0  0.41724433244E+02  0.37389558224E+02 -0.10119351414E+02  0.56932590234E+02  0.10566000000E+00 0.  1.
         23    2    1    0    0    0  0.23533018746E+02  0.24019343929E+02 -0.24227524910E+02  0.83554797415E+02  0.72551356664E+02 0.  0.
         13    1    3    3    0    0 -0.18191414498E+02 -0.13370214295E+02 -0.14108173496E+02  0.26622207181E+02  0.10566000000E+00 0. -1.
         22    1    1    0    0    0 -0.23533018746E+02 -0.24019343929E+02  0.24227524910E+02  0.41445202585E+02  0.00000000000E+00 0.  1.
</event>
<event>
 5    1  0.9034917E-005  0.9118800E+02  0.7818608E-02  0.1130116E+00
         25   -1    0    0    0    0  0.00000000000E+00  0.00000000000E+00  0.99999998245E-14  0.12500000000E+03  0.12500000000E+03 0.  0.
        -13    1    3    3    0    0  0.45857893922E+00  0.16332682389E+02  0.29988042723E+02  0.34150558986E+02  0.10566000000E+00 0. -1.
         23    2    1    0    0    0  0.20262947573E+01 -0.12942499635E+02 -0.25175134616E+02  0.96620402220E+02  0.92358543487E+02 0.  0.
         13    1    3    3    0    0  0.15677158180E+01 -0.29275182024E+02 -0.55163177339E+02  0.62469843233E+02  0.10566000000E+00 0.  1.
         22    1    1    0    0    0 -0.20262947573E+01  0.12942499635E+02  0.25175134616E+02  0.28379597780E+02  0.00000000000E+00 0.  1.
</event>
<event>
 5    1  0.9034917E-005  0.9118800E+02  0.7818608E-02  0.1130116E+00
         25   -1    0    0    0    0  0.00000000000E+00  0.00000000000E+00  0.99999998245E-14  0.12500000000E+03  0.12500000000E+03 0.  0.
        -13    1    3    3    0    0  0.27567913692E+02 -0.18284475600E+02  0.13012207512E+02  0.35547723158E+02  0.10566000000E+00 0.  1.
         23    2    1    0    0    0 -0.28835749934E+02  0.92880925354E+00  0.26567155592E+01  0.96027231778E+02  0.91552214307E+02 0.  0.
         13    1    3    3    0    0 -0.56403663626E+02  0.19213284854E+02 -0.10355491953E+02  0.60479508620E+02  0.10566000000E+00 0. -1.
         22    1    1    0    0    0  0.28835749934E+02 -0.92880925354E+00 -0.26567155592E+01  0.28972768222E+02  0.00000000000E+00 0. -1.
</event>
<event>
 5    1  0.9034917E-005  0.9118800E+02  0.7818608E-02  0.1130116E+00
         25   -1    0    0    0    0  0.00000000000E+00  0.00000000000E+00  0.99999998245E-14  0.12500000000E+03  0.12500000000E+03 0.  0.
        -13    1    3    3    0    0  0.24596861426E+02  0.46470213946E+02 -0.11033908009E+02  0.53723781198E+02  0.10566000000E+00 0. -1.
         23    2    1    0    0    0  0.73968115910E+01  0.13166232233E+02 -0.26680672801E+02  0.94341872300E+02  0.89221455240E+02 0.  0.
         13    1    3    3    0    0 -0.17200049835E+02 -0.33303981713E+02 -0.15646764792E+02  0.40618091102E+02  0.10566000000E+00 0.  1.
         22    1    1    0    0    0 -0.73968115910E+01 -0.13166232233E+02  0.26680672801E+02  0.30658127700E+02  0.00000000000E+00 0. -1.
</event>
<event>
 5    1  0.9034917E-005  0.9118800E+02  0.7818608E-02  0.1130116E+00
         25   -1    0    0    0    0  0.00000000000E+00  0.00000000000E+00  0.99999998245E-14  0.12500000000E+03  0.12500000000E+03 0.  0.
        -13    1    3    3    0    0 -0.50800825980E+02  0.40970689089E+01 -0.28735174616E+02  0.58508386733E+02  0.10566000000E+00 0. -1.
         23    2    1    0    0    0 -0.16471870553E+02  0.16507806466E+02 -0.13415552252E+02  0.98096334152E+02  0.94334953957E+02 0.  0.
         13    1    3    3    0    0  0.34328955427E+02  0.12410737557E+02  0.15319622364E+02  0.39587947419E+02  0.10566000000E+00 0.  1.
         22    1    1    0    0    0  0.16471870553E+02 -0.16507806466E+02  0.13415552252E+02  0.26903665848E+02  0.00000000000E+00 0. -1.
</event>
<event>
 5    1  0.9034917E-005  0.9118800E+02  0.7818608E-02  0.1130116E+00
         25   -1    0    0    0    0  0.00000000000E+00  0.00000000000E+00  0.99999998245E-14  0.12500000000E+03  0.12500000000E+03 0.  0.
        -13    1    3    3    0    0 -0.18342445675E+02  0.31614632495E+02 -0.22962189781E+00  0.36551254306E+02  0.10566000000E+00 0.  1.
         23    2    1    0    0    0  0.20960231719E+02 -0.94929840385E+01  0.17464275321E+02  0.96113169572E+02  0.91669473616E+02 0.  0.
         13    1    3    3    0    0  0.39302677394E+02 -0.41107616533E+02  0.17693897218E+02  0.59561915266E+02  0.10566000000E+00 0. -1.
         22    1    1    0    0    0 -0.20960231719E+02  0.94929840385E+01 -0.17464275321E+02  0.28886830428E+02  0.00000000000E+00 0. -1.
</event>
<event>
 5    1  0.9034917E-005  0.9118800E+02  0.7818608E-02  0.1130116E+00
         25   -1    0    0    0    0  0.00000000000E+00  0.00000000000E+00  0.99999998245E-14  0.12500000000E+03  0.12500000000E+03 0.  0.
        -13    1    3    3    0    0 -0.68200026379E+01 -0.25720433156E+02 -0.41378398526E+02  0.49195895625E+02  0.10566000000E+00 0.  1.
         23    2    1    0    0    0  0.86865598942E+01 -0.28528767030E+02  0.17634811251E+01  0.95125985594E+02  0.90313323483E+02 0.  0.
         13    1    3    3    0    0  0.15506562532E+02 -0.28083338737E+01  0.43141879651E+02  0.45930089969E+02  0.10566000000E+00 0. -1.
         22    1    1    0    0    0 -0.86865598942E+01  0.28528767030E+02 -0.17634811251E+01  0.29874014406E+02  0.00000000000E+00 0. -1.
</event>
<event>
 5    1  0.9034917E-005  0.9118800E+02  0.7818608E-02  0.1130116E+00
         25   -1    0    0    0    0  0.00000000000E+00  0.00000000000E+00  0.99999998245E-14  0.12500000000E+03  0.12500000000E+03 0.  0.
        -13    1    3    3    0    0 -0.41962267475E+00  0.56706321879E+02 -0.92519364030E+01  0.57457745478E+02  0.10566000000E+00 0.  1.
         23    2    1    0    0    0 -0.16760208035E+02  0.21237587214E+02  0.13136110397E+01  0.97913744112E+02  0.94092699122E+02 0.  0.
         13    1    3    3    0    0 -0.16340585360E+02 -0.35468734665E+02  0.10565547443E+02  0.40455998633E+02  0.10566000000E+00 0. -1.
         22    1    1    0    0    0  0.16760208035E+02 -0.21237587214E+02 -0.13136110397E+01  0.27086255888E+02  0.00000000000E+00 0.  1.
</event>
<event>
 5    1  0.9034917E-005  0.9118800E+02  0.7818608E-02  0.1130116E+00
         25   -1    0    0    0    0  0.00000000000E+00  0.00000000000E+00  0.99999998245E-14  0.12500000000E+03  0.12500000000E+03 0.  0.
        -13    1    3    3    0    0  0.94775998112E+01 -0.25279286116E+02  0.99782745374E+01  0.28782708898E+02  0.10566000000E+00 0.  1.
         23    2    1    0    0    0  0.24259436861E+02  0.15161583170E+02 -0.27092043450E+02  0.85599838841E+02  0.75993155680E+02 0.  0.
         13    1    3    3    0    0  0.14781837050E+02  0.40440869286E+02 -0.37070317988E+02  0.56817129943E+02  0.10566000000E+00 0. -1.
         22    1    1    0    0    0 -0.24259436861E+02 -0.15161583170E+02  0.27092043450E+02  0.39400161159E+02  0.00000000000E+00 0. -1.
</event>
<event>
 5    1  0.9034917E-005  0.9118800E+02  0.7818608E-02  0.1130116E+00
         25   -1    0    0    0    0  0.00000000000E+00  0.00000000000E+00  0.99999998245E-14  0.12500000000E+03  0.12500000000E+03 0.  0.
        -13    1    3    3    0    0  0.72556024763E+01  0.25424905019E+01  0.31909740713E+02  0.32823021520E+02  0.10566000000E+00 0. -1.
         23    2    1    0    0    0  0.30463543261E+02 -0.29343327730E+02  0.14085509901E+01  0.82679291520E+02  0.71026916589E+02 0.  0.
         13    1    3    3    0    0  0.23207940785E+02 -0.31885818232E+02 -0.30501189723E+02  0.49856270001E+02  0.10566000000E+00 0.  1.
         22    1    1    0    0    0 -0.30463543261E+02  0.29343327730E+02 -0.14085509901E+01  0.42320708480E+02  0.00000000000E+00 0.  1.
</event>
<event>
 5    1  0.9034917E-005  0.9118800E+02  0.7818608E-02  0.1130116E+00
         25   -1    0    0    0    0  0.00000000000E+00  0.00000000000E+00  0.99999998245E-14  0.12500000000E+03  0.12500000000E+03 0.  0.
        -13    1    3    3    0    0 -0.68850223014E+01 -0.32315545832E+02  0.87360435434E+01  0.34176419580E+02  0.10566000000E+00 0.  1.
         23    2    1    0    0    0 -0.12225157420E+02  0.20460028474E+02 -0.19442562964E+02  0.94241578492E+02  0.89080831961E+02 0.  0.
         13    1    3    3    0    0 -0.53401351188E+01  0.52775574305E+02 -0.28178606507E+02  0.60065158911E+02  0.10566000000E+00 0. -1.
         22    1    1    0    0    0  0.12225157420E+02 -0.20460028474E+02  0.19442562964E+02  0.30758421508E+02  0.00000000000E+00 0. -1.
</event>
<event>
 5    1  0.9034917E-005  0.9118800E+02  0.7818608E-02  0.1130116E+00
         25   -1    0    0    0    0  0.00000000000E+00  0.00000000000E+00  0.99999998245E-14  0.12500000000E+03  0.12500000000E+03 0.  0.
        -13    1    3    3    0    0 -0.36657484310E+02  0.64185666325E+01  0.31152456674E+02  0.48533038999E+02  0.10566000000E+00 0. -1.
         23    2    1    0    0    0 -0.79340792811E+00 -0.21646168556E+02  0.20223697669E+02  0.95365829577E+02  0.90644676590E+02 0.  0.
         13    1    3    3    0    0  0.35864076382E+02 -0.28064735188E+02 -0.10928759005E+02  0.46832790578E+02  0.10566000000E+00 0.  1.
         22    1    1    0    0    0  0.79340792811E+00  0.21646168556E+02 -0.20223697669E+02  0.29634170423E+02  0.00000000000E+00 0.  1.
</event>
<event>
 5    1  0.9034917E-005  0.9118800E+02  0.7818608E-02  0.1130116E+00
         25   -1    0    0    0    0  0.00000000000E+00  0.00000000000E+00  0.99999998245E-14  0.12500000000E+03  0.12500000000E+03 0.  0.
        -13    1    3    3    0    0 -0.37216233599E+02  0.15606141621E+02 -0.18457755489E+02  0.44376791246E+02  0.10566000000E+00 0.  1.
         23    2    1    0    0    0 -0.14606407614E+02 -0.21770070726E+02  0.10470932945E+02  0.96770165435E+02  0.92561014249E+02 0.  0.
         13    1    3    3    0    0  0.22609825984E+02 -0.37376212347E+02  0.28928688434E+02  0.52393374190E+02  0.10566000000E+00 0. -1.
         22    1    1    0    0    0  0.14606407614E+02  0.21770070726E+02 -0.10470932945E+02  0.28229834565E+02  0.00000000000E+00 0.  1.
</event>
<event>
 5    1  0.9034917E-005  0.9118800E+02  0.7818608E-02  0.1130116E+00
         25   -1    0    0    0    0  0.00000000000E+00  0.00000000000E+00  0.99999998245E-14  0.12500000000E+03  0.12500000000E+03 0.  0.
        -13    1    3    3    0    0  0.35897841277E+02 -0.85212148938E+01 -0.24584852551E+02  0.44336128052E+02  0.10566000000E+00 0. -1.
         23    2    1    0    0    0 -0.13749474306E+02 -0.46013435515E+01 -0.27168189907E+02  0.94205017471E+02  0.89029514026E+02 0.  0.
         13    1    3    3    0    0 -0.49647315583E+02  0.39198713423E+01 -0.25833373557E+01  0.49868889419E+02  0.10566000000E+00 0.  1.
         22    1    1    0    0    0  0.13749474306E+02  0.46013435515E+01  0.27168189907E+02  0.30794982529E+02  0.00000000000E+00 0.  1.
</event>
<event>
 5    1  0.9034917E-005  0.9118800E+02  0.7818608E-02  0.1130116E+00
         25   -1    0    0    0    0  0.00000000000E+00  0.00000000000E+00  0.99999998245E-14  0.12500000000E+03  0.12500000000E+03 0.  0.
        -13    1    3    3    0    0 -0.22130192964E+02  0.32468901012E+02  0.43746677211E+02  0.58802703208E+02  0.10566000000E+00 0. -1.
         23    2    1    0    0    0 -0.54649567283E+01  0.57695258631E+01  0.31397401835E+02  0.92612502061E+02  0.86764771165E+02 0.  0.
         13    1    3    3    0    0  0.16665236236E+02 -0.26699375149E+02 -0.12349275376E+02  0.33809798853E+02  0.10566000000E+00 0.  1.
         22    1    1    0    0    0  0.54649567283E+01 -0.57695258631E+01 -0.31397401835E+02  0.32387497939E+02  0.00000000000E+00 0. -1.
</event>
<event>
 5    1  0.9034917E-005  0.9118800E+02  0.7818608E-02  0.1130116E+00
         25   -1    0    0    0    0  0.00000000000E+00  0.00000000000E+00  0.99999998245E-14  0.12500000000E+03  0.12500000000E+03 0.  0.
        -13    1    3    3    0    0 -0.14265486565E+02  0.10263596231E+02 -0.41219205888E+02  0.44809369696E+02  0.10566000000E+00 0.  1.
         23    2    1    0    0    0 -0.63761232588E+01  0.25327832447E+02  0.86408823064E+01  0.97489658466E+02  0.93527614193E+02 0.  0.
         13    1    3    3    0    0  0.78893633058E+01  0.15064236215E+02  0.49860088194E+02  0.52680288770E+02  0.10566000000E+00 0. -1.
         22    1    1    0    0    0  0.63761232588E+01 -0.25327832447E+02 -0.86408823064E+01  0.27510341534E+02  0.00000000000E+00 0. -1.
</event>
<event>
 5    1  0.9034917E-005  0.9118800E+02  0.7818608E-02  0.1130116E+00
         25   -1    0    0    0    0  0.00000000000E+00  0.00000000000E+00  0.99999998245E-14  0.12500000000E+03  0.12500000000E+03 0.  0.
        -13    1    3    3    0    0 -0.45997782045E+02  0.94300343346E+01  0.39854263497E+02  0.61588107485E+02  0.10566000000E+00 0.  1.
         23    2    1    0    0    0 -0.26098714370E+02  0.39920821686E+01  0.12665637590E+02  0.95716933436E+02  0.91127566405E+02 0.  0.
         13    1    3    3    0    0  0.19899067674E+02 -0.54379521660E+01 -0.27188625907E+02  0.34128825951E+02  0.10566000000E+00 0. -1.
         22    1    1    0    0    0  0.26098714370E+02 -0.39920821686E+01 -0.12665637590E+02  0.29283066564E+02  0.00000000000E+00 0.  1.
</event>
<event>
 5    1  0.9034917E-005  0.9118800E+02  0.7818608E-02  0.1130116E+00
         25   -1    0    0    0    0  0.00000000000E+00  0.00000000000E+00  0.99999998245E-14  0.12500000000E+03  0.12500000000E+03 0.  0.
        -13    1    3    3    0    0  0.20704391675E+02 -0.50655178577E+02  0.12551360061E+02  0.56144160468E+02  0.10566000000E+00 0.  1.
         23    2    1    0    0    0  0.18018886183E+01 -0.24130398924E+02 -0.12990620628E+02  0.97535856483E+02  0.93589337645E+02 0.  0.
         13    1    3    3    0    0 -0.18902503056E+02  0.26524779653E+02 -0.25541980689E+02  0.41391696015E+02  0.10566000000E+00 0. -1.
         22    1    1    0    0    0 -0.18018886183E+01  0.24130398924E+02  0.12990620628E+02  0.27464143517E+02  0.00000000000E+00 0.  1.
</event>
<event>
 5    1  0.9034917E-005  0.9118800E+02  0.7818608E-02  0.1130116E+00
         25   -1    0    0    0    0  0.00000000000E+00  0.00000000000E+00  0.99999998245E-14  0.12500000000E+03  0.12500000000E+03 0.  0.
        -13    1    3    3    0    0  0.23457369977E+02 -0.26104263626E+01  0.24183363364E+02  0.33792140502E+02  0.10566000000E+00 0.  1.
         23    2    1    0    0    0 -0.20877553463E+02 -0.70318531252E+01 -0.19050630703E+02  0.95875341596E+02  0.91344596988E+02 0.  0.
         13    1    3    3    0    0 -0.44334923441E+02 -0.44214267626E+01 -0.43233994067E+02  0.62083201094E+02  0.10566000000E+00 0. -1.
         22    1    1    0    0    0  0.20877553463E+02  0.70318531252E+01  0.19050630703E+02  0.29124658404E+02  0.00000000000E+00 0. -1.
</event>
<event>
 5    1  0.9034917E-005  0.9118800E+02  0.7818608E-02  0.1130116E+00
         25   -1    0    0    0    0  0.00000000000E+00  0.00000000000E+00  0.99999998245E-14  0.12500000000E+03  0.12500000000E+03 0.  0.
        -13    1    3    3    0    0 -0.39054215957E+02 -0.11839940719E+02 -0.68559401955E+01  0.41381530424E+02  0.10566000000E+00 0. -1.
         23    2    1    0    0    0  0.73965815847E+01 -0.26393782957E+01 -0.29929563442E+02  0.94057238249E+02  0.88821785404E+02 0.  0.
         13    1    3    3    0    0  0.46450797542E+02  0.92005624230E+01 -0.23073623247E+02  0.52675707825E+02  0.10566000000E+00 0.  1.
         22    1    1    0    0    0 -0.73965815847E+01  0.26393782957E+01  0.29929563442E+02  0.30942761751E+02  0.00000000000E+00 0.  1.
</event>
<event>
 5    1  0.9034917E-005  0.9118800E+02  0.7818608E-02  0.1130116E+00
         25   -1    0    0    0    0  0.00000000000E+00  0.00000000000E+00  0.99999998245E-14  0.12500000000E+03  0.12500000000E+03 0.  0.
        -13    1    3    3    0    0 -0.40063354784E+02  0.86195942007E+00  0.42606130060E+02  0.58490245796E+02  0.10566000000E+00 0.  1.
         23    2    1    0    0    0 -0.57359812420E+01  0.16311616759E+01  0.28949649675E+02  0.95442524034E+02  0.90750377456E+02 0.  0.
         13    1    3    3    0    0  0.34327373542E+02  0.76920225580E+00 -0.13656480385E+02  0.36952278237E+02  0.10566000000E+00 0. -1.
         22    1    1    0    0    0  0.57359812420E+01 -0.16311616759E+01 -0.28949649675E+02  0.29557475966E+02  0.00000000000E+00 0.  1.
</event>
<event>
 5    1  0.9034917E-005  0.9118800E+02  0.7818608E-02  0.1130116E+00
         25   -1    0    0    0    0  0.00000000000E+00  0.00000000000E+00  0.99999998245E-14  0.12500000000E+03  0.12500000000E+03 0.  0.
        -13    1    3    3    0    0 -0.15072572620E+02 -0.31466285431E+02  0.13338467194E+02  0.37352850431E+02  0.10566000000E+00 0.  1.
         23    2    1    0    0    0  0.49309566932E+01  0.23155396453E+02  0.17331959014E+02  0.95659183344E+02  0.91048315942E+02 0.  0.
         13    1    3    3    0    0  0.20003529313E+02  0.54621681884E+02  0.39934918200E+01  0.58306332913E+02  0.10566000000E+00 0. -1.
         22    1    1    0    0    0 -0.49309566932E+01 -0.23155396453E+02 -0.17331959014E+02  0.29340816656E+02  0.00000000000E+00 0. -1.
</event>
<event>
 5    1  0.9034917E-005  0.9118800E+02  0.7818608E-02  0.1130116E+00
         25   -1    0    0    0    0  0.00000000000E+00  0.00000000000E+00  0.99999998245E-14  0.12500000000E+03  0.12500000000E+03 0.  0.
        -13    1    3    3    0    0 -0.40293079981E+02  0.45871377923E+02 -0.13175299327E+02  0.62460509791E+02  0.10566000000E+00 0.  1.
         23    2    1    0    0    0 -0.20109389209E+02  0.21082680402E+02 -0.52433585418E+01  0.95396625934E+02  0.90687135160E+02 0.  0.
         13    1    3    3    0    0  0.20183690771E+02 -0.24788697521E+02  0.79319407855E+01  0.32936116143E+02  0.10566000000E+00 0. -1.
         22    1    1    0    0    0  0.20109389209E+02 -0.21082680402E+02  0.52433585418E+01  0.29603374066E+02  0.00000000000E+00 0.  1.
</event>
<event>
 5    1  0.9034917E-005  0.9118800E+02  0.7818608E-02  0.1130116E+00
         25   -1    0    0    0    0  0.00000000000E+00  0.00000000000E+00  0.99999998245E-14  0.12500000000E+03  0.12500000000E+03 0.  0.
        -13    1    3    3    0    0  0.50331034783E+02  0.29599004597E+02  0.12136267840E+02  0.59637356553E+02  0.10566000000E+00 0.  1.
         23    2    1    0    0    0  0.23944040935E+02  0.53746396094E+01  0.16060009927E+02  0.95672065091E+02  0.91065999542E+02 0.  0.
         13    1    3    3    0    0 -0.26386993848E+02 -0.24224364988E+02  0.39237420864E+01  0.36034708538E+02  0.10566000000E+00 0. -1.
         22    1    1    0    0    0 -0.23944040935E+02 -0.53746396094E+01 -0.16060009927E+02  0.29327934909E+02  0.00000000000E+00 0.  1.
</event>
<event>
 5    1  0.9034917E-005  0.9118800E+02  0.7818608E-02  0.1130116E+00
         25   -1    0    0    0    0  0.00000000000E+00  0.00000000000E+00  0.99999998245E-14  0.12500000000E+03  0.12500000000E+03 0.  0.
        -13    1    3    3    0    0 -0.18705802243E+02 -0.21803767118E+02  0.21287702100E+02  0.35755960662E+02  0.10566000000E+00 0.  1.
         23    2    1    0    0    0 -0.84500510941E+01  0.25719741911E+02 -0.12721122160E+02  0.95087871415E+02  0.90260555359E+02 0.  0.
         13    1    3    3    0    0  0.10255751149E+02  0.47523509029E+02 -0.34008824260E+02  0.59331910754E+02  0.10566000000E+00 0. -1.
         22    1    1    0    0    0  0.84500510941E+01 -0.25719741911E+02  0.12721122160E+02  0.29912128585E+02  0.00000000000E+00 0. -1.
</event>
<event>
 5    1  0.9034917E-005  0.9118800E+02  0.7818608E-02  0.1130116E+00
         25   -1    0    0    0    0  0.00000000000E+00  0.00000000000E+00  0.99999998245E-14  0.12500000000E+03  0.12500000000E+03 0.  0.
        -13    1    3    3    0    0 -0.48817123479E+01 -0.11506500143E+02  0.30967761615E+02  0.33395270391E+02  0.10566000000E+00 0.  1.
         23    2    1    0    0    0  0.43410564322E+01  0.57747693924E+01 -0.28287570670E+02  0.95804462894E+02  0.91247551877E+02 0.  0.
         13    1    3    3    0    0  0.92227687801E+01  0.17281269535E+02 -0.59255332285E+02  0.62409192504E+02  0.10566000000E+00 0. -1.
         22    1    1    0    0    0 -0.43410564322E+01 -0.57747693924E+01  0.28287570670E+02  0.29195537106E+02  0.00000000000E+00 0. -1.
</event>
<event>
 5    1  0.9034917E-005  0.9118800E+02  0.7818608E-02  0.1130116E+00
         25   -1    0    0    0    0  0.00000000000E+00  0.00000000000E+00  0.99999998245E-14  0.12500000000E+03  0.12500000000E+03 0.  0.
        -13    1    3    3    0    0 -0.23482665512E+02  0.11447392416E+02  0.36456839697E+02  0.44850760277E+02  0.10566000000E+00 0. -1.
         23    2    1    0    0    0 -0.14752617136E+02  0.20722689087E+02 -0.13357985129E+02  0.96268391586E+02  0.91880889725E+02 0.  0.
         13    1    3    3    0    0  0.87300483760E+01  0.92752966705E+01 -0.49814824826E+02  0.51417631310E+02  0.10566000000E+00 0.  1.
         22    1    1    0    0    0  0.14752617136E+02 -0.20722689087E+02  0.13357985129E+02  0.28731608414E+02  0.00000000000E+00 0.  1.
</event>
<event>
 5    1  0.9034917E-005  0.9118800E+02  0.7818608E-02  0.1130116E+00
         25   -1    0    0    0    0  0.00000000000E+00  0.00000000000E+00  0.99999998245E-14  0.12500000000E+03  0.12500000000E+03 0.  0.
        -13    1    3    3    0    0  0.18484143484E+02  0.28096024780E+01  0.56083677888E+02  0.59118081125E+02  0.10566000000E+00 0. -1.
         23    2    1    0    0    0  0.21433378538E+02 -0.14336765357E+01  0.19744094011E+02  0.95823393064E+02  0.91273480629E+02 0.  0.
         13    1    3    3    0    0  0.29492350538E+01 -0.42432790138E+01 -0.36339583877E+02  0.36705311939E+02  0.10566000000E+00 0.  1.
         22    1    1    0    0    0 -0.21433378538E+02  0.14336765357E+01 -0.19744094011E+02  0.29176606936E+02  0.00000000000E+00 0. -1.
</event>
<event>
 5    1  0.9034917E-005  0.9118800E+02  0.7818608E-02  0.1130116E+00
         25   -1    0    0    0    0  0.00000000000E+00  0.00000000000E+00  0.99999998245E-14  0.12500000000E+03  0.12500000000E+03 0.  0.
        -13    1    3    3    0    0 -0.22346709653E+02 -0.25745909590E+02  0.71738282209E+01  0.34838229983E+02  0.10566000000E+00 0.  1.
         23    2    1    0    0    0  0.23328770541E+02  0.59866334168E+01  0.21981469523E+02  0.92392388665E+02  0.86447077257E+02 0.  0.
         13    1    3    3    0    0  0.45675480194E+02  0.31732543007E+02  0.14807641302E+02  0.57554158682E+02  0.10566000000E+00 0. -1.
         22    1    1    0    0    0 -0.23328770541E+02 -0.59866334168E+01 -0.21981469523E+02  0.32607611335E+02  0.00000000000E+00 0. -1.
</event>
<event>
 5    1  0.9034917E-005  0.9118800E+02  0.7818608E-02  0.1130116E+00
         25   -1    0    0    0    0  0.00000000000E+00  0.00000000000E+00  0.99999998245E-14  0.12500000000E+03  0.12500000000E+03 0.  0.
        -13    1    3    3    0    0  0.58674647493E+01  0.17932874650E+02 -0.41442459906E+02  0.45535741818E+02  0.10566000000E+00 0.  1.
         23    2    1    0    0    0  0.30095529941E+02  0.80648290137E+01 -0.84620521710E+00  0.93831130070E+02  0.88503008522E+02 0.  0.
         13    1    3    3    0    0  0.24228065192E+02 -0.98680456366E+01  0.40596254689E+02  0.48295388252E+02  0.10566000000E+00 0. -1.
         22    1    1    0    0    0 -0.30095529941E+02 -0.80648290137E+01  0.84620521710E+00  0.31168869930E+02  0.00000000000E+00 0. -1.
</event>
<event>
 5    1  0.9034917E-005  0.9118800E+02  0.7818608E-02  0.1130116E+00
         25   -1    0    0    0    0  0.00000000000E+00  0.00000000000E+00  0.99999998245E-14  0.12500000000E+03  0.12500000000E+03 0.  0.
        -13    1    3    3    0    0  0.24829338206E+02 -0.24250483199E+02  0.26401945863E+02  0.43607979552E+02  0.10566000000E+00 0.  1.
         23    2    1    0    0    0  0.18745207098E+02  0.20671607946E+02 -0.18672929685E+01  0.97032430437E+02  0.92914517753E+02 0.  0.
         13    1    3    3    0    0 -0.60841311082E+01  0.44922091146E+02 -0.28269238832E+02  0.53424450885E+02  0.10566000000E+00 0. -1.
         22    1    1    0    0    0 -0.18745207098E+02 -0.20671607946E+02  0.18672929685E+01  0.27967569563E+02  0.00000000000E+00 0.  1.
</event>
<event>
 5    1  0.9034917E-005  0.9118800E+02  0.7818608E-02  0.1130116E+00
         25   -1    0    0    0    0  0.00000000000E+00  0.00000000000E+00  0.99999998245E-14  0.12500000000E+03  0.12500000000E+03 0.  0.
        -13    1    3    3    0    0 -0.93694406049E+01 -0.30851217617E+02  0.12174430810E+02  0.34464648196E+02  0.10566000000E+00 0.  1.
         23    2    1    0    0    0  0.20024522531E+02  0.14842005295E+02 -0.15713299612E+02  0.95535200519E+02  0.90877940831E+02 0.  0.
         13    1    3    3    0    0  0.29393963136E+02  0.45693222912E+02 -0.27887730422E+02  0.61070552323E+02  0.10566000000E+00 0. -1.
         22    1    1    0    0    0 -0.20024522531E+02 -0.14842005295E+02  0.15713299612E+02  0.29464799481E+02  0.00000000000E+00 0. -1.
</event>
<event>
 5    1  0.9034917E-005  0.9118800E+02  0.7818608E-02  0.1130116E+00
         25   -1    0    0    0    0  0.00000000000E+00  0.00000000000E+00  0.99999998245E-14  0.12500000000E+03  0.12500000000E+03 0.  0.
        -13    1    3    3    0    0  0.25591201067E+02 -0.14553172747E+02  0.17671570528E+02  0.34336569107E+02  0.10566000000E+00 0.  1.
         23    2    1    0    0    0 -0.26424199121E+02  0.12185994255E+02 -0.14395391770E+01  0.95865672683E+02  0.91331364661E+02 0.  0.
         13    1    3    3    0    0 -0.52015400188E+02  0.26739167002E+02 -0.19111109705E+02  0.61529103576E+02  0.10566000000E+00 0. -1.
         22    1    1    0    0    0  0.26424199121E+02 -0.12185994255E+02  0.14395391770E+01  0.29134327317E+02  0.00000000000E+00 0. -1.
</event>
<event>
 5    1  0.9034917E-005  0.9118800E+02  0.7818608E-02  0.1130116E+00
         25   -1    0    0    0    0  0.00000000000E+00  0.00000000000E+00  0.99999998245E-14  0.12500000000E+03  0.12500000000E+03 0.  0.
        -13    1    3    3    0    0  0.37107040876E+02  0.10391246029E+02 -0.36129495345E+02  0.52822931332E+02  0.10566000000E+00 0. -1.
         23    2    1    0    0    0 -0.23468362168E+01 -0.34972500924E+01 -0.29534384910E+02  0.95166825672E+02  0.90369831349E+02 0.  0.
         13    1    3    3    0    0 -0.39453877093E+02 -0.13888496122E+02  0.65951104346E+01  0.42343894340E+02  0.10566000000E+00 0.  1.
         22    1    1    0    0    0  0.23468362168E+01  0.34972500924E+01  0.29534384910E+02  0.29833174328E+02  0.00000000000E+00 0.  1.
</event>
<event>
 5    1  0.9034917E-005  0.9118800E+02  0.7818608E-02  0.1130116E+00
         25   -1    0    0    0    0  0.00000000000E+00  0.00000000000E+00  0.99999998245E-14  0.12500000000E+03  0.12500000000E+03 0.  0.
        -13    1    3    3    0    0 -0.18130238420E+02 -0.32191418611E+02 -0.19958264044E+02  0.41992099793E+02  0.10566000000E+00 0.  1.
         23    2    1    0    0    0 -0.23946178682E+02  0.15889298660E+02  0.39298422514E+01  0.95994260128E+02  0.91507185685E+02 0.  0.
         13    1    3    3    0    0 -0.58159402626E+01  0.48080717271E+02  0.23888106295E+02  0.54002160335E+02  0.10566000000E+00 0. -1.
         22    1    1    0    0    0  0.23946178682E+02 -0.15889298660E+02 -0.39298422514E+01  0.29005739872E+02  0.00000000000E+00 0. -1.
</event>
<event>
 5    1  0.9034917E-005  0.9118800E+02  0.7818608E-02  0.1130116E+00
         25   -1    0    0    0    0  0.00000000000E+00  0.00000000000E+00  0.99999998245E-14  0.12500000000E+03  0.12500000000E+03 0.  0.
        -13    1    3    3    0    0  0.23823128461E+02  0.22226043162E+02 -0.25365425053E+02  0.41291093428E+02  0.10566000000E+00 0.  1.
         23    2    1    0    0    0 -0.46623017673E+01  0.15526430078E+02  0.22424997311E+02  0.97328939429E+02  0.93312565377E+02 0.  0.
         13    1    3    3    0    0 -0.28485430228E+02 -0.66996130840E+01  0.47790422363E+02  0.56037846001E+02  0.10566000000E+00 0. -1.
         22    1    1    0    0    0  0.46623017673E+01 -0.15526430078E+02 -0.22424997311E+02  0.27671060571E+02  0.00000000000E+00 0. -1.
</event>
<event>
 5    1  0.9034917E-005  0.9118800E+02  0.7818608E-02  0.1130116E+00
         25   -1    0    0    0    0  0.00000000000E+00  0.00000000000E+00  0.99999998245E-14  0.12500000000E+03  0.12500000000E+03 0.  0.
        -13    1    3    3    0    0  0.29424657840E+02  0.32343479629E+02  0.43481176489E+01  0.43941193141E+02  0.10566000000E+00 0.  1.
         23    2    1    0    0    0 -0.17272430787E+02  0.18265732251E+02  0.17395341239E+02  0.94429233952E+02  0.89343765803E+02 0.  0.
         13    1    3    3    0    0 -0.46697088627E+02 -0.14077747378E+02  0.13047223590E+02  0.50488040811E+02  0.10566000000E+00 0. -1.
         22    1    1    0    0    0  0.17272430787E+02 -0.18265732251E+02 -0.17395341239E+02  0.30570766048E+02  0.00000000000E+00 0. -1.
</event>
<event>
 5    1  0.9034917E-005  0.9118800E+02  0.7818608E-02  0.1130116E+00
         25   -1    0    0    0    0  0.00000000000E+00  0.00000000000E+00  0.99999998245E-14  0.12500000000E+03  0.12500000000E+03 0.  0.
        -13    1    3    3    0    0 -0.31873467584E+02  0.68637010866E+00 -0.47227648072E+02  0.56981145533E+02  0.10566000000E+00 0.  1.
         23    2    1    0    0    0 -0.23630807448E+02 -0.11758878367E+02 -0.10559665214E+02  0.96571267870E+02  0.92292020063E+02 0.  0.
         13    1    3    3    0    0  0.82426601355E+01 -0.12445248475E+02  0.36667982858E+02  0.39590122337E+02  0.10566000000E+00 0. -1.
         22    1    1    0    0    0  0.23630807448E+02  0.11758878367E+02  0.10559665214E+02  0.28428732130E+02  0.00000000000E+00 0.  1.
</event>
<event>
 5    1  0.9034917E-005  0.9118800E+02  0.7818608E-02  0.1130116E+00
         25   -1    0    0    0    0  0.00000000000E+00  0.00000000000E+00  0.99999998245E-14  0.12500000000E+03  0.12500000000E+03 0.  0.
        -13    1    3    3    0    0 -0.92980319664E+01 -0.28985506902E+02  0.22738738319E+02  0.37995715458E+02  0.10566000000E+00 0. -1.
         23    2    1    0    0    0 -0.17490340158E+02  0.38422813715E+01 -0.23601768164E+02  0.95373684241E+02  0.90655507611E+02 0.  0.
         13    1    3    3    0    0 -0.81923081917E+01  0.32827788273E+02 -0.46340506483E+02  0.57377968782E+02  0.10566000000E+00 0.  1.
         22    1    1    0    0    0  0.17490340158E+02 -0.38422813715E+01  0.23601768164E+02  0.29626315759E+02  0.00000000000E+00 0.  1.
</event>
<event>
 5    1  0.9034917E-005  0.9118800E+02  0.7818608E-02  0.1130116E+00
         25   -1    0    0    0    0  0.00000000000E+00  0.00000000000E+00  0.99999998245E-14  0.12500000000E+03  0.12500000000E+03 0.  0.
        -13    1    3    3    0    0  0.34507497875E+02 -0.30336681352E+02 -0.10430755437E+02  0.47115745437E+02  0.10566000000E+00 0.  1.
         23    2    1    0    0    0  0.33600558774E+02  0.50564736014E+01  0.11926448907E+02  0.88988812033E+02  0.81376919383E+02 0.  0.
         13    1    3    3    0    0 -0.90693910107E+00  0.35393154953E+02  0.22357204344E+02  0.41873066596E+02  0.10566000000E+00 0. -1.
         22    1    1    0    0    0 -0.33600558774E+02 -0.50564736014E+01 -0.11926448907E+02  0.36011187967E+02  0.00000000000E+00 0.  1.
</event>
<event>
 5    1  0.9034917E-005  0.9118800E+02  0.7818608E-02  0.1130116E+00
         25   -1    0    0    0    0  0.00000000000E+00  0.00000000000E+00  0.99999998245E-14  0.12500000000E+03  0.12500000000E+03 0.  0.
        -13    1    3    3    0    0 -0.15186985146E+02 -0.55911345749E+02  0.16738293516E+02  0.60306755302E+02  0.10566000000E+00 0. -1.
         23    2    1    0    0    0 -0.60258504997E+01 -0.27659645012E+02 -0.38300482977E+01  0.96433654305E+02  0.92105448135E+02 0.  0.
         13    1    3    3    0    0  0.91611346460E+01  0.28251700737E+02 -0.20568341813E+02  0.36126899002E+02  0.10566000000E+00 0.  1.
         22    1    1    0    0    0  0.60258504997E+01  0.27659645012E+02  0.38300482977E+01  0.28566345695E+02  0.00000000000E+00 0. -1.
</event>
<event>
 5    1  0.9034917E-005  0.9118800E+02  0.7818608E-02  0.1130116E+00
         25   -1    0    0    0    0  0.00000000000E+00  0.00000000000E+00  0.99999998245E-14  0.12500000000E+03  0.12500000000E+03 0.  0.
        -13    1    3    3    0    0 -0.26632519181E+02  0.33756586207E+02 -0.89751580987E+01  0.43924512715E+02  0.10566000000E+00 0.  1.
         23    2    1    0    0    0  0.22469795251E+02  0.17258998246E+02  0.87891631836E+00  0.96653268037E+02  0.92403014070E+02 0.  0.
         13    1    3    3    0    0  0.49102314433E+02 -0.16497587961E+02  0.98540744171E+01  0.52728755322E+02  0.10566000000E+00 0. -1.
         22    1    1    0    0    0 -0.22469795251E+02 -0.17258998246E+02 -0.87891631836E+00  0.28346731963E+02  0.00000000000E+00 0.  1.
</event>
<event>
 5    1  0.9034917E-005  0.9118800E+02  0.7818608E-02  0.1130116E+00
         25   -1    0    0    0    0  0.00000000000E+00  0.00000000000E+00  0.99999998245E-14  0.12500000000E+03  0.12500000000E+03 0.  0.
        -13    1    3    3    0    0  0.16368753392E+02  0.19599056547E+02  0.25642633082E+02  0.36188601804E+02  0.10566000000E+00 0. -1.
         23    2    1    0    0    0 -0.25195551772E+01 -0.30410672527E+02  0.26864589938E+01  0.94367105527E+02  0.89256800199E+02 0.  0.
         13    1    3    3    0    0 -0.18888308569E+02 -0.50009729074E+02 -0.22956174088E+02  0.58178503723E+02  0.10566000000E+00 0.  1.
         22    1    1    0    0    0  0.25195551772E+01  0.30410672527E+02 -0.26864589938E+01  0.30632894473E+02  0.00000000000E+00 0.  1.
</event>
<event>
 5    1  0.9034917E-005  0.9118800E+02  0.7818608E-02  0.1130116E+00
         25   -1    0    0    0    0  0.00000000000E+00  0.00000000000E+00  0.99999998245E-14  0.12500000000E+03  0.12500000000E+03 0.  0.
        -13    1    3    3    0    0  0.69573734239E+01  0.18547614651E+02  0.56635507959E+02  0.60000091500E+02  0.10566000000E+00 0.  1.
         23    2    1    0    0    0  0.11621142721E+02  0.17946667388E+02  0.24480644762E+02  0.92497141718E+02  0.86598414706E+02 0.  0.
         13    1    3    3    0    0  0.46637692975E+01 -0.60094726253E+00 -0.32154863197E+02  0.32497050219E+02  0.10566000000E+00 0. -1.
         22    1    1    0    0    0 -0.11621142721E+02 -0.17946667388E+02 -0.24480644762E+02  0.32502858282E+02  0.00000000000E+00 0.  1.
</event>
<event>
 5    1  0.9034917E-005  0.9118800E+02  0.7818608E-02  0.1130116E+00
         25   -1    0    0    0    0  0.00000000000E+00  0.00000000000E+00  0.99999998245E-14  0.12500000000E+03  0.12500000000E+03 0.  0.
        -13    1    3    3    0    0  0.49959244118E+01 -0.33826120478E+02 -0.37514893521E+02  0.50759669889E+02  0.10566000000E+00 0. -1.
         23    2    1    0    0    0 -0.62636565626E+01  0.95922755339E+01 -0.25267949116E+02  0.97256272854E+02  0.93215171584E+02 0.  0.
         13    1    3    3    0    0 -0.11259580974E+02  0.43418396012E+02  0.12246944406E+02  0.46496602965E+02  0.10566000000E+00 0.  1.
         22    1    1    0    0    0  0.62636565626E+01 -0.95922755339E+01  0.25267949116E+02  0.27743727146E+02  0.00000000000E+00 0. -1.
</event>
<event>
 5    1  0.9034917E-005  0.9118800E+02  0.7818608E-02  0.1130116E+00
         25   -1    0    0    0    0  0.00000000000E+00  0.00000000000E+00  0.99999998245E-14  0.12500000000E+03  0.12500000000E+03 0.  0.
        -13    1    3    3    0    0 -0.37260606672E+01 -0.22422519018E+02  0.25224822944E+02  0.33955202013E+02  0.10566000000E+00 0.  1.
         23    2    1    0    0    0 -0.12032869547E+01  0.18483545537E+02 -0.21839789534E+02  0.96363209643E+02  0.92009795188E+02 0.  0.
         13    1    3    3    0    0  0.25227737124E+01  0.40906064554E+02 -0.47064612477E+02  0.62408007629E+02  0.10566000000E+00 0. -1.
         22    1    1    0    0    0  0.12032869547E+01 -0.18483545537E+02  0.21839789534E+02  0.28636790357E+02  0.00000000000E+00 0. -1.
</event>
<event>
 5    1  0.9034917E-005  0.9118800E+02  0.7818608E-02  0.1130116E+00
         25   -1    0    0    0    0  0.00000000000E+00  0.00000000000E+00  0.99999998245E-14  0.12500000000E+03  0.12500000000E+03 0.  0.
        -13    1    3    3    0    0 -0.34215609067E+02  0.16841496308E+02 -0.35980299678E+02  0.52430306414E+02  0.10566000000E+00 0.  1.
         23    2    1    0    0    0 -0.27194767943E+02  0.95864387316E+01  0.59487174758E+01  0.95557811721E+02  0.90909036571E+02 0.  0.
         13    1    3    3    0    0  0.70208411234E+01 -0.72550575760E+01  0.41929017154E+02  0.43127505307E+02  0.10566000000E+00 0. -1.
         22    1    1    0    0    0  0.27194767943E+02 -0.95864387316E+01 -0.59487174758E+01  0.29442188279E+02  0.00000000000E+00 0.  1.
</event>
<event>
 5    1  0.9034917E-005  0.9118800E+02  0.7818608E-02  0.1130116E+00
         25   -1    0    0    0    0  0.00000000000E+00  0.00000000000E+00  0.99999998245E-14  0.12500000000E+03  0.12500000000E+03 0.  0.
        -13    1    3    3    0    0 -0.40711284132E+02 -0.45466497025E+02 -0.31875980355E+01  0.61112870598E+02  0.10566000000E+00 0. -1.
         23    2    1    0    0    0 -0.23734279541E+02 -0.12763326074E+02 -0.74059196169E+00  0.98041383673E+02  0.94262112847E+02 0.  0.
         13    1    3    3    0    0  0.16977004591E+02  0.32703170952E+02  0.24470060738E+01  0.36928513075E+02  0.10566000000E+00 0.  1.
         22    1    1    0    0    0  0.23734279541E+02  0.12763326074E+02  0.74059196169E+00  0.26958616327E+02  0.00000000000E+00 0. -1.
</event>
<event>
 5    1  0.9034917E-005  0.9118800E+02  0.7818608E-02  0.1130116E+00
         25   -1    0    0    0    0  0.00000000000E+00  0.00000000000E+00  0.99999998245E-14  0.12500000000E+03  0.12500000000E+03 0.  0.
        -13    1    3    3    0    0 -0.38637144680E+02 -0.25434622750E+02 -0.24461749762E+02  0.52327214228E+02  0.10566000000E+00 0.  1.
         23    2    1    0    0    0  0.13549718600E+01 -0.11242417399E+02 -0.27887561903E+02  0.94901096256E+02  0.90001522565E+02 0.  0.
         13    1    3    3    0    0  0.39992116540E+02  0.14192205351E+02 -0.34258121405E+01  0.42573882028E+02  0.10566000000E+00 0. -1.
         22    1    1    0    0    0 -0.13549718600E+01  0.11242417399E+02  0.27887561903E+02  0.30098903744E+02  0.00000000000E+00 0.  1.
</event>
<event>
 5    1  0.9034917E-005  0.9118800E+02  0.7818608E-02  0.1130116E+00
         25   -1    0    0    0    0  0.00000000000E+00  0.00000000000E+00  0.99999998245E-14  0.12500000000E+03  0.12500000000E+03 0.  0.
        -13    1    3    3    0    0 -0.30348782262E+02  0.71254748578E+01 -0.40307054102E+02  0.50955772501E+02  0.10566000000E+00 0.  1.
         23    2    1    0    0    0 -0.16259746978E+02 -0.14789448615E+02  0.42902443292E+01  0.10260550607E+03  0.10013179573E+03 0.  0.
         13    1    3    3    0    0  0.14089035284E+02 -0.21914923473E+02  0.44597298431E+02  0.51649733566E+02  0.10566000000E+00 0. -1.
         22    1    1    0    0    0  0.16259746978E+02  0.14789448615E+02 -0.42902443292E+01  0.22394493933E+02  0.00000000000E+00 0. -1.
</event>
<event>
 5    1  0.9034917E-005  0.9118800E+02  0.7818608E-02  0.1130116E+00
         25   -1    0    0    0    0  0.00000000000E+00  0.00000000000E+00  0.99999998245E-14  0.12500000000E+03  0.12500000000E+03 0.  0.
        -13    1    3    3    0    0 -0.38092576446E+02 -0.12075929225E+02  0.11839463463E+02  0.41678009862E+02  0.10566000000E+00 0.  1.
         23    2    1    0    0    0  0.18066313288E+02 -0.16572109312E+02  0.11265631273E+02  0.98019619520E+02  0.94233247212E+02 0.  0.
         13    1    3    3    0    0  0.56158889733E+02 -0.44961800874E+01 -0.57383219045E+00  0.56341609658E+02  0.10566000000E+00 0. -1.
         22    1    1    0    0    0 -0.18066313288E+02  0.16572109312E+02 -0.11265631273E+02  0.26980380480E+02  0.00000000000E+00 0. -1.
</event>
<event>
 5    1  0.9034917E-005  0.9118800E+02  0.7818608E-02  0.1130116E+00
         25   -1    0    0    0    0  0.00000000000E+00  0.00000000000E+00  0.99999998245E-14  0.12500000000E+03  0.12500000000E+03 0.  0.
        -13    1    3    3    0    0  0.19436002856E+02 -0.11049965878E+02  0.20770257603E+02  0.30516794030E+02  0.10566000000E+00 0. -1.
         23    2    1    0    0    0  0.87231535836E+01  0.39187599722E+02  0.35369602840E+01  0.84697748593E+02  0.74494544420E+02 0.  0.
         13    1    3    3    0    0 -0.10712849273E+02  0.50237565599E+02 -0.17233297319E+02  0.54180954564E+02  0.10566000000E+00 0.  1.
         22    1    1    0    0    0 -0.87231535836E+01 -0.39187599722E+02 -0.35369602840E+01  0.40302251407E+02  0.00000000000E+00 0.  1.
</event>
<event>
 5    1  0.9034917E-005  0.9118800E+02  0.7818608E-02  0.1130116E+00
         25   -1    0    0    0    0  0.00000000000E+00  0.00000000000E+00  0.99999998245E-14  0.12500000000E+03  0.12500000000E+03 0.  0.
        -13    1    3    3    0    0 -0.14916950889E-01  0.40913387437E+02  0.16473621359E+02  0.44105519596E+02  0.10566000000E+00 0. -1.
         23    2    1    0    0    0  0.21756576447E+02  0.63338775692E+01 -0.16791886843E+02  0.96796558943E+02  0.92596650780E+02 0.  0.
         13    1    3    3    0    0  0.21771493398E+02 -0.34579509868E+02 -0.33265508202E+02  0.52691039347E+02  0.10566000000E+00 0.  1.
         22    1    1    0    0    0 -0.21756576447E+02 -0.63338775692E+01  0.16791886843E+02  0.28203441057E+02  0.00000000000E+00 0.  1.
</event>
<event>
 5    1  0.9034917E-005  0.9118800E+02  0.7818608E-02  0.1130116E+00
         25   -1    0    0    0    0  0.00000000000E+00  0.00000000000E+00  0.99999998245E-14  0.12500000000E+03  0.12500000000E+03 0.  0.
        -13    1    3    3    0    0 -0.27488206453E+02 -0.24834300256E+02 -0.19195853758E+02  0.41723325955E+02  0.10566000000E+00 0.  1.
         23    2    1    0    0    0 -0.10868139008E+02  0.25616035817E+02 -0.47383540892E+01  0.96773244325E+02  0.92565172074E+02 0.  0.
         13    1    3    3    0    0  0.16620067444E+02  0.50450336073E+02  0.14457499669E+02  0.55049918370E+02  0.10566000000E+00 0. -1.
         22    1    1    0    0    0  0.10868139008E+02 -0.25616035817E+02  0.47383540892E+01  0.28226755675E+02  0.00000000000E+00 0. -1.
</event>
<event>
 5    1  0.9034917E-005  0.9118800E+02  0.7818608E-02  0.1130116E+00
         25   -1    0    0    0    0  0.00000000000E+00  0.00000000000E+00  0.99999998245E-14  0.12500000000E+03  0.12500000000E+03 0.  0.
        -13    1    3    3    0    0  0.15993009476E+02 -0.24286790548E+02 -0.47729526549E+02  0.55890459078E+02  0.10566000000E+00 0.  1.
         23    2    1    0    0    0  0.24565755455E+02 -0.43351257629E+01 -0.12947908041E+02  0.96894520479E+02  0.92728798762E+02 0.  0.
         13    1    3    3    0    0  0.85727459790E+01  0.19951664786E+02  0.34781618509E+02  0.41004061402E+02  0.10566000000E+00 0. -1.
         22    1    1    0    0    0 -0.24565755455E+02  0.43351257629E+01  0.12947908041E+02  0.28105479521E+02  0.00000000000E+00 0.  1.
</event>
<event>
 5    1  0.9034917E-005  0.9118800E+02  0.7818608E-02  0.1130116E+00
         25   -1    0    0    0    0  0.00000000000E+00  0.00000000000E+00  0.99999998245E-14  0.12500000000E+03  0.12500000000E+03 0.  0.
        -13    1    3    3    0    0 -0.44608586375E+02 -0.17883635876E+02  0.33659901150E+02  0.58674956498E+02  0.10566000000E+00 0.  1.
         23    2    1    0    0    0 -0.16416294470E+02 -0.21887344407E+02  0.94395792377E+01  0.96057708704E+02  0.91593816254E+02 0.  0.
         13    1    3    3    0    0  0.28192291905E+02 -0.40037085307E+01 -0.24220321913E+02  0.37382752206E+02  0.10566000000E+00 0. -1.
         22    1    1    0    0    0  0.16416294470E+02  0.21887344407E+02 -0.94395792377E+01  0.28942291296E+02  0.00000000000E+00 0.  1.
</event>
<event>
 5    1  0.9034917E-005  0.9118800E+02  0.7818608E-02  0.1130116E+00
         25   -1    0    0    0    0  0.00000000000E+00  0.00000000000E+00  0.99999998245E-14  0.12500000000E+03  0.12500000000E+03 0.  0.
        -13    1    3    3    0    0  0.17810164863E+02  0.72175383583E+01 -0.30693244718E+02  0.36212998602E+02  0.10566000000E+00 0.  1.
         23    2    1    0    0    0 -0.19288643740E+02  0.13478104633E+02  0.16272617971E+02  0.96390400607E+02  0.92046728088E+02 0.  0.
         13    1    3    3    0    0 -0.37098808603E+02  0.62605662746E+01  0.46965862689E+02  0.60177402004E+02  0.10566000000E+00 0. -1.
         22    1    1    0    0    0  0.19288643740E+02 -0.13478104633E+02 -0.16272617971E+02  0.28609599393E+02  0.00000000000E+00 0. -1.
</event>
<event>
 5    1  0.9034917E-005  0.9118800E+02  0.7818608E-02  0.1130116E+00
         25   -1    0    0    0    0  0.00000000000E+00  0.00000000000E+00  0.99999998245E-14  0.12500000000E+03  0.12500000000E+03 0.  0.
        -13    1    3    3    0    0 -0.42901457017E+02 -0.13273407295E+02 -0.37770623593E+02  0.58680060720E+02  0.10566000000E+00 0.  1.
         23    2    1    0    0    0 -0.82656566240E+01 -0.15496174044E+02 -0.22127519171E+02  0.96749697451E+02  0.92533368915E+02 0.  0.
         13    1    3    3    0    0  0.34635800393E+02 -0.22227667486E+01  0.15643104422E+02  0.38069636732E+02  0.10566000000E+00 0. -1.
         22    1    1    0    0    0  0.82656566240E+01  0.15496174044E+02  0.22127519171E+02  0.28250302549E+02  0.00000000000E+00 0.  1.
</event>
<event>
 5    1  0.9034917E-005  0.9118800E+02  0.7818608E-02  0.1130116E+00
         25   -1    0    0    0    0  0.00000000000E+00  0.00000000000E+00  0.99999998245E-14  0.12500000000E+03  0.12500000000E+03 0.  0.
        -13    1    3    3    0    0 -0.36754832991E+02 -0.11476014699E+02 -0.10292282260E+02  0.39856729667E+02  0.10566000000E+00 0. -1.
         23    2    1    0    0    0 -0.26347404286E+01  0.16443201881E+00  0.30551176812E+02  0.94334982478E+02  0.89211802019E+02 0.  0.
         13    1    3    3    0    0  0.34120092562E+02  0.11640446718E+02  0.40843459073E+02  0.54478252811E+02  0.10566000000E+00 0.  1.
         22    1    1    0    0    0  0.26347404286E+01 -0.16443201881E+00 -0.30551176812E+02  0.30665017522E+02  0.00000000000E+00 0. -1.
</event>
<event>
 5    1  0.9034917E-005  0.9118800E+02  0.7818608E-02  0.1130116E+00
         25   -1    0    0    0    0  0.00000000000E+00  0.00000000000E+00  0.99999998245E-14  0.12500000000E+03  0.12500000000E+03 0.  0.
        -13    1    3    3    0    0  0.15515419166E+02 -0.24387973803E+02  0.15505166976E+00  0.28905651751E+02  0.10566000000E+00 0. -1.
         23    2    1    0    0    0 -0.38367247776E+01  0.38975616080E+01 -0.41666407792E+02  0.82976185540E+02  0.71547511382E+02 0.  0.
         13    1    3    3    0    0 -0.19352143943E+02  0.28285535411E+02 -0.41821459462E+02  0.54070533789E+02  0.10566000000E+00 0.  1.
         22    1    1    0    0    0  0.38367247776E+01 -0.38975616080E+01  0.41666407792E+02  0.42023814460E+02  0.00000000000E+00 0.  1.
</event>
<event>
 5    1  0.9034917E-005  0.9118800E+02  0.7818608E-02  0.1130116E+00
         25   -1    0    0    0    0  0.00000000000E+00  0.00000000000E+00  0.99999998245E-14  0.12500000000E+03  0.12500000000E+03 0.  0.
        -13    1    3    3    0    0 -0.54740768313E+01 -0.31211617925E+02  0.16802365660E+02  0.35867272917E+02  0.10566000000E+00 0.  1.
         23    2    1    0    0    0  0.22877786247E+02  0.14362126179E+02 -0.10418074924E+02  0.96048315126E+02  0.91580995744E+02 0.  0.
         13    1    3    3    0    0  0.28351863078E+02  0.45573744104E+02 -0.27220440585E+02  0.60181042209E+02  0.10566000000E+00 0. -1.
         22    1    1    0    0    0 -0.22877786247E+02 -0.14362126179E+02  0.10418074924E+02  0.28951684874E+02  0.00000000000E+00 0. -1.
</event>
<event>
 5    1  0.9034917E-005  0.9118800E+02  0.7818608E-02  0.1130116E+00
         25   -1    0    0    0    0  0.00000000000E+00  0.00000000000E+00  0.99999998245E-14  0.12500000000E+03  0.12500000000E+03 0.  0.
        -13    1    3    3    0    0  0.43923065319E+02  0.29060786911E+02  0.30349682267E+02  0.60785519498E+02  0.10566000000E+00 0. -1.
         23    2    1    0    0    0  0.15352074599E+02  0.10669712365E+02  0.22659446706E+02  0.95623487588E+02  0.90999296135E+02 0.  0.
         13    1    3    3    0    0 -0.28570990719E+02 -0.18391074546E+02 -0.76902355603E+01  0.34837968090E+02  0.10566000000E+00 0.  1.
         22    1    1    0    0    0 -0.15352074599E+02 -0.10669712365E+02 -0.22659446706E+02  0.29376512412E+02  0.00000000000E+00 0. -1.
</event>
<event>
 5    1  0.9034917E-005  0.9118800E+02  0.7818608E-02  0.1130116E+00
         25   -1    0    0    0    0  0.00000000000E+00  0.00000000000E+00  0.99999998245E-14  0.12500000000E+03  0.12500000000E+03 0.  0.
        -13    1    3    3    0    0 -0.19744229922E+02 -0.83170780463E+01  0.58698854574E+02  0.62486599321E+02  0.10566000000E+00 0. -1.
         23    2    1    0    0    0 -0.84545763214E+01 -0.41508727572E+01  0.27899687042E+02  0.95553401852E+02  0.90902972796E+02 0.  0.
         13    1    3    3    0    0  0.11289653600E+02  0.41662052891E+01 -0.30799167532E+02  0.33066802531E+02  0.10566000000E+00 0.  1.
         22    1    1    0    0    0  0.84545763214E+01  0.41508727572E+01 -0.27899687042E+02  0.29446598148E+02  0.00000000000E+00 0. -1.
</event>
<event>
 5    1  0.9034917E-005  0.9118800E+02  0.7818608E-02  0.1130116E+00
         25   -1    0    0    0    0  0.00000000000E+00  0.00000000000E+00  0.99999998245E-14  0.12500000000E+03  0.12500000000E+03 0.  0.
        -13    1    3    3    0    0 -0.12844686923E+02  0.73565932398E+01  0.42413103379E+02  0.44922020753E+02  0.10566000000E+00 0. -1.
         23    2    1    0    0    0 -0.13382669217E+00 -0.28353116747E+02  0.95730541141E+01  0.95074083073E+02  0.90241458145E+02 0.  0.
         13    1    3    3    0    0  0.12710860231E+02 -0.35709709987E+02 -0.32840049265E+02  0.50152062320E+02  0.10566000000E+00 0.  1.
         22    1    1    0    0    0  0.13382669217E+00  0.28353116747E+02 -0.95730541141E+01  0.29925916927E+02  0.00000000000E+00 0. -1.
</event>
<event>
 5    1  0.9034917E-005  0.9118800E+02  0.7818608E-02  0.1130116E+00
         25   -1    0    0    0    0  0.00000000000E+00  0.00000000000E+00  0.99999998245E-14  0.12500000000E+03  0.12500000000E+03 0.  0.
        -13    1    3    3    0    0 -0.28843828119E+02 -0.21307308776E+02  0.66509339922E+01  0.36472097758E+02  0.10566000000E+00 0. -1.
         23    2    1    0    0    0  0.15840962750E+01  0.15531049974E+02 -0.26231947119E+02  0.94473979559E+02  0.89406347033E+02 0.  0.
         13    1    3    3    0    0  0.30427924394E+02  0.36838358750E+02 -0.32882881111E+02  0.58001881802E+02  0.10566000000E+00 0.  1.
         22    1    1    0    0    0 -0.15840962750E+01 -0.15531049974E+02  0.26231947119E+02  0.30526020441E+02  0.00000000000E+00 0.  1.
</event>
<event>
 5    1  0.9034917E-005  0.9118800E+02  0.7818608E-02  0.1130116E+00
         25   -1    0    0    0    0  0.00000000000E+00  0.00000000000E+00  0.99999998245E-14  0.12500000000E+03  0.12500000000E+03 0.  0.
        -13    1    3    3    0    0  0.49864557225E+02 -0.34310856664E+01 -0.23888731065E+01  0.50039627245E+02  0.10566000000E+00 0.  1.
         23    2    1    0    0    0  0.14598651693E+02  0.25404444359E+02 -0.24921936130E+01  0.95593921488E+02  0.90958673979E+02 0.  0.
         13    1    3    3    0    0 -0.35265905532E+02  0.28835530025E+02 -0.10332050645E+00  0.45554294243E+02  0.10566000000E+00 0. -1.
         22    1    1    0    0    0 -0.14598651693E+02 -0.25404444359E+02  0.24921936130E+01  0.29406078512E+02  0.00000000000E+00 0.  1.
</event>
<event>
 5    1  0.9034917E-005  0.9118800E+02  0.7818608E-02  0.1130116E+00
         25   -1    0    0    0    0  0.00000000000E+00  0.00000000000E+00  0.99999998245E-14  0.12500000000E+03  0.12500000000E+03 0.  0.
        -13    1    3    3    0    0 -0.25076637975E+02  0.10793994325E+02 -0.41964681171E+02  0.50063896327E+02  0.10566000000E+00 0.  1.
         23    2    1    0    0    0 -0.17337365316E+01  0.28318427429E+02 -0.66880024377E+01  0.95850925383E+02  0.91311178647E+02 0.  0.
         13    1    3    3    0    0  0.23342901443E+02  0.17524433104E+02  0.35276678733E+02  0.45787029057E+02  0.10566000000E+00 0. -1.
         22    1    1    0    0    0  0.17337365316E+01 -0.28318427429E+02  0.66880024377E+01  0.29149074617E+02  0.00000000000E+00 0. -1.
</event>
<event>
 5    1  0.9034917E-005  0.9118800E+02  0.7818608E-02  0.1130116E+00
         25   -1    0    0    0    0  0.00000000000E+00  0.00000000000E+00  0.99999998245E-14  0.12500000000E+03  0.12500000000E+03 0.  0.
        -13    1    3    3    0    0  0.10897081254E+02  0.32079237056E+02  0.35990962617E+01  0.34070346167E+02  0.10566000000E+00 0.  1.
         23    2    1    0    0    0  0.67151950634E+01 -0.26996708895E+02 -0.11029259450E+02  0.95074079798E+02  0.90241453610E+02 0.  0.
         13    1    3    3    0    0 -0.41818861905E+01 -0.59075945951E+02 -0.14628355711E+02  0.61003733632E+02  0.10566000000E+00 0. -1.
         22    1    1    0    0    0 -0.67151950634E+01  0.26996708895E+02  0.11029259450E+02  0.29925920202E+02  0.00000000000E+00 0. -1.
</event>
<event>
 5    1  0.9034917E-005  0.9118800E+02  0.7818608E-02  0.1130116E+00
         25   -1    0    0    0    0  0.00000000000E+00  0.00000000000E+00  0.99999998245E-14  0.12500000000E+03  0.12500000000E+03 0.  0.
        -13    1    3    3    0    0  0.28300662179E+02 -0.42478895593E+02 -0.67505539115E+01  0.51487524632E+02  0.10566000000E+00 0. -1.
         23    2    1    0    0    0 -0.69118162764E+01 -0.21149765623E+02 -0.20352689469E+02  0.94845103901E+02  0.89923723094E+02 0.  0.
         13    1    3    3    0    0 -0.35212478455E+02  0.21329129970E+02 -0.13602135558E+02  0.43357579268E+02  0.10566000000E+00 0.  1.
         22    1    1    0    0    0  0.69118162764E+01  0.21149765623E+02  0.20352689469E+02  0.30154896099E+02  0.00000000000E+00 0. -1.
</event>
<event>
 5    1  0.9034917E-005  0.9118800E+02  0.7818608E-02  0.1130116E+00
         25   -1    0    0    0    0  0.00000000000E+00  0.00000000000E+00  0.99999998245E-14  0.12500000000E+03  0.12500000000E+03 0.  0.
        -13    1    3    3    0    0  0.51970213317E+01  0.43299096052E+02 -0.66033287676E+01  0.44107095399E+02  0.10566000000E+00 0. -1.
         23    2    1    0    0    0  0.29696081727E+02 -0.12987549812E+01 -0.31741775401E+01  0.95106531859E+02  0.90286394128E+02 0.  0.
         13    1    3    3    0    0  0.24499060396E+02 -0.44597851033E+02  0.34291512274E+01  0.50999436460E+02  0.10566000000E+00 0.  1.
         22    1    1    0    0    0 -0.29696081727E+02  0.12987549812E+01  0.31741775401E+01  0.29893468141E+02  0.00000000000E+00 0. -1.
</event>
<event>
 5    1  0.9034917E-005  0.9118800E+02  0.7818608E-02  0.1130116E+00
         25   -1    0    0    0    0  0.00000000000E+00  0.00000000000E+00  0.99999998245E-14  0.12500000000E+03  0.12500000000E+03 0.  0.
        -13    1    3    3    0    0  0.39250478076E+02  0.42166851210E+02 -0.14471479725E+02  0.59397628401E+02  0.10566000000E+00 0.  1.
         23    2    1    0    0    0  0.15817770188E+02  0.22019581612E+02  0.69645301930E+01  0.97007706258E+02  0.92881249801E+02 0.  0.
         13    1    3    3    0    0 -0.23432707888E+02 -0.20147269598E+02  0.21436009918E+02  0.37610077858E+02  0.10566000000E+00 0. -1.
         22    1    1    0    0    0 -0.15817770188E+02 -0.22019581612E+02 -0.69645301930E+01  0.27992293742E+02  0.00000000000E+00 0. -1.
</event>
<event>
 5    1  0.9034917E-005  0.9118800E+02  0.7818608E-02  0.1130116E+00
         25   -1    0    0    0    0  0.00000000000E+00  0.00000000000E+00  0.99999998245E-14  0.12500000000E+03  0.12500000000E+03 0.  0.
        -13    1    3    3    0    0  0.23238919595E+02  0.15321811898E+02 -0.38641037979E+02  0.47622959630E+02  0.10566000000E+00 0.  1.
         23    2    1    0    0    0 -0.45897677994E+01 -0.20054352170E+02 -0.19895028398E+02  0.96380860174E+02  0.92033771212E+02 0.  0.
         13    1    3    3    0    0 -0.27828687395E+02 -0.35376164068E+02  0.18746009580E+02  0.48757900544E+02  0.10566000000E+00 0. -1.
         22    1    1    0    0    0  0.45897677994E+01  0.20054352170E+02  0.19895028398E+02  0.28619139826E+02  0.00000000000E+00 0.  1.
</event>
<event>
 5    1  0.9034917E-005  0.9118800E+02  0.7818608E-02  0.1130116E+00
         25   -1    0    0    0    0  0.00000000000E+00  0.00000000000E+00  0.99999998245E-14  0.12500000000E+03  0.12500000000E+03 0.  0.
        -13    1    3    3    0    0 -0.87816962468E+01  0.30886100620E+02  0.39442580882E+02  0.50860571675E+02  0.10566000000E+00 0.  1.
         23    2    1    0    0    0  0.19652516781E+02  0.27765378817E+01  0.24322086694E+02  0.93607413621E+02  0.88186469514E+02 0.  0.
         13    1    3    3    0    0  0.28434213027E+02 -0.28109562738E+02 -0.15120494188E+02  0.42746841946E+02  0.10566000000E+00 0. -1.
         22    1    1    0    0    0 -0.19652516781E+02 -0.27765378817E+01 -0.24322086694E+02  0.31392586379E+02  0.00000000000E+00 0.  1.
</event>
<event>
 5    1  0.9034917E-005  0.9118800E+02  0.7818608E-02  0.1130116E+00
         25   -1    0    0    0    0  0.00000000000E+00  0.00000000000E+00  0.99999998245E-14  0.12500000000E+03  0.12500000000E+03 0.  0.
        -13    1    3    3    0    0 -0.16215735325E+02 -0.38418555594E+02 -0.66411695108E+01  0.42226197822E+02  0.10566000000E+00 0. -1.
         23    2    1    0    0    0  0.25093245543E+02 -0.66140824087E+01  0.10353787667E+02  0.97060458539E+02  0.92952216944E+02 0.  0.
         13    1    3    3    0    0  0.41308980867E+02  0.31804473185E+02  0.16994957178E+02  0.54834260717E+02  0.10566000000E+00 0.  1.
         22    1    1    0    0    0 -0.25093245543E+02  0.66140824087E+01 -0.10353787667E+02  0.27939541461E+02  0.00000000000E+00 0.  1.
</event>
<event>
 5    1  0.9034917E-005  0.9118800E+02  0.7818608E-02  0.1130116E+00
         25   -1    0    0    0    0  0.00000000000E+00  0.00000000000E+00  0.99999998245E-14  0.12500000000E+03  0.12500000000E+03 0.  0.
        -13    1    3    3    0    0 -0.16198466136E+02 -0.49782915327E+02 -0.31610552445E+02  0.61155270857E+02  0.10566000000E+00 0. -1.
         23    2    1    0    0    0 -0.35472501852E+01 -0.24830728660E+02 -0.57205056540E+01  0.99273121942E+02  0.95881596177E+02 0.  0.
         13    1    3    3    0    0  0.12651215951E+02  0.24952186667E+02  0.25890046791E+02  0.38117851085E+02  0.10566000000E+00 0.  1.
         22    1    1    0    0    0  0.35472501852E+01  0.24830728660E+02  0.57205056540E+01  0.25726878058E+02  0.00000000000E+00 0. -1.
</event>
<event>
 5    1  0.9034917E-005  0.9118800E+02  0.7818608E-02  0.1130116E+00
         25   -1    0    0    0    0  0.00000000000E+00  0.00000000000E+00  0.99999998245E-14  0.12500000000E+03  0.12500000000E+03 0.  0.
        -13    1    3    3    0    0 -0.47086655753E+02  0.99177622831E+01  0.10235906592E+02  0.49196545676E+02  0.10566000000E+00 0.  1.
         23    2    1    0    0    0 -0.15997640536E+02  0.38601147540E+01 -0.24040251011E+02  0.95866537156E+02  0.91332547807E+02 0.  0.
         13    1    3    3    0    0  0.31089015216E+02 -0.60576475291E+01 -0.34276157602E+02  0.46669991480E+02  0.10566000000E+00 0. -1.
         22    1    1    0    0    0  0.15997640536E+02 -0.38601147540E+01  0.24040251011E+02  0.29133462844E+02  0.00000000000E+00 0.  1.
</event>
<event>
 5    1  0.9034917E-005  0.9118800E+02  0.7818608E-02  0.1130116E+00
         25   -1    0    0    0    0  0.00000000000E+00  0.00000000000E+00  0.99999998245E-14  0.12500000000E+03  0.12500000000E+03 0.  0.
        -13    1    3    3    0    0 -0.34189047247E+02 -0.33224924015E+02  0.59278596814E+01  0.48040995117E+02  0.10566000000E+00 0.  1.
         23    2    1    0    0    0 -0.13013052148E+02 -0.52136557885E+01 -0.25974565577E+02  0.95483906258E+02  0.90807359638E+02 0.  0.
         13    1    3    3    0    0  0.21175995099E+02  0.28011268226E+02 -0.31902425258E+02  0.47442911141E+02  0.10566000000E+00 0. -1.
         22    1    1    0    0    0  0.13013052148E+02  0.52136557885E+01  0.25974565577E+02  0.29516093742E+02  0.00000000000E+00 0. -1.
</event>
<event>
 5    1  0.9034917E-005  0.9118800E+02  0.7818608E-02  0.1130116E+00
         25   -1    0    0    0    0  0.00000000000E+00  0.00000000000E+00  0.99999998245E-14  0.12500000000E+03  0.12500000000E+03 0.  0.
        -13    1    3    3    0    0  0.94257434549E+01  0.26434249309E+02 -0.18245616000E+02  0.33474286302E+02  0.10566000000E+00 0. -1.
         23    2    1    0    0    0 -0.17855469214E+01 -0.24885446354E+02  0.15234944527E+02  0.95766848395E+02  0.91196009226E+02 0.  0.
         13    1    3    3    0    0 -0.11211290376E+02 -0.51319695662E+02  0.33480560527E+02  0.62292562092E+02  0.10566000000E+00 0.  1.
         22    1    1    0    0    0  0.17855469214E+01  0.24885446354E+02 -0.15234944527E+02  0.29233151605E+02  0.00000000000E+00 0.  1.
</event>
<event>
 5    1  0.9034917E-005  0.9118800E+02  0.7818608E-02  0.1130116E+00
         25   -1    0    0    0    0  0.00000000000E+00  0.00000000000E+00  0.99999998245E-14  0.12500000000E+03  0.12500000000E+03 0.  0.
        -13    1    3    3    0    0  0.39327840057E+02  0.30263489278E+01  0.20283824456E+02  0.44354058326E+02  0.10566000000E+00 0.  1.
         23    2    1    0    0    0 -0.12265910295E+02 -0.43142760254E+01  0.25143342346E+02  0.96693583814E+02  0.92457535947E+02 0.  0.
         13    1    3    3    0    0 -0.51593750352E+02 -0.73406249532E+01  0.48595178902E+01  0.52339525488E+02  0.10566000000E+00 0. -1.
         22    1    1    0    0    0  0.12265910295E+02  0.43142760254E+01 -0.25143342346E+02  0.28306416186E+02  0.00000000000E+00 0. -1.
</event>
<event>
 5    1  0.9034917E-005  0.9118800E+02  0.7818608E-02  0.1130116E+00
         25   -1    0    0    0    0  0.00000000000E+00  0.00000000000E+00  0.99999998245E-14  0.12500000000E+03  0.12500000000E+03 0.  0.
        -13    1    3    3    0    0  0.23237405534E+02  0.38564847127E+02  0.22442042029E+02  0.50307860860E+02  0.10566000000E+00 0.  1.
         23    2    1    0    0    0 -0.97981967976E+01  0.33921201670E+02  0.15752749360E+01  0.89656909101E+02  0.82396767383E+02 0.  0.
         13    1    3    3    0    0 -0.33035602331E+02 -0.46436454573E+01 -0.20866767093E+02  0.39349048241E+02  0.10566000000E+00 0. -1.
         22    1    1    0    0    0  0.97981967976E+01 -0.33921201670E+02 -0.15752749360E+01  0.35343090899E+02  0.00000000000E+00 0. -1.
</event>
<event>
 5    1  0.9034917E-005  0.9118800E+02  0.7818608E-02  0.1130116E+00
         25   -1    0    0    0    0  0.00000000000E+00  0.00000000000E+00  0.99999998245E-14  0.12500000000E+03  0.12500000000E+03 0.  0.
        -13    1    3    3    0    0 -0.30317929111E+02 -0.32848422062E+02  0.30739839962E+02  0.54250756515E+02  0.10566000000E+00 0. -1.
         23    2    1    0    0    0 -0.41194037338E+01 -0.68067803998E+00  0.28923075815E+02  0.95777113005E+02  0.91210077575E+02 0.  0.
         13    1    3    3    0    0  0.26198525377E+02  0.32167744022E+02 -0.18167641465E+01  0.41526356490E+02  0.10566000000E+00 0.  1.
         22    1    1    0    0    0  0.41194037338E+01  0.68067803998E+00 -0.28923075815E+02  0.29222886995E+02  0.00000000000E+00 0. -1.
</event>
<event>
 5    1  0.9034917E-005  0.9118800E+02  0.7818608E-02  0.1130116E+00
         25   -1    0    0    0    0  0.00000000000E+00  0.00000000000E+00  0.99999998245E-14  0.12500000000E+03  0.12500000000E+03 0.  0.
        -13    1    3    3    0    0 -0.12780635874E+02 -0.33550290843E+02  0.49853892630E+02  0.61436051658E+02  0.10566000000E+00 0. -1.
         23    2    1    0    0    0 -0.12686884806E+01 -0.80113333657E+01  0.24401433091E+02  0.99285782733E+02  0.95898100520E+02 0.  0.
         13    1    3    3    0    0  0.11511947393E+02  0.25538957477E+02 -0.25452459539E+02  0.37849731075E+02  0.10566000000E+00 0.  1.
         22    1    1    0    0    0  0.12686884806E+01  0.80113333657E+01 -0.24401433091E+02  0.25714217267E+02  0.00000000000E+00 0. -1.
</event>
<event>
 5    1  0.9034917E-005  0.9118800E+02  0.7818608E-02  0.1130116E+00
         25   -1    0    0    0    0  0.00000000000E+00  0.00000000000E+00  0.99999998245E-14  0.12500000000E+03  0.12500000000E+03 0.  0.
        -13    1    3    3    0    0  0.13969911748E+02  0.23237976041E+02  0.26997465295E+02  0.38262726786E+02  0.10566000000E+00 0.  1.
         23    2    1    0    0    0 -0.25889798769E+02 -0.12499706659E+02  0.11894329433E+02  0.93887310957E+02  0.88582321821E+02 0.  0.
         13    1    3    3    0    0 -0.39859710516E+02 -0.35737682701E+02 -0.15103135862E+02  0.55624584171E+02  0.10566000000E+00 0. -1.
         22    1    1    0    0    0  0.25889798769E+02  0.12499706659E+02 -0.11894329433E+02  0.31112689043E+02  0.00000000000E+00 0. -1.
</event>
<event>
 5    1  0.9034917E-005  0.9118800E+02  0.7818608E-02  0.1130116E+00
         25   -1    0    0    0    0  0.00000000000E+00  0.00000000000E+00  0.99999998245E-14  0.12500000000E+03  0.12500000000E+03 0.  0.
        -13    1    3    3    0    0 -0.31110550612E+02  0.30691613234E+02 -0.14767049405E+02  0.46129365858E+02  0.10566000000E+00 0.  1.
         23    2    1    0    0    0  0.85608985479E+01 -0.11831684219E+02 -0.14691347519E+02  0.10428494684E+03  0.10220683299E+03 0.  0.
         13    1    3    3    0    0  0.39671449160E+02 -0.42523297454E+02  0.75701885771E-01  0.58155580984E+02  0.10566000000E+00 0. -1.
         22    1    1    0    0    0 -0.85608985479E+01  0.11831684219E+02  0.14691347519E+02  0.20715053158E+02  0.00000000000E+00 0. -1.
</event>
<event>
 5    1  0.9034917E-005  0.9118800E+02  0.7818608E-02  0.1130116E+00
         25   -1    0    0    0    0  0.00000000000E+00  0.00000000000E+00  0.99999998245E-14  0.12500000000E+03  0.12500000000E+03 0.  0.
        -13    1    3    3    0    0  0.72499210689E+01  0.50443991475E+01  0.48626491641E+02  0.49422203225E+02  0.10566000000E+00 0. -1.
         23    2    1    0    0    0 -0.11635847975E+01 -0.25109924854E+02  0.13527506069E+02  0.96454322986E+02  0.92133494162E+02 0.  0.
         13    1    3    3    0    0 -0.84135058664E+01 -0.30154324001E+02 -0.35098985573E+02  0.47032119761E+02  0.10566000000E+00 0.  1.
         22    1    1    0    0    0  0.11635847975E+01  0.25109924854E+02 -0.13527506069E+02  0.28545677014E+02  0.00000000000E+00 0.  1.
</event>
<event>
 5    1  0.9034917E-005  0.9118800E+02  0.7818608E-02  0.1130116E+00
         25   -1    0    0    0    0  0.00000000000E+00  0.00000000000E+00  0.99999998245E-14  0.12500000000E+03  0.12500000000E+03 0.  0.
        -13    1    3    3    0    0 -0.13430586684E+02  0.20051933002E+02  0.42028908899E+02  0.48465462167E+02  0.10566000000E+00 0. -1.
         23    2    1    0    0    0 -0.27827808199E+02  0.71172886867E+01 -0.16383732810E+01  0.96229755399E+02  0.91828311809E+02 0.  0.
         13    1    3    3    0    0 -0.14397221515E+02 -0.12934644316E+02 -0.43667282180E+02  0.47764293232E+02  0.10566000000E+00 0.  1.
         22    1    1    0    0    0  0.27827808199E+02 -0.71172886867E+01  0.16383732810E+01  0.28770244601E+02  0.00000000000E+00 0. -1.
</event>
<event>
 5    1  0.9034917E-005  0.9118800E+02  0.7818608E-02  0.1130116E+00
         25   -1    0    0    0    0  0.00000000000E+00  0.00000000000E+00  0.99999998245E-14  0.12500000000E+03  0.12500000000E+03 0.  0.
        -13    1    3    3    0    0  0.72127655653E+01  0.59870796258E+01 -0.40625235111E+02  0.41692805151E+02  0.10566000000E+00 0.  1.
         23    2    1    0    0    0  0.21475910227E+01  0.26900806396E+02  0.96185287053E+01  0.96350713335E+02  0.91992816750E+02 0.  0.
         13    1    3    3    0    0 -0.50651745426E+01  0.20913726771E+02  0.50243763816E+02  0.54657908184E+02  0.10566000000E+00 0. -1.
         22    1    1    0    0    0 -0.21475910227E+01 -0.26900806396E+02 -0.96185287053E+01  0.28649286665E+02  0.00000000000E+00 0. -1.
</event>
<event>
 5    1  0.9034917E-005  0.9118800E+02  0.7818608E-02  0.1130116E+00
         25   -1    0    0    0    0  0.00000000000E+00  0.00000000000E+00  0.99999998245E-14  0.12500000000E+03  0.12500000000E+03 0.  0.
        -13    1    3    3    0    0  0.26766529006E+02 -0.10479820156E+01  0.26917625373E+02  0.37975190074E+02  0.10566000000E+00 0.  1.
         23    2    1    0    0    0 -0.21931318602E+01  0.22480605121E+02 -0.17819045299E+02  0.96230123230E+02  0.91828812513E+02 0.  0.
         13    1    3    3    0    0 -0.28959660866E+02  0.23528587137E+02 -0.44736670673E+02  0.58254933157E+02  0.10566000000E+00 0. -1.
         22    1    1    0    0    0  0.21931318602E+01 -0.22480605121E+02  0.17819045299E+02  0.28769876770E+02  0.00000000000E+00 0.  1.
</event>
<event>
 5    1  0.9034917E-005  0.9118800E+02  0.7818608E-02  0.1130116E+00
         25   -1    0    0    0    0  0.00000000000E+00  0.00000000000E+00  0.99999998245E-14  0.12500000000E+03  0.12500000000E+03 0.  0.
        -13    1    3    3    0    0  0.28969769988E+02  0.29537388475E+02  0.15249083445E+02  0.44093657151E+02  0.10566000000E+00 0. -1.
         23    2    1    0    0    0  0.20982410572E+02 -0.81053022084E+01 -0.18959786328E+02  0.95581791780E+02  0.90942003194E+02 0.  0.
         13    1    3    3    0    0 -0.79873594161E+01 -0.37642690683E+02 -0.34208869773E+02  0.51488134628E+02  0.10566000000E+00 0.  1.
         22    1    1    0    0    0 -0.20982410572E+02  0.81053022084E+01  0.18959786328E+02  0.29418208220E+02  0.00000000000E+00 0. -1.
</event>
<event>
 5    1  0.9034917E-005  0.9118800E+02  0.7818608E-02  0.1130116E+00
         25   -1    0    0    0    0  0.00000000000E+00  0.00000000000E+00  0.99999998245E-14  0.12500000000E+03  0.12500000000E+03 0.  0.
        -13    1    3    3    0    0 -0.10586418853E+02 -0.34391241425E+02 -0.21807072768E+02  0.42075994791E+02  0.10566000000E+00 0.  1.
         23    2    1    0    0    0  0.19330970241E+02  0.11901459605E+02 -0.15405737712E+02  0.97565206295E+02  0.93628529700E+02 0.  0.
         13    1    3    3    0    0  0.29917389094E+02  0.46292701029E+02  0.64013350558E+01  0.55489211504E+02  0.10566000000E+00 0. -1.
         22    1    1    0    0    0 -0.19330970241E+02 -0.11901459605E+02  0.15405737712E+02  0.27434793705E+02  0.00000000000E+00 0. -1.
</event>
<event>
 5    1  0.9034917E-005  0.9118800E+02  0.7818608E-02  0.1130116E+00
         25   -1    0    0    0    0  0.00000000000E+00  0.00000000000E+00  0.99999998245E-14  0.12500000000E+03  0.12500000000E+03 0.  0.
        -13    1    3    3    0    0 -0.21828994621E+02 -0.18991759138E+02  0.18116676261E+02  0.34138205051E+02  0.10566000000E+00 0.  1.
         23    2    1    0    0    0  0.25662734599E+02  0.12811526892E+02 -0.51663455898E+01  0.95855492882E+02  0.91317431087E+02 0.  0.
         13    1    3    3    0    0  0.47491729220E+02  0.31803286031E+02 -0.23283021850E+02  0.61717287831E+02  0.10566000000E+00 0. -1.
         22    1    1    0    0    0 -0.25662734599E+02 -0.12811526892E+02  0.51663455898E+01  0.29144507118E+02  0.00000000000E+00 0. -1.
</event>
<event>
 5    1  0.9034917E-005  0.9118800E+02  0.7818608E-02  0.1130116E+00
         25   -1    0    0    0    0  0.00000000000E+00  0.00000000000E+00  0.99999998245E-14  0.12500000000E+03  0.12500000000E+03 0.  0.
        -13    1    3    3    0    0 -0.25181970921E+01 -0.43176587559E+02 -0.21251988922E+02  0.48189389154E+02  0.10566000000E+00 0.  1.
         23    2    1    0    0    0  0.23007179773E+02 -0.33806059390E+02 -0.27021948827E+02  0.75986066358E+02  0.58064762030E+02 0.  0.
         13    1    3    3    0    0  0.25525376865E+02  0.93705281691E+01 -0.57699599051E+01  0.27796677205E+02  0.10566000000E+00 0. -1.
         22    1    1    0    0    0 -0.23007179773E+02  0.33806059390E+02  0.27021948827E+02  0.49013933642E+02  0.00000000000E+00 0.  1.
</event>
<event>
 5    1  0.9034917E-005  0.9118800E+02  0.7818608E-02  0.1130116E+00
         25   -1    0    0    0    0  0.00000000000E+00  0.00000000000E+00  0.99999998245E-14  0.12500000000E+03  0.12500000000E+03 0.  0.
        -13    1    3    3    0    0 -0.42921125441E+02  0.37197990149E+02 -0.15555657410E+02  0.58888904912E+02  0.10566000000E+00 0.  1.
         23    2    1    0    0    0 -0.17717445272E+02  0.11600165626E+02 -0.20945522375E+02  0.95214321946E+02  0.90435504569E+02 0.  0.
         13    1    3    3    0    0  0.25203680168E+02 -0.25597824523E+02 -0.53898649651E+01  0.36325417034E+02  0.10566000000E+00 0. -1.
         22    1    1    0    0    0  0.17717445272E+02 -0.11600165626E+02  0.20945522375E+02  0.29785678054E+02  0.00000000000E+00 0.  1.
</event>
<event>
 5    1  0.9034917E-005  0.9118800E+02  0.7818608E-02  0.1130116E+00
         25   -1    0    0    0    0  0.00000000000E+00  0.00000000000E+00  0.99999998245E-14  0.12500000000E+03  0.12500000000E+03 0.  0.
        -13    1    3    3    0    0 -0.23676206440E+02 -0.24666022748E+02 -0.82774005547E+01  0.35178145966E+02  0.10566000000E+00 0. -1.
         23    2    1    0    0    0  0.86953257353E+01  0.24279606460E+02  0.11023787542E+02  0.96953041675E+02  0.92807652803E+02 0.  0.
         13    1    3    3    0    0  0.32371532175E+02  0.48945629209E+02  0.19301188096E+02  0.61774895710E+02  0.10566000000E+00 0.  1.
         22    1    1    0    0    0 -0.86953257353E+01 -0.24279606460E+02 -0.11023787542E+02  0.28046958325E+02  0.00000000000E+00 0.  1.
</event>
<event>
 5    1  0.9034917E-005  0.9118800E+02  0.7818608E-02  0.1130116E+00
         25   -1    0    0    0    0  0.00000000000E+00  0.00000000000E+00  0.99999998245E-14  0.12500000000E+03  0.12500000000E+03 0.  0.
        -13    1    3    3    0    0  0.34140135319E+02 -0.11991418463E+02  0.10966450777E+02  0.37810278537E+02  0.10566000000E+00 0.  1.
         23    2    1    0    0    0 -0.25433161427E+01  0.26421200807E+02 -0.12236075434E+02  0.95772104914E+02  0.91203213916E+02 0.  0.
         13    1    3    3    0    0 -0.36683451462E+02  0.38412619271E+02 -0.23202526211E+02  0.57961826377E+02  0.10566000000E+00 0. -1.
         22    1    1    0    0    0  0.25433161427E+01 -0.26421200807E+02  0.12236075434E+02  0.29227895086E+02  0.00000000000E+00 0. -1.
</event>
<event>
 5    1  0.9034917E-005  0.9118800E+02  0.7818608E-02  0.1130116E+00
         25   -1    0    0    0    0  0.00000000000E+00  0.00000000000E+00  0.99999998245E-14  0.12500000000E+03  0.12500000000E+03 0.  0.
        -13    1    3    3    0    0  0.12536452529E+02 -0.42720193654E+02 -0.10506995477E+00  0.44521902380E+02  0.10566000000E+00 0. -1.
         23    2    1    0    0    0 -0.20614370728E+02  0.49619187525E+01 -0.61851095996E+01  0.10291316005E+03  0.10051512330E+03 0.  0.
         13    1    3    3    0    0 -0.33150823257E+02  0.47682112406E+02 -0.60800396448E+01  0.58391257670E+02  0.10566000000E+00 0.  1.
         22    1    1    0    0    0  0.20614370728E+02 -0.49619187525E+01  0.61851095996E+01  0.22086839950E+02  0.00000000000E+00 0.  1.
</event>
<event>
 5    1  0.9034917E-005  0.9118800E+02  0.7818608E-02  0.1130116E+00
         25   -1    0    0    0    0  0.00000000000E+00  0.00000000000E+00  0.99999998245E-14  0.12500000000E+03  0.12500000000E+03 0.  0.
        -13    1    3    3    0    0  0.11505206587E+02 -0.48663772416E+02 -0.25242170568E+02  0.56015273483E+02  0.10566000000E+00 0.  1.
         23    2    1    0    0    0 -0.12257456672E+02 -0.33741355865E+02 -0.11186489337E+02  0.87398645192E+02  0.78896522724E+02 0.  0.
         13    1    3    3    0    0 -0.23762663259E+02  0.14922416551E+02  0.14055681231E+02  0.31383371709E+02  0.10566000000E+00 0. -1.
         22    1    1    0    0    0  0.12257456672E+02  0.33741355865E+02  0.11186489337E+02  0.37601354808E+02  0.00000000000E+00 0.  1.
</event>
<event>
 5    1  0.9034917E-005  0.9118800E+02  0.7818608E-02  0.1130116E+00
         25   -1    0    0    0    0  0.00000000000E+00  0.00000000000E+00  0.99999998245E-14  0.12500000000E+03  0.12500000000E+03 0.  0.
        -13    1    3    3    0    0 -0.57243513248E+02 -0.21960330208E+02 -0.83420750769E+01  0.61876306390E+02  0.10566000000E+00 0.  1.
         23    2    1    0    0    0 -0.27752556178E+02 -0.58502030346E+01 -0.81810423347E+01  0.95481214394E+02  0.90803654104E+02 0.  0.
         13    1    3    3    0    0  0.29490957070E+02  0.16110127173E+02  0.16103274223E+00  0.33604908005E+02  0.10566000000E+00 0. -1.
         22    1    1    0    0    0  0.27752556178E+02  0.58502030346E+01  0.81810423347E+01  0.29518785606E+02  0.00000000000E+00 0.  1.
</event>
<event>
 5    1  0.9034917E-005  0.9118800E+02  0.7818608E-02  0.1130116E+00
         25   -1    0    0    0    0  0.00000000000E+00  0.00000000000E+00  0.99999998245E-14  0.12500000000E+03  0.12500000000E+03 0.  0.
        -13    1    3    3    0    0  0.31719060480E+02 -0.31870122890E+02  0.58147310874E+01  0.45339009610E+02  0.10566000000E+00 0.  1.
         23    2    1    0    0    0 -0.12078326339E+02 -0.15984428870E+02  0.22543176307E+02  0.94840710693E+02  0.89917616034E+02 0.  0.
         13    1    3    3    0    0 -0.43797386819E+02  0.15885694020E+02  0.16728445220E+02  0.49501701084E+02  0.10566000000E+00 0. -1.
         22    1    1    0    0    0  0.12078326339E+02  0.15984428870E+02 -0.22543176307E+02  0.30159289307E+02  0.00000000000E+00 0. -1.
</event>
<event>
 5    1  0.9034917E-005  0.9118800E+02  0.7818608E-02  0.1130116E+00
         25   -1    0    0    0    0  0.00000000000E+00  0.00000000000E+00  0.99999998245E-14  0.12500000000E+03  0.12500000000E+03 0.  0.
        -13    1    3    3    0    0 -0.18997706647E+02  0.57517215598E+01  0.56710141191E+02  0.60083661978E+02  0.10566000000E+00 0. -1.
         23    2    1    0    0    0 -0.14399694612E+02 -0.81539039287E+01  0.24913249725E+02  0.95091683998E+02  0.90265835174E+02 0.  0.
         13    1    3    3    0    0  0.45980120356E+01 -0.13905625489E+02 -0.31796891465E+02  0.35008022021E+02  0.10566000000E+00 0.  1.
         22    1    1    0    0    0  0.14399694612E+02  0.81539039287E+01 -0.24913249725E+02  0.29908316002E+02  0.00000000000E+00 0. -1.
</event>
<event>
 5    1  0.9034917E-005  0.9118800E+02  0.7818608E-02  0.1130116E+00
         25   -1    0    0    0    0  0.00000000000E+00  0.00000000000E+00  0.99999998245E-14  0.12500000000E+03  0.12500000000E+03 0.  0.
        -13    1    3    3    0    0 -0.95575917722E+00 -0.33286895134E+02  0.11816303853E+02  0.35335068474E+02  0.10566000000E+00 0.  1.
         23    2    1    0    0    0 -0.12585365352E+02  0.10775695072E+02 -0.25740452978E+02  0.94388271123E+02  0.89286436712E+02 0.  0.
         13    1    3    3    0    0 -0.11629606175E+02  0.44062590206E+02 -0.37556756831E+02  0.59053202649E+02  0.10566000000E+00 0. -1.
         22    1    1    0    0    0  0.12585365352E+02 -0.10775695072E+02  0.25740452978E+02  0.30611728877E+02  0.00000000000E+00 0. -1.
</event>
<event>
 5    1  0.9034917E-005  0.9118800E+02  0.7818608E-02  0.1130116E+00
         25   -1    0    0    0    0  0.00000000000E+00  0.00000000000E+00  0.99999998245E-14  0.12500000000E+03  0.12500000000E+03 0.  0.
        -13    1    3    3    0    0 -0.50007862074E+01  0.49678902755E+02 -0.22195712127E+02  0.54641211942E+02  0.10566000000E+00 0.  1.
         23    2    1    0    0    0 -0.22832793784E+02  0.14066048271E+02 -0.11010376875E+02  0.96010026131E+02  0.91528719716E+02 0.  0.
         13    1    3    3    0    0 -0.17832007577E+02 -0.35612854484E+02  0.11185335252E+02  0.41368814189E+02  0.10566000000E+00 0. -1.
         22    1    1    0    0    0  0.22832793784E+02 -0.14066048271E+02  0.11010376875E+02  0.28989973869E+02  0.00000000000E+00 0.  1.
</event>
<event>
 5    1  0.9034917E-005  0.9118800E+02  0.7818608E-02  0.1130116E+00
         25   -1    0    0    0    0  0.00000000000E+00  0.00000000000E+00  0.99999998245E-14  0.12500000000E+03  0.12500000000E+03 0.  0.
        -13    1    3    3    0    0 -0.27784180144E+02  0.10466173924E+02  0.37552796926E+02  0.47871966576E+02  0.10566000000E+00 0.  1.
         23    2    1    0    0    0  0.17482000789E+02 -0.35502831628E+00  0.21900849807E+02  0.96975124996E+02  0.92837391438E+02 0.  0.
         13    1    3    3    0    0  0.45266180933E+02 -0.10821202241E+02 -0.15651947119E+02  0.49103158420E+02  0.10566000000E+00 0. -1.
         22    1    1    0    0    0 -0.17482000789E+02  0.35502831628E+00 -0.21900849807E+02  0.28024875004E+02  0.00000000000E+00 0.  1.
</event>
<event>
 5    1  0.9034917E-005  0.9118800E+02  0.7818608E-02  0.1130116E+00
         25   -1    0    0    0    0  0.00000000000E+00  0.00000000000E+00  0.99999998245E-14  0.12500000000E+03  0.12500000000E+03 0.  0.
        -13    1    3    3    0    0 -0.43345014729E+02 -0.40862773567E+02 -0.99462631378E+01  0.60394502067E+02  0.10566000000E+00 0. -1.
         23    2    1    0    0    0 -0.25318379153E+02 -0.33860921042E+02 -0.14572808535E+02  0.80279210144E+02  0.66669352300E+02 0.  0.
         13    1    3    3    0    0  0.18026635576E+02  0.70018525251E+01 -0.46265453967E+01  0.19884708078E+02  0.10566000000E+00 0.  1.
         22    1    1    0    0    0  0.25318379153E+02  0.33860921042E+02  0.14572808535E+02  0.44720789856E+02  0.00000000000E+00 0. -1.
</event>
<event>
 5    1  0.9034917E-005  0.9118800E+02  0.7818608E-02  0.1130116E+00
         25   -1    0    0    0    0  0.00000000000E+00  0.00000000000E+00  0.99999998245E-14  0.12500000000E+03  0.12500000000E+03 0.  0.
        -13    1    3    3    0    0 -0.10296484495E+02 -0.20683772798E+02 -0.30379975026E+02  0.38167919733E+02  0.10566000000E+00 0. -1.
         23    2    1    0    0    0 -0.17314170924E+02 -0.58256121088E+01  0.23921277037E+02  0.94901067024E+02  0.90001481965E+02 0.  0.
         13    1    3    3    0    0 -0.70176864292E+01  0.14858160689E+02  0.54301252063E+02  0.56733147291E+02  0.10566000000E+00 0.  1.
         22    1    1    0    0    0  0.17314170924E+02  0.58256121088E+01 -0.23921277037E+02  0.30098932976E+02  0.00000000000E+00 0.  1.
</event>
<event>
 5    1  0.9034917E-005  0.9118800E+02  0.7818608E-02  0.1130116E+00
         25   -1    0    0    0    0  0.00000000000E+00  0.00000000000E+00  0.99999998245E-14  0.12500000000E+03  0.12500000000E+03 0.  0.
        -13    1    3    3    0    0  0.48783316053E+02  0.69481420934E+01 -0.41503202314E+01  0.49450226751E+02  0.10566000000E+00 0. -1.
         23    2    1    0    0    0  0.13707362659E+02 -0.18681460177E+02 -0.18658202933E+02  0.95250759975E+02  0.90485855213E+02 0.  0.
         13    1    3    3    0    0 -0.35075953394E+02 -0.25629602270E+02 -0.14507882702E+02  0.45800533224E+02  0.10566000000E+00 0.  1.
         22    1    1    0    0    0 -0.13707362659E+02  0.18681460177E+02  0.18658202933E+02  0.29749240025E+02  0.00000000000E+00 0. -1.
</event>
<event>
 5    1  0.9034917E-005  0.9118800E+02  0.7818608E-02  0.1130116E+00
         25   -1    0    0    0    0  0.00000000000E+00  0.00000000000E+00  0.99999998245E-14  0.12500000000E+03  0.12500000000E+03 0.  0.
        -13    1    3    3    0    0  0.44781614741E+01 -0.42103563135E+02 -0.15572072075E+02  0.45113906410E+02  0.10566000000E+00 0. -1.
         23    2    1    0    0    0 -0.66420073951E+01 -0.14221193929E+02  0.24937966648E+02  0.95533734550E+02  0.90875924411E+02 0.  0.
         13    1    3    3    0    0 -0.11120168869E+02  0.27882369206E+02  0.40510038723E+02  0.50419828140E+02  0.10566000000E+00 0.  1.
         22    1    1    0    0    0  0.66420073951E+01  0.14221193929E+02 -0.24937966648E+02  0.29466265450E+02  0.00000000000E+00 0.  1.
</event>
<event>
 5    1  0.9034917E-005  0.9118800E+02  0.7818608E-02  0.1130116E+00
         25   -1    0    0    0    0  0.00000000000E+00  0.00000000000E+00  0.99999998245E-14  0.12500000000E+03  0.12500000000E+03 0.  0.
        -13    1    3    3    0    0 -0.99422883053E+01  0.43354240538E+02 -0.52630766609E+00  0.44482889218E+02  0.10566000000E+00 0. -1.
         23    2    1    0    0    0 -0.38216810582E+02  0.17285704054E+02  0.18556507891E+01  0.83014721442E+02  0.71614805457E+02 0.  0.
         13    1    3    3    0    0 -0.28274522277E+02 -0.26068536485E+02  0.23819584552E+01  0.38531832224E+02  0.10566000000E+00 0.  1.
         22    1    1    0    0    0  0.38216810582E+02 -0.17285704054E+02 -0.18556507891E+01  0.41985278558E+02  0.00000000000E+00 0. -1.
</event>
<event>
 5    1  0.9034917E-005  0.9118800E+02  0.7818608E-02  0.1130116E+00
         25   -1    0    0    0    0  0.00000000000E+00  0.00000000000E+00  0.99999998245E-14  0.12500000000E+03  0.12500000000E+03 0.  0.
        -13    1    3    3    0    0 -0.35540037267E+02 -0.62923074134E+01 -0.47626412489E+02  0.59757624720E+02  0.10566000000E+00 0.  1.
         23    2    1    0    0    0 -0.92706793103E+01 -0.13723944768E+02 -0.23869484885E+02  0.95947556668E+02  0.91443365900E+02 0.  0.
         13    1    3    3    0    0  0.26269357957E+02 -0.74316373545E+01  0.23756927604E+02  0.36189931949E+02  0.10566000000E+00 0. -1.
         22    1    1    0    0    0  0.92706793103E+01  0.13723944768E+02  0.23869484885E+02  0.29052443332E+02  0.00000000000E+00 0.  1.
</event>
<event>
 5    1  0.9034917E-005  0.9118800E+02  0.7818608E-02  0.1130116E+00
         25   -1    0    0    0    0  0.00000000000E+00  0.00000000000E+00  0.99999998245E-14  0.12500000000E+03  0.12500000000E+03 0.  0.
        -13    1    3    3    0    0  0.63168636496E+01 -0.52104527566E+02 -0.16789514593E+02  0.55106111490E+02  0.10566000000E+00 0.  1.
         23    2    1    0    0    0  0.18083655229E+01 -0.12680650792E+02 -0.26154648474E+02  0.95877247260E+02  0.91347204746E+02 0.  0.
         13    1    3    3    0    0 -0.45084981268E+01  0.39423876774E+02 -0.93651338809E+01  0.40771135769E+02  0.10566000000E+00 0. -1.
         22    1    1    0    0    0 -0.18083655229E+01  0.12680650792E+02  0.26154648474E+02  0.29122752740E+02  0.00000000000E+00 0.  1.
</event>
<event>
 5    1  0.9034917E-005  0.9118800E+02  0.7818608E-02  0.1130116E+00
         25   -1    0    0    0    0  0.00000000000E+00  0.00000000000E+00  0.99999998245E-14  0.12500000000E+03  0.12500000000E+03 0.  0.
        -13    1    3    3    0    0 -0.31667705856E+02 -0.19872749692E+02 -0.69562252458E+01  0.38028542021E+02  0.10566000000E+00 0.  1.
         23    2    1    0    0    0  0.34516705260E+01  0.24796966167E+00  0.31173383210E+02  0.93635125712E+02  0.88225741300E+02 0.  0.
         13    1    3    3    0    0  0.35119376382E+02  0.20120719354E+02  0.38129608455E+02  0.55606583691E+02  0.10566000000E+00 0. -1.
         22    1    1    0    0    0 -0.34516705260E+01 -0.24796966167E+00 -0.31173383210E+02  0.31364874288E+02  0.00000000000E+00 0. -1.
</event>
<event>
 5    1  0.9034917E-005  0.9118800E+02  0.7818608E-02  0.1130116E+00
         25   -1    0    0    0    0  0.00000000000E+00  0.00000000000E+00  0.99999998245E-14  0.12500000000E+03  0.12500000000E+03 0.  0.
        -13    1    3    3    0    0  0.42857150769E+02 -0.53298866774E+01  0.30678785239E+01  0.43296259731E+02  0.10566000000E+00 0.  1.
         23    2    1    0    0    0  0.11469256111E+01  0.15750767630E+01  0.30981101644E+02  0.93957690740E+02  0.88681580302E+02 0.  0.
         13    1    3    3    0    0 -0.41710225158E+02  0.69049634404E+01  0.27913223120E+02  0.50661431008E+02  0.10566000000E+00 0. -1.
         22    1    1    0    0    0 -0.11469256111E+01 -0.15750767630E+01 -0.30981101644E+02  0.31042309260E+02  0.00000000000E+00 0. -1.
</event>
<event>
 5    1  0.9034917E-005  0.9118800E+02  0.7818608E-02  0.1130116E+00
         25   -1    0    0    0    0  0.00000000000E+00  0.00000000000E+00  0.99999998245E-14  0.12500000000E+03  0.12500000000E+03 0.  0.
        -13    1    3    3    0    0  0.54170322939E+02 -0.18937486559E+02  0.10553450323E+02  0.58347568606E+02  0.10566000000E+00 0. -1.
         23    2    1    0    0    0  0.22423919485E+02  0.71867734298E+00  0.17772503348E+02  0.96378145807E+02  0.92030084493E+02 0.  0.
         13    1    3    3    0    0 -0.31746403454E+02  0.19656163902E+02  0.72190530253E+01  0.38030577201E+02  0.10566000000E+00 0.  1.
         22    1    1    0    0    0 -0.22423919485E+02 -0.71867734298E+00 -0.17772503348E+02  0.28621854193E+02  0.00000000000E+00 0. -1.
</event>
<event>
 5    1  0.9034917E-005  0.9118800E+02  0.7818608E-02  0.1130116E+00
         25   -1    0    0    0    0  0.00000000000E+00  0.00000000000E+00  0.99999998245E-14  0.12500000000E+03  0.12500000000E+03 0.  0.
        -13    1    3    3    0    0 -0.31293621489E+01  0.13387130315E+02  0.38481528807E+02  0.40863766211E+02  0.10566000000E+00 0.  1.
         23    2    1    0    0    0  0.23711499607E+02  0.73769249437E+01 -0.11283366035E+02  0.97724212490E+02  0.93840572901E+02 0.  0.
         13    1    3    3    0    0  0.26840861756E+02 -0.60102053711E+01 -0.49764894842E+02  0.56860446279E+02  0.10566000000E+00 0. -1.
         22    1    1    0    0    0 -0.23711499607E+02 -0.73769249437E+01  0.11283366035E+02  0.27275787510E+02  0.00000000000E+00 0. -1.
</event>
<event>
 5    1  0.9034917E-005  0.9118800E+02  0.7818608E-02  0.1130116E+00
         25   -1    0    0    0    0  0.00000000000E+00  0.00000000000E+00  0.99999998245E-14  0.12500000000E+03  0.12500000000E+03 0.  0.
        -13    1    3    3    0    0 -0.12441570596E+02  0.10807609766E+02  0.44041456895E+02  0.47024017238E+02  0.10566000000E+00 0.  1.
         23    2    1    0    0    0  0.22445898858E+02 -0.86672694853E+01  0.12781561128E+02  0.97754665707E+02  0.93881129236E+02 0.  0.
         13    1    3    3    0    0  0.34887469454E+02 -0.19474879251E+02 -0.31259895766E+02  0.50730648469E+02  0.10566000000E+00 0. -1.
         22    1    1    0    0    0 -0.22445898858E+02  0.86672694853E+01 -0.12781561128E+02  0.27245334293E+02  0.00000000000E+00 0. -1.
</event>
<event>
 5    1  0.9034917E-005  0.9118800E+02  0.7818608E-02  0.1130116E+00
         25   -1    0    0    0    0  0.00000000000E+00  0.00000000000E+00  0.99999998245E-14  0.12500000000E+03  0.12500000000E+03 0.  0.
        -13    1    3    3    0    0  0.15713680936E+02  0.42705341270E+01 -0.29633600045E+02  0.33812995223E+02  0.10566000000E+00 0. -1.
         23    2    1    0    0    0 -0.20403150122E+02  0.79648469035E+01  0.20021775116E+02  0.95325114997E+02  0.90588513341E+02 0.  0.
         13    1    3    3    0    0 -0.36116831059E+02  0.36943127765E+01  0.49655375161E+02  0.61512119774E+02  0.10566000000E+00 0.  1.
         22    1    1    0    0    0  0.20403150122E+02 -0.79648469035E+01 -0.20021775116E+02  0.29674885003E+02  0.00000000000E+00 0.  1.
</event>
<event>
 5    1  0.9034917E-005  0.9118800E+02  0.7818608E-02  0.1130116E+00
         25   -1    0    0    0    0  0.00000000000E+00  0.00000000000E+00  0.99999998245E-14  0.12500000000E+03  0.12500000000E+03 0.  0.
        -13    1    3    3    0    0 -0.41499191227E+02 -0.19223867204E+01 -0.23192937037E+02  0.47579427652E+02  0.10566000000E+00 0.  1.
         23    2    1    0    0    0 -0.82816842326E+01 -0.29021281390E+02 -0.39735597796E+01  0.94559726602E+02  0.89526150651E+02 0.  0.
         13    1    3    3    0    0  0.33217506995E+02 -0.27098894669E+02  0.19219377258E+02  0.46980298950E+02  0.10566000000E+00 0. -1.
         22    1    1    0    0    0  0.82816842326E+01  0.29021281390E+02  0.39735597796E+01  0.30440273398E+02  0.00000000000E+00 0.  1.
</event>
<event>
 5    1  0.9034917E-005  0.9118800E+02  0.7818608E-02  0.1130116E+00
         25   -1    0    0    0    0  0.00000000000E+00  0.00000000000E+00  0.99999998245E-14  0.12500000000E+03  0.12500000000E+03 0.  0.
        -13    1    3    3    0    0 -0.45905524971E+02 -0.26862795264E+02 -0.82509834292E+01  0.53823943407E+02  0.10566000000E+00 0.  1.
         23    2    1    0    0    0 -0.24924238332E+02  0.95363402978E+01 -0.11454478175E+02  0.95959261150E+02  0.91459364132E+02 0.  0.
         13    1    3    3    0    0  0.20981286639E+02  0.36399135562E+02 -0.32034947455E+01  0.42135317743E+02  0.10566000000E+00 0. -1.
         22    1    1    0    0    0  0.24924238332E+02 -0.95363402978E+01  0.11454478175E+02  0.29040738850E+02  0.00000000000E+00 0.  1.
</event>
<event>
 5    1  0.9034917E-005  0.9118800E+02  0.7818608E-02  0.1130116E+00
         25   -1    0    0    0    0  0.00000000000E+00  0.00000000000E+00  0.99999998245E-14  0.12500000000E+03  0.12500000000E+03 0.  0.
        -13    1    3    3    0    0 -0.12910952837E+02 -0.30384410425E+02 -0.17553283114E+02  0.37390293021E+02  0.10566000000E+00 0.  1.
         23    2    1    0    0    0  0.22204891766E+02  0.16196790873E+02 -0.48825655986E+01  0.97085260170E+02  0.92985563625E+02 0.  0.
         13    1    3    3    0    0  0.35115844603E+02  0.46581201299E+02  0.12670717516E+02  0.59694967150E+02  0.10566000000E+00 0. -1.
         22    1    1    0    0    0 -0.22204891766E+02 -0.16196790873E+02  0.48825655986E+01  0.27914739830E+02  0.00000000000E+00 0. -1.
</event>
<event>
 5    1  0.9034917E-005  0.9118800E+02  0.7818608E-02  0.1130116E+00
         25   -1    0    0    0    0  0.00000000000E+00  0.00000000000E+00  0.99999998245E-14  0.12500000000E+03  0.12500000000E+03 0.  0.
        -13    1    3    3    0    0 -0.16474580123E+02 -0.18293109763E+02 -0.34169202993E+02  0.42114074278E+02  0.10566000000E+00 0.  1.
         23    2    1    0    0    0  0.20146818664E+02 -0.49126322632E+01  0.10789226761E+02  0.10162403645E+03  0.98898984379E+02 0.  0.
         13    1    3    3    0    0  0.36621398786E+02  0.13380477500E+02  0.44958429754E+02  0.59509962168E+02  0.10566000000E+00 0. -1.
         22    1    1    0    0    0 -0.20146818664E+02  0.49126322632E+01 -0.10789226761E+02  0.23375963555E+02  0.00000000000E+00 0. -1.
</event>
<event>
 5    1  0.9034917E-005  0.9118800E+02  0.7818608E-02  0.1130116E+00
         25   -1    0    0    0    0  0.00000000000E+00  0.00000000000E+00  0.99999998245E-14  0.12500000000E+03  0.12500000000E+03 0.  0.
        -13    1    3    3    0    0  0.54008482826E+02  0.19849049755E+02  0.13990171625E+01  0.57557531275E+02  0.10566000000E+00 0. -1.
         23    2    1    0    0    0  0.27918510919E+02 -0.76553937152E+01 -0.37238415176E+01  0.95812411876E+02  0.91258440536E+02 0.  0.
         13    1    3    3    0    0 -0.26089971907E+02 -0.27504443470E+02 -0.51228586801E+01  0.38254880601E+02  0.10566000000E+00 0.  1.
         22    1    1    0    0    0 -0.27918510919E+02  0.76553937152E+01  0.37238415176E+01  0.29187588124E+02  0.00000000000E+00 0. -1.
</event>
<event>
 5    1  0.9034917E-005  0.9118800E+02  0.7818608E-02  0.1130116E+00
         25   -1    0    0    0    0  0.00000000000E+00  0.00000000000E+00  0.99999998245E-14  0.12500000000E+03  0.12500000000E+03 0.  0.
        -13    1    3    3    0    0 -0.17804197712E+02  0.32482531635E+02  0.25797405336E+02  0.45140022194E+02  0.10566000000E+00 0. -1.
         23    2    1    0    0    0  0.85655297974E+01  0.22833276177E+02 -0.16245211160E+02  0.95697548100E+02  0.91100971592E+02 0.  0.
         13    1    3    3    0    0  0.26369727510E+02 -0.96492554579E+01 -0.42042616497E+02  0.50557525906E+02  0.10566000000E+00 0.  1.
         22    1    1    0    0    0 -0.85655297974E+01 -0.22833276177E+02  0.16245211160E+02  0.29302451900E+02  0.00000000000E+00 0.  1.
</event>
<event>
 5    1  0.9034917E-005  0.9118800E+02  0.7818608E-02  0.1130116E+00
         25   -1    0    0    0    0  0.00000000000E+00  0.00000000000E+00  0.99999998245E-14  0.12500000000E+03  0.12500000000E+03 0.  0.
        -13    1    3    3    0    0 -0.48821548384E+02  0.98928957520E+01  0.21975282528E+02  0.54445726914E+02  0.10566000000E+00 0. -1.
         23    2    1    0    0    0 -0.55391519198E+01 -0.49891376194E+01  0.23606545959E+02  0.10024433983E+03  0.97139512858E+02 0.  0.
         13    1    3    3    0    0  0.43282396464E+02 -0.14882033371E+02  0.16312634316E+01  0.45798612919E+02  0.10566000000E+00 0.  1.
         22    1    1    0    0    0  0.55391519198E+01  0.49891376194E+01 -0.23606545959E+02  0.24755660167E+02  0.00000000000E+00 0.  1.
</event>
<event>
 5    1  0.9034917E-005  0.9118800E+02  0.7818608E-02  0.1130116E+00
         25   -1    0    0    0    0  0.00000000000E+00  0.00000000000E+00  0.99999998245E-14  0.12500000000E+03  0.12500000000E+03 0.  0.
        -13    1    3    3    0    0 -0.30912664632E+02 -0.28913055762E+02  0.37277056861E+02  0.56401664518E+02  0.10566000000E+00 0.  1.
         23    2    1    0    0    0  0.38447146887E+01 -0.17360261892E+02  0.23493088791E+02  0.95536705124E+02  0.90880010349E+02 0.  0.
         13    1    3    3    0    0  0.34757379320E+02  0.11552793870E+02 -0.13783968070E+02  0.39135040606E+02  0.10566000000E+00 0. -1.
         22    1    1    0    0    0 -0.38447146887E+01  0.17360261892E+02 -0.23493088791E+02  0.29463294876E+02  0.00000000000E+00 0.  1.
</event>
<event>
 5    1  0.9034917E-005  0.9118800E+02  0.7818608E-02  0.1130116E+00
         25   -1    0    0    0    0  0.00000000000E+00  0.00000000000E+00  0.99999998245E-14  0.12500000000E+03  0.12500000000E+03 0.  0.
        -13    1    3    3    0    0 -0.55730161631E+02 -0.46664699927E+01 -0.19621245558E+02  0.59267455647E+02  0.10566000000E+00 0.  1.
         23    2    1    0    0    0 -0.29864342474E+02  0.98504719442E+01 -0.26480534324E+01  0.93441753282E+02  0.87951340641E+02 0.  0.
         13    1    3    3    0    0  0.25865819158E+02  0.14516941937E+02  0.16973192125E+02  0.34174297635E+02  0.10566000000E+00 0. -1.
         22    1    1    0    0    0  0.29864342474E+02 -0.98504719442E+01  0.26480534324E+01  0.31558246718E+02  0.00000000000E+00 0.  1.
</event>
<event>
 5    1  0.9034917E-005  0.9118800E+02  0.7818608E-02  0.1130116E+00
         25   -1    0    0    0    0  0.00000000000E+00  0.00000000000E+00  0.99999998245E-14  0.12500000000E+03  0.12500000000E+03 0.  0.
        -13    1    3    3    0    0  0.37790680579E+02  0.89038221600E+01  0.22618460611E+02  0.44933501001E+02  0.10566000000E+00 0.  1.
         23    2    1    0    0    0 -0.72916410648E+01 -0.15371148477E+02  0.23311301354E+02  0.96140737956E+02  0.91707058010E+02 0.  0.
         13    1    3    3    0    0 -0.45082321644E+02 -0.24274970637E+02  0.69284074279E+00  0.51207236955E+02  0.10566000000E+00 0. -1.
         22    1    1    0    0    0  0.72916410648E+01  0.15371148477E+02 -0.23311301354E+02  0.28859262044E+02  0.00000000000E+00 0.  1.
</event>
<event>
 5    1  0.9034917E-005  0.9118800E+02  0.7818608E-02  0.1130116E+00
         25   -1    0    0    0    0  0.00000000000E+00  0.00000000000E+00  0.99999998245E-14  0.12500000000E+03  0.12500000000E+03 0.  0.
        -13    1    3    3    0    0 -0.22741419027E+02  0.25283879541E+01  0.38474028874E+02  0.44764125668E+02  0.10566000000E+00 0.  1.
         23    2    1    0    0    0  0.20341392075E+02 -0.13440905324E+02  0.15189138603E+02  0.96274748060E+02  0.91889537027E+02 0.  0.
         13    1    3    3    0    0  0.43082811102E+02 -0.15969293278E+02 -0.23284890271E+02  0.51510622392E+02  0.10566000000E+00 0. -1.
         22    1    1    0    0    0 -0.20341392075E+02  0.13440905324E+02 -0.15189138603E+02  0.28725251940E+02  0.00000000000E+00 0. -1.
</event>
<event>
 5    1  0.9034917E-005  0.9118800E+02  0.7818608E-02  0.1130116E+00
         25   -1    0    0    0    0  0.00000000000E+00  0.00000000000E+00  0.99999998245E-14  0.12500000000E+03  0.12500000000E+03 0.  0.
        -13    1    3    3    0    0 -0.18001684962E+02  0.41125950992E+02 -0.22774683504E+01  0.44951112696E+02  0.10566000000E+00 0.  1.
         23    2    1    0    0    0 -0.28053766775E+02 -0.77038098545E+01  0.54540329075E+01  0.95400861643E+02  0.90692973326E+02 0.  0.
         13    1    3    3    0    0 -0.10052081813E+02 -0.48829760846E+02  0.77315012580E+01  0.50449748947E+02  0.10566000000E+00 0. -1.
         22    1    1    0    0    0  0.28053766775E+02  0.77038098545E+01 -0.54540329075E+01  0.29599138357E+02  0.00000000000E+00 0. -1.
</event>
<event>
 5    1  0.9034917E-005  0.9118800E+02  0.7818608E-02  0.1130116E+00
         25   -1    0    0    0    0  0.00000000000E+00  0.00000000000E+00  0.99999998245E-14  0.12500000000E+03  0.12500000000E+03 0.  0.
        -13    1    3    3    0    0 -0.29989341591E+02 -0.25784034960E+02  0.43248186682E+02  0.58605408310E+02  0.10566000000E+00 0.  1.
         23    2    1    0    0    0 -0.10821473875E+02 -0.26200508999E+02  0.36175230772E+02  0.79041123925E+02  0.64306150416E+02 0.  0.
         13    1    3    3    0    0  0.19167867716E+02 -0.41647403907E+00 -0.70729559094E+01  0.20435715616E+02  0.10566000000E+00 0. -1.
         22    1    1    0    0    0  0.10821473875E+02  0.26200508999E+02 -0.36175230772E+02  0.45958876075E+02  0.00000000000E+00 0.  1.
</event>
<event>
 5    1  0.9034917E-005  0.9118800E+02  0.7818608E-02  0.1130116E+00
         25   -1    0    0    0    0  0.00000000000E+00  0.00000000000E+00  0.99999998245E-14  0.12500000000E+03  0.12500000000E+03 0.  0.
        -13    1    3    3    0    0  0.12637508044E+02  0.35378805286E+02  0.42411009893E+02  0.56657491978E+02  0.10566000000E+00 0.  1.
         23    2    1    0    0    0  0.22922972917E+02  0.12028326244E+02  0.11681604247E+02  0.96599239493E+02  0.92329896963E+02 0.  0.
         13    1    3    3    0    0  0.10285464874E+02 -0.23350479042E+02 -0.30729405646E+02  0.39941747515E+02  0.10566000000E+00 0. -1.
         22    1    1    0    0    0 -0.22922972917E+02 -0.12028326244E+02 -0.11681604247E+02  0.28400760507E+02  0.00000000000E+00 0.  1.
</event>
<event>
 5    1  0.9034917E-005  0.9118800E+02  0.7818608E-02  0.1130116E+00
         25   -1    0    0    0    0  0.00000000000E+00  0.00000000000E+00  0.99999998245E-14  0.12500000000E+03  0.12500000000E+03 0.  0.
        -13    1    3    3    0    0  0.26736918354E+02 -0.16502487487E+02  0.35714971429E+02  0.47568532083E+02  0.10566000000E+00 0. -1.
         23    2    1    0    0    0  0.18879592344E+02  0.21990606027E+02  0.19484968682E+02  0.90075942890E+02  0.83030029040E+02 0.  0.
         13    1    3    3    0    0 -0.78573260101E+01  0.38493093514E+02 -0.16230002747E+02  0.42507410807E+02  0.10566000000E+00 0.  1.
         22    1    1    0    0    0 -0.18879592344E+02 -0.21990606027E+02 -0.19484968682E+02  0.34924057110E+02  0.00000000000E+00 0.  1.
</event>
<event>
 5    1  0.9034917E-005  0.9118800E+02  0.7818608E-02  0.1130116E+00
         25   -1    0    0    0    0  0.00000000000E+00  0.00000000000E+00  0.99999998245E-14  0.12500000000E+03  0.12500000000E+03 0.  0.
        -13    1    3    3    0    0  0.40471012681E+02  0.23900437030E+02  0.62849894209E+01  0.47419890486E+02  0.10566000000E+00 0.  1.
         23    2    1    0    0    0  0.12115189353E+01  0.10519609049E+02  0.28588404067E+02  0.94513498073E+02  0.89461581241E+02 0.  0.
         13    1    3    3    0    0 -0.39259493746E+02 -0.13380827981E+02  0.22303414646E+02  0.47093607587E+02  0.10566000000E+00 0. -1.
         22    1    1    0    0    0 -0.12115189353E+01 -0.10519609049E+02 -0.28588404067E+02  0.30486501927E+02  0.00000000000E+00 0.  1.
</event>
<event>
 5    1  0.9034917E-005  0.9118800E+02  0.7818608E-02  0.1130116E+00
         25   -1    0    0    0    0  0.00000000000E+00  0.00000000000E+00  0.99999998245E-14  0.12500000000E+03  0.12500000000E+03 0.  0.
        -13    1    3    3    0    0 -0.18713107970E+02 -0.56329545461E+02 -0.11826075515E+02  0.60523262700E+02  0.10566000000E+00 0. -1.
         23    2    1    0    0    0 -0.14315445784E+01 -0.26333741740E+02 -0.13871613058E+02  0.95201729534E+02  0.90418097655E+02 0.  0.
         13    1    3    3    0    0  0.17281563391E+02  0.29995803721E+02 -0.20455375434E+01  0.34678466834E+02  0.10566000000E+00 0.  1.
         22    1    1    0    0    0  0.14315445784E+01  0.26333741740E+02  0.13871613058E+02  0.29798270466E+02  0.00000000000E+00 0. -1.
</event>
<event>
 5    1  0.9034917E-005  0.9118800E+02  0.7818608E-02  0.1130116E+00
         25   -1    0    0    0    0  0.00000000000E+00  0.00000000000E+00  0.99999998245E-14  0.12500000000E+03  0.12500000000E+03 0.  0.
        -13    1    3    3    0    0  0.60478375628E+01  0.89532197725E+01  0.59607987537E+02  0.60579367987E+02  0.10566000000E+00 0.  1.
         23    2    1    0    0    0 -0.75378166604E+01  0.76662465864E+01  0.27950517675E+02  0.95053022606E+02  0.90212281046E+02 0.  0.
         13    1    3    3    0    0 -0.13585654223E+02 -0.12869731861E+01 -0.31657469862E+02  0.34473654619E+02  0.10566000000E+00 0. -1.
         22    1    1    0    0    0  0.75378166604E+01 -0.76662465864E+01 -0.27950517675E+02  0.29946977394E+02  0.00000000000E+00 0.  1.
</event>
<event>
 5    1  0.9034917E-005  0.9118800E+02  0.7818608E-02  0.1130116E+00
         25   -1    0    0    0    0  0.00000000000E+00  0.00000000000E+00  0.99999998245E-14  0.12500000000E+03  0.12500000000E+03 0.  0.
        -13    1    3    3    0    0  0.20616439318E+02 -0.37185379268E+02  0.25677513050E+01  0.42595710022E+02  0.10566000000E+00 0. -1.
         23    2    1    0    0    0 -0.46826716328E+01 -0.73083640154E+00  0.29910152244E+02  0.94716692012E+02  0.89745044448E+02 0.  0.
         13    1    3    3    0    0 -0.25299110950E+02  0.36454542867E+02  0.27342400939E+02  0.52120981990E+02  0.10566000000E+00 0.  1.
         22    1    1    0    0    0  0.46826716328E+01  0.73083640154E+00 -0.29910152244E+02  0.30283307988E+02  0.00000000000E+00 0.  1.
</event>
<event>
 5    1  0.9034917E-005  0.9118800E+02  0.7818608E-02  0.1130116E+00
         25   -1    0    0    0    0  0.00000000000E+00  0.00000000000E+00  0.99999998245E-14  0.12500000000E+03  0.12500000000E+03 0.  0.
        -13    1    3    3    0    0 -0.24784873723E+01  0.15838503719E+02  0.35714843804E+02  0.39147954375E+02  0.10566000000E+00 0. -1.
         23    2    1    0    0    0 -0.85034817671E+01  0.24094085679E+02 -0.17948055871E+02  0.93775540415E+02  0.88424459872E+02 0.  0.
         13    1    3    3    0    0 -0.60249943947E+01  0.82555819597E+01 -0.53662899675E+02  0.54627586040E+02  0.10566000000E+00 0.  1.
         22    1    1    0    0    0  0.85034817671E+01 -0.24094085679E+02  0.17948055871E+02  0.31224459585E+02  0.00000000000E+00 0.  1.
</event>
<event>
 5    1  0.9034917E-005  0.9118800E+02  0.7818608E-02  0.1130116E+00
         25   -1    0    0    0    0  0.00000000000E+00  0.00000000000E+00  0.99999998245E-14  0.12500000000E+03  0.12500000000E+03 0.  0.
        -13    1    3    3    0    0  0.53242420818E+00 -0.14104444391E+02 -0.34559963086E+02  0.37331234102E+02  0.10566000000E+00 0. -1.
         23    2    1    0    0    0 -0.15176494487E+02 -0.15955039234E+02  0.20680137916E+02  0.94791435551E+02  0.89849089521E+02 0.  0.
         13    1    3    3    0    0 -0.15708918695E+02 -0.18505948430E+01  0.55240101001E+02  0.57460201448E+02  0.10566000000E+00 0.  1.
         22    1    1    0    0    0  0.15176494487E+02  0.15955039234E+02 -0.20680137916E+02  0.30208564449E+02  0.00000000000E+00 0.  1.
</event>
<event>
 5    1  0.9034917E-005  0.9118800E+02  0.7818608E-02  0.1130116E+00
         25   -1    0    0    0    0  0.00000000000E+00  0.00000000000E+00  0.99999998245E-14  0.12500000000E+03  0.12500000000E+03 0.  0.
        -13    1    3    3    0    0 -0.43847511523E+02  0.10335375367E+02  0.16644967869E+02  0.48025934350E+02  0.10566000000E+00 0. -1.
         23    2    1    0    0    0 -0.45065276301E+01  0.30556744731E+02  0.79467946290E+01  0.93106819150E+02  0.87474023502E+02 0.  0.
         13    1    3    3    0    0  0.39340983893E+02  0.20221369364E+02 -0.86981732398E+01  0.45080884801E+02  0.10566000000E+00 0.  1.
         22    1    1    0    0    0  0.45065276301E+01 -0.30556744731E+02 -0.79467946290E+01  0.31893180850E+02  0.00000000000E+00 0. -1.
</event>
<event>
 5    1  0.9034917E-005  0.9118800E+02  0.7818608E-02  0.1130116E+00
         25   -1    0    0    0    0  0.00000000000E+00  0.00000000000E+00  0.99999998245E-14  0.12500000000E+03  0.12500000000E+03 0.  0.
        -13    1    3    3    0    0  0.95854929020E+01 -0.21723213811E+02  0.20672816282E+02  0.31482633142E+02  0.10566000000E+00 0. -1.
         23    2    1    0    0    0 -0.18367029025E+02  0.22576476324E+02 -0.12327816486E+02  0.93392720811E+02  0.87881626082E+02 0.  0.
         13    1    3    3    0    0 -0.27952521927E+02  0.44299690135E+02 -0.33000632768E+02  0.61910087670E+02  0.10566000000E+00 0.  1.
         22    1    1    0    0    0  0.18367029025E+02 -0.22576476324E+02  0.12327816486E+02  0.31607279189E+02  0.00000000000E+00 0.  1.
</event>
<event>
 5    1  0.9034917E-005  0.9118800E+02  0.7818608E-02  0.1130116E+00
         25   -1    0    0    0    0  0.00000000000E+00  0.00000000000E+00  0.99999998245E-14  0.12500000000E+03  0.12500000000E+03 0.  0.
        -13    1    3    3    0    0  0.43497290547E+02 -0.27399032208E+02  0.24313399620E+02  0.56867159380E+02  0.10566000000E+00 0. -1.
         23    2    1    0    0    0  0.60445881225E+01 -0.24016424801E+02  0.16401878971E+02  0.95295668000E+02  0.90547871317E+02 0.  0.
         13    1    3    3    0    0 -0.37452702424E+02  0.33826074070E+01 -0.79115206487E+01  0.38428508620E+02  0.10566000000E+00 0.  1.
         22    1    1    0    0    0 -0.60445881225E+01  0.24016424801E+02 -0.16401878971E+02  0.29704332000E+02  0.00000000000E+00 0. -1.
</event>
<event>
 5    1  0.9034917E-005  0.9118800E+02  0.7818608E-02  0.1130116E+00
         25   -1    0    0    0    0  0.00000000000E+00  0.00000000000E+00  0.99999998245E-14  0.12500000000E+03  0.12500000000E+03 0.  0.
        -13    1    3    3    0    0 -0.22336538942E+02 -0.52832568982E+02  0.19196851799E+02  0.60487449939E+02  0.10566000000E+00 0.  1.
         23    2    1    0    0    0 -0.54275233115E+01 -0.22290098668E+02  0.18701476419E+02  0.95401828972E+02  0.90694306563E+02 0.  0.
         13    1    3    3    0    0  0.16909015631E+02  0.30542470313E+02 -0.49537537962E+00  0.34914379033E+02  0.10566000000E+00 0. -1.
         22    1    1    0    0    0  0.54275233115E+01  0.22290098668E+02 -0.18701476419E+02  0.29598171028E+02  0.00000000000E+00 0.  1.
</event>
<event>
 5    1  0.9034917E-005  0.9118800E+02  0.7818608E-02  0.1130116E+00
         25   -1    0    0    0    0  0.00000000000E+00  0.00000000000E+00  0.99999998245E-14  0.12500000000E+03  0.12500000000E+03 0.  0.
        -13    1    3    3    0    0  0.17755226331E+02  0.16758320581E+02  0.34340999800E+02  0.42135552708E+02  0.10566000000E+00 0. -1.
         23    2    1    0    0    0  0.76234216253E+01 -0.27077920985E+02  0.35697571317E+01  0.96643809703E+02  0.92390218237E+02 0.  0.
         13    1    3    3    0    0 -0.10131804706E+02 -0.43836241566E+02 -0.30771242668E+02  0.54508256995E+02  0.10566000000E+00 0.  1.
         22    1    1    0    0    0 -0.76234216253E+01  0.27077920985E+02 -0.35697571317E+01  0.28356190297E+02  0.00000000000E+00 0.  1.
</event>
<event>
 5    1  0.9034917E-005  0.9118800E+02  0.7818608E-02  0.1130116E+00
         25   -1    0    0    0    0  0.00000000000E+00  0.00000000000E+00  0.99999998245E-14  0.12500000000E+03  0.12500000000E+03 0.  0.
        -13    1    3    3    0    0 -0.42639437809E+02 -0.28061163894E+02  0.21065244084E+02  0.55220523794E+02  0.10566000000E+00 0. -1.
         23    2    1    0    0    0 -0.36018667638E+02 -0.48953940351E+01 -0.20273826306E+01  0.88593687615E+02  0.80767703345E+02 0.  0.
         13    1    3    3    0    0  0.66207701713E+01  0.23165769858E+02 -0.23092626714E+02  0.33373163820E+02  0.10566000000E+00 0.  1.
         22    1    1    0    0    0  0.36018667638E+02  0.48953940351E+01  0.20273826306E+01  0.36406312385E+02  0.00000000000E+00 0. -1.
</event>
<event>
 5    1  0.9034917E-005  0.9118800E+02  0.7818608E-02  0.1130116E+00
         25   -1    0    0    0    0  0.00000000000E+00  0.00000000000E+00  0.99999998245E-14  0.12500000000E+03  0.12500000000E+03 0.  0.
        -13    1    3    3    0    0  0.47654045087E+02  0.15414592054E+01 -0.71520978611E+01  0.48212527184E+02  0.10566000000E+00 0.  1.
         23    2    1    0    0    0  0.15335944283E+02 -0.10827812186E+02  0.23832484769E+02  0.94661574958E+02  0.89668242648E+02 0.  0.
         13    1    3    3    0    0 -0.32318100804E+02 -0.12369271391E+02  0.30984582630E+02  0.46449047774E+02  0.10566000000E+00 0. -1.
         22    1    1    0    0    0 -0.15335944283E+02  0.10827812186E+02 -0.23832484769E+02  0.30338425042E+02  0.00000000000E+00 0.  1.
</event>
<event>
 5    1  0.9034917E-005  0.9118800E+02  0.7818608E-02  0.1130116E+00
         25   -1    0    0    0    0  0.00000000000E+00  0.00000000000E+00  0.99999998245E-14  0.12500000000E+03  0.12500000000E+03 0.  0.
        -13    1    3    3    0    0  0.26338964355E+02 -0.18512319154E+02 -0.53265411744E+01  0.32631736219E+02  0.10566000000E+00 0.  1.
         23    2    1    0    0    0 -0.19123794532E+02  0.15513413247E+02 -0.22172778152E+02  0.91863651395E+02  0.85679127265E+02 0.  0.
         13    1    3    3    0    0 -0.45462758887E+02  0.34025732401E+02 -0.16846236978E+02  0.59231915176E+02  0.10566000000E+00 0. -1.
         22    1    1    0    0    0  0.19123794532E+02 -0.15513413247E+02  0.22172778152E+02  0.33136348605E+02  0.00000000000E+00 0. -1.
</event>
<event>
 5    1  0.9034917E-005  0.9118800E+02  0.7818608E-02  0.1130116E+00
         25   -1    0    0    0    0  0.00000000000E+00  0.00000000000E+00  0.99999998245E-14  0.12500000000E+03  0.12500000000E+03 0.  0.
        -13    1    3    3    0    0  0.35726427387E+02 -0.10873520067E+01  0.99193511197E+01  0.37093997344E+02  0.10566000000E+00 0. -1.
         23    2    1    0    0    0 -0.21344844285E+02 -0.12113742448E+02  0.16251056175E+02  0.95564613805E+02  0.90918388961E+02 0.  0.
         13    1    3    3    0    0 -0.57071271672E+02 -0.11026390441E+02  0.63317050556E+01  0.58470616461E+02  0.10566000000E+00 0.  1.
         22    1    1    0    0    0  0.21344844285E+02  0.12113742448E+02 -0.16251056175E+02  0.29435386195E+02  0.00000000000E+00 0.  1.
</event>
<event>
 5    1  0.9034917E-005  0.9118800E+02  0.7818608E-02  0.1130116E+00
         25   -1    0    0    0    0  0.00000000000E+00  0.00000000000E+00  0.99999998245E-14  0.12500000000E+03  0.12500000000E+03 0.  0.
        -13    1    3    3    0    0 -0.74678693879E+01 -0.41414139112E+02 -0.13922761589E+02  0.44325550712E+02  0.10566000000E+00 0.  1.
         23    2    1    0    0    0 -0.14215695766E+02 -0.66581913909E+01  0.24073605418E+02  0.96260549822E+02  0.91870220722E+02 0.  0.
         13    1    3    3    0    0 -0.67478263777E+01  0.34755947721E+02  0.37996367007E+02  0.51934999111E+02  0.10566000000E+00 0. -1.
         22    1    1    0    0    0  0.14215695766E+02  0.66581913909E+01 -0.24073605418E+02  0.28739450178E+02  0.00000000000E+00 0. -1.
</event>
<event>
 5    1  0.9034917E-005  0.9118800E+02  0.7818608E-02  0.1130116E+00
         25   -1    0    0    0    0  0.00000000000E+00  0.00000000000E+00  0.99999998245E-14  0.12500000000E+03  0.12500000000E+03 0.  0.
        -13    1    3    3    0    0 -0.25785363080E+02  0.36021929797E+02  0.58519818017E+01  0.44684686757E+02  0.10566000000E+00 0. -1.
         23    2    1    0    0    0 -0.60117206214E+00  0.72120617792E+01 -0.28186795592E+02  0.95898957258E+02  0.91376907994E+02 0.  0.
         13    1    3    3    0    0  0.25184191018E+02 -0.28809868018E+02 -0.34038777393E+02  0.51214270501E+02  0.10566000000E+00 0.  1.
         22    1    1    0    0    0  0.60117206214E+00 -0.72120617792E+01  0.28186795592E+02  0.29101042742E+02  0.00000000000E+00 0.  1.
</event>
<event>
 5    1  0.9034917E-005  0.9118800E+02  0.7818608E-02  0.1130116E+00
         25   -1    0    0    0    0  0.00000000000E+00  0.00000000000E+00  0.99999998245E-14  0.12500000000E+03  0.12500000000E+03 0.  0.
        -13    1    3    3    0    0  0.40480260725E+02 -0.20565156437E+02 -0.52828963837E+01  0.45711019743E+02  0.10566000000E+00 0.  1.
         23    2    1    0    0    0  0.12092089721E+02  0.74067526278E+01  0.25333900776E+02  0.95967515662E+02  0.91470645103E+02 0.  0.
         13    1    3    3    0    0 -0.28388171005E+02  0.27971909065E+02  0.30616797160E+02  0.50256495919E+02  0.10566000000E+00 0. -1.
         22    1    1    0    0    0 -0.12092089721E+02 -0.74067526278E+01 -0.25333900776E+02  0.29032484338E+02  0.00000000000E+00 0.  1.
</event>
<event>
 5    1  0.9034917E-005  0.9118800E+02  0.7818608E-02  0.1130116E+00
         25   -1    0    0    0    0  0.00000000000E+00  0.00000000000E+00  0.99999998245E-14  0.12500000000E+03  0.12500000000E+03 0.  0.
        -13    1    3    3    0    0 -0.44031574762E+02  0.49643451705E+01  0.38127630118E+02  0.58456408045E+02  0.10566000000E+00 0.  1.
         23    2    1    0    0    0 -0.28627040538E+02  0.87523660968E+01  0.57413607266E+01  0.94519275185E+02  0.89469652934E+02 0.  0.
         13    1    3    3    0    0  0.15404534224E+02  0.37880209263E+01 -0.32386269392E+02  0.36062867140E+02  0.10566000000E+00 0. -1.
         22    1    1    0    0    0  0.28627040538E+02 -0.87523660968E+01 -0.57413607266E+01  0.30480724815E+02  0.00000000000E+00 0.  1.
</event>
<event>
 5    1  0.9034917E-005  0.9118800E+02  0.7818608E-02  0.1130116E+00
         25   -1    0    0    0    0  0.00000000000E+00  0.00000000000E+00  0.99999998245E-14  0.12500000000E+03  0.12500000000E+03 0.  0.
        -13    1    3    3    0    0 -0.28199361862E+02 -0.98414415184E+01  0.43803923017E+02  0.53017476517E+02  0.10566000000E+00 0.  1.
         23    2    1    0    0    0  0.40352255352E+01  0.12230075142E+02  0.26072770901E+02  0.95919986837E+02  0.91405671101E+02 0.  0.
         13    1    3    3    0    0  0.32234587397E+02  0.22071516660E+02 -0.17731152116E+02  0.42902510320E+02  0.10566000000E+00 0. -1.
         22    1    1    0    0    0 -0.40352255352E+01 -0.12230075142E+02 -0.26072770901E+02  0.29080013163E+02  0.00000000000E+00 0.  1.
</event>
<event>
 5    1  0.9034917E-005  0.9118800E+02  0.7818608E-02  0.1130116E+00
         25   -1    0    0    0    0  0.00000000000E+00  0.00000000000E+00  0.99999998245E-14  0.12500000000E+03  0.12500000000E+03 0.  0.
        -13    1    3    3    0    0 -0.16498871100E+02 -0.11250016290E+02 -0.54158410931E+02  0.57722787984E+02  0.10566000000E+00 0.  1.
         23    2    1    0    0    0 -0.14890100660E+02 -0.18759480347E+02 -0.17093386221E+02  0.95575230620E+02  0.90932984418E+02 0.  0.
         13    1    3    3    0    0  0.16087704404E+01 -0.75094640570E+01  0.37065024710E+02  0.37852442636E+02  0.10566000000E+00 0. -1.
         22    1    1    0    0    0  0.14890100660E+02  0.18759480347E+02  0.17093386221E+02  0.29424769380E+02  0.00000000000E+00 0. -1.
</event>
<event>
 5    1  0.9034917E-005  0.9118800E+02  0.7818608E-02  0.1130116E+00
         25   -1    0    0    0    0  0.00000000000E+00  0.00000000000E+00  0.99999998245E-14  0.12500000000E+03  0.12500000000E+03 0.  0.
        -13    1    3    3    0    0  0.52835570659E+02 -0.14672119155E+02  0.58266842783E+01  0.55143721502E+02  0.10566000000E+00 0.  1.
         23    2    1    0    0    0  0.26639521545E+02  0.14545352853E+02  0.17227898956E+01  0.94599351935E+02  0.89581460044E+02 0.  0.
         13    1    3    3    0    0 -0.26196049114E+02  0.29217472008E+02 -0.41038943828E+01  0.39455630433E+02  0.10566000000E+00 0. -1.
         22    1    1    0    0    0 -0.26639521545E+02 -0.14545352853E+02 -0.17227898956E+01  0.30400648065E+02  0.00000000000E+00 0.  1.
</event>
<event>
 5    1  0.9034917E-005  0.9118800E+02  0.7818608E-02  0.1130116E+00
         25   -1    0    0    0    0  0.00000000000E+00  0.00000000000E+00  0.99999998245E-14  0.12500000000E+03  0.12500000000E+03 0.  0.
        -13    1    3    3    0    0  0.45808892700E+02  0.21665393397E-03  0.35393977477E+02  0.57889545309E+02  0.10566000000E+00 0.  1.
         23    2    1    0    0    0  0.13255341491E+02 -0.14532901663E+02  0.20686355558E+02  0.96454691891E+02  0.92133994664E+02 0.  0.
         13    1    3    3    0    0 -0.32553551209E+02 -0.14533118317E+02 -0.14707621920E+02  0.38565146582E+02  0.10566000000E+00 0. -1.
         22    1    1    0    0    0 -0.13255341491E+02  0.14532901663E+02 -0.20686355558E+02  0.28545308109E+02  0.00000000000E+00 0.  1.
</event>
<event>
 5    1  0.9034917E-005  0.9118800E+02  0.7818608E-02  0.1130116E+00
         25   -1    0    0    0    0  0.00000000000E+00  0.00000000000E+00  0.99999998245E-14  0.12500000000E+03  0.12500000000E+03 0.  0.
        -13    1    3    3    0    0 -0.31555623078E+02 -0.92323710019E+01  0.26025706314E+02  0.41932595619E+02  0.10566000000E+00 0. -1.
         23    2    1    0    0    0  0.20720124171E+02  0.34819342751E+01  0.19867123182E+02  0.96083741676E+02  0.91629337108E+02 0.  0.
         13    1    3    3    0    0  0.52275747249E+02  0.12714305277E+02 -0.61585831320E+01  0.54151146057E+02  0.10566000000E+00 0.  1.
         22    1    1    0    0    0 -0.20720124171E+02 -0.34819342751E+01 -0.19867123182E+02  0.28916258324E+02  0.00000000000E+00 0.  1.
</event>
<event>
 5    1  0.9034917E-005  0.9118800E+02  0.7818608E-02  0.1130116E+00
         25   -1    0    0    0    0  0.00000000000E+00  0.00000000000E+00  0.99999998245E-14  0.12500000000E+03  0.12500000000E+03 0.  0.
        -13    1    3    3    0    0 -0.47932025569E+02 -0.33718950555E+02 -0.58390072297E+00  0.58607156608E+02  0.10566000000E+00 0. -1.
         23    2    1    0    0    0 -0.13235007030E+02 -0.22416825966E+02 -0.11272560792E+02  0.96631881905E+02  0.92374079028E+02 0.  0.
         13    1    3    3    0    0  0.34697018539E+02  0.11302124589E+02 -0.10688660069E+02  0.38024725296E+02  0.10566000000E+00 0.  1.
         22    1    1    0    0    0  0.13235007030E+02  0.22416825966E+02  0.11272560792E+02  0.28368118095E+02  0.00000000000E+00 0. -1.
</event>
<event>
 5    1  0.9034917E-005  0.9118800E+02  0.7818608E-02  0.1130116E+00
         25   -1    0    0    0    0  0.00000000000E+00  0.00000000000E+00  0.99999998245E-14  0.12500000000E+03  0.12500000000E+03 0.  0.
        -13    1    3    3    0    0  0.39071575176E+02  0.19301505955E+02 -0.31279538985E+02  0.53642863850E+02  0.10566000000E+00 0. -1.
         23    2    1    0    0    0 -0.57837874440E+00  0.21056593685E+02 -0.22278834120E+02  0.94339583999E+02  0.89218249253E+02 0.  0.
         13    1    3    3    0    0 -0.39649953920E+02  0.17550877300E+01  0.90007048644E+01  0.40696720149E+02  0.10566000000E+00 0.  1.
         22    1    1    0    0    0  0.57837874440E+00 -0.21056593685E+02  0.22278834120E+02  0.30660416001E+02  0.00000000000E+00 0. -1.
</event>
<event>
 5    1  0.9034917E-005  0.9118800E+02  0.7818608E-02  0.1130116E+00
         25   -1    0    0    0    0  0.00000000000E+00  0.00000000000E+00  0.99999998245E-14  0.12500000000E+03  0.12500000000E+03 0.  0.
        -13    1    3    3    0    0 -0.47218249751E+02 -0.64216968455E+01 -0.11941063052E+02  0.49126382431E+02  0.10566000000E+00 0.  1.
         23    2    1    0    0    0 -0.16414221802E+02  0.19788820023E+02  0.12529602693E+02  0.96399038147E+02  0.92058457172E+02 0.  0.
         13    1    3    3    0    0  0.30804027949E+02  0.26210516869E+02  0.24470665745E+02  0.47272655716E+02  0.10566000000E+00 0. -1.
         22    1    1    0    0    0  0.16414221802E+02 -0.19788820023E+02 -0.12529602693E+02  0.28600961853E+02  0.00000000000E+00 0. -1.
</event>
<event>
 5    1  0.9034917E-005  0.9118800E+02  0.7818608E-02  0.1130116E+00
         25   -1    0    0    0    0  0.00000000000E+00  0.00000000000E+00  0.99999998245E-14  0.12500000000E+03  0.12500000000E+03 0.  0.
        -13    1    3    3    0    0 -0.16729586764E+02  0.56120832023E+02  0.11476640846E+02  0.59675382776E+02  0.10566000000E+00 0.  1.
         23    2    1    0    0    0 -0.17038249303E+02  0.20526913729E+02  0.13043091292E+02  0.95305246979E+02  0.90561093990E+02 0.  0.
         13    1    3    3    0    0 -0.30866253898E+00 -0.35593918294E+02  0.15664504455E+01  0.35629864203E+02  0.10566000000E+00 0. -1.
         22    1    1    0    0    0  0.17038249303E+02 -0.20526913729E+02 -0.13043091292E+02  0.29694753021E+02  0.00000000000E+00 0.  1.
</event>
<event>
 5    1  0.9034917E-005  0.9118800E+02  0.7818608E-02  0.1130116E+00
         25   -1    0    0    0    0  0.00000000000E+00  0.00000000000E+00  0.99999998245E-14  0.12500000000E+03  0.12500000000E+03 0.  0.
        -13    1    3    3    0    0 -0.33009078778E+02 -0.18456387215E+01  0.33326597031E+01  0.33228353086E+02  0.10566000000E+00 0. -1.
         23    2    1    0    0    0  0.25582544395E+02 -0.14500263572E+02 -0.86310796565E+01  0.94353307561E+02  0.89237474697E+02 0.  0.
         13    1    3    3    0    0  0.58591623173E+02 -0.12654624851E+02 -0.11963739360E+02  0.61124954476E+02  0.10566000000E+00 0.  1.
         22    1    1    0    0    0 -0.25582544395E+02  0.14500263572E+02  0.86310796565E+01  0.30646692439E+02  0.00000000000E+00 0.  1.
</event>
<event>
 5    1  0.9034917E-005  0.9118800E+02  0.7818608E-02  0.1130116E+00
         25   -1    0    0    0    0  0.00000000000E+00  0.00000000000E+00  0.99999998245E-14  0.12500000000E+03  0.12500000000E+03 0.  0.
        -13    1    3    3    0    0  0.12467602126E+02  0.21328754253E+02 -0.30691243139E+02  0.39399497842E+02  0.10566000000E+00 0.  1.
         23    2    1    0    0    0 -0.13055301310E+02 -0.15200298778E+02 -0.35515349392E+02  0.84222187189E+02  0.73692243806E+02 0.  0.
         13    1    3    3    0    0 -0.25522903436E+02 -0.36529053030E+02 -0.48241062528E+01  0.44822689346E+02  0.10566000000E+00 0. -1.
         22    1    1    0    0    0  0.13055301310E+02  0.15200298778E+02  0.35515349392E+02  0.40777812811E+02  0.00000000000E+00 0. -1.
</event>
<event>
 5    1  0.9034917E-005  0.9118800E+02  0.7818608E-02  0.1130116E+00
         25   -1    0    0    0    0  0.00000000000E+00  0.00000000000E+00  0.99999998245E-14  0.12500000000E+03  0.12500000000E+03 0.  0.
        -13    1    3    3    0    0 -0.54221068180E+00  0.31171603992E+02 -0.14327757479E+02  0.34311203509E+02  0.10566000000E+00 0.  1.
         23    2    1    0    0    0 -0.16480657941E+02 -0.25001171063E+02  0.21397399401E+01  0.94979188424E+02  0.90109916802E+02 0.  0.
         13    1    3    3    0    0 -0.15938447259E+02 -0.56172775054E+02  0.16467497419E+02  0.60667984915E+02  0.10566000000E+00 0. -1.
         22    1    1    0    0    0  0.16480657941E+02  0.25001171063E+02 -0.21397399401E+01  0.30020811576E+02  0.00000000000E+00 0. -1.
</event>
<event>
 5    1  0.9034917E-005  0.9118800E+02  0.7818608E-02  0.1130116E+00
         25   -1    0    0    0    0  0.00000000000E+00  0.00000000000E+00  0.99999998245E-14  0.12500000000E+03  0.12500000000E+03 0.  0.
        -13    1    3    3    0    0 -0.27998952392E+02 -0.14875216023E+02 -0.52141567559E+02  0.61024319892E+02  0.10566000000E+00 0.  1.
         23    2    1    0    0    0 -0.75511660516E+01 -0.14626351693E+02 -0.26222654073E+02  0.94039091434E+02  0.88796243494E+02 0.  0.
         13    1    3    3    0    0  0.20447786340E+02  0.24886432945E+00  0.25918913486E+02  0.33014771542E+02  0.10566000000E+00 0. -1.
         22    1    1    0    0    0  0.75511660516E+01  0.14626351693E+02  0.26222654073E+02  0.30960908566E+02  0.00000000000E+00 0.  1.
</event>
<event>
 5    1  0.9034917E-005  0.9118800E+02  0.7818608E-02  0.1130116E+00
         25   -1    0    0    0    0  0.00000000000E+00  0.00000000000E+00  0.99999998245E-14  0.12500000000E+03  0.12500000000E+03 0.  0.
        -13    1    3    3    0    0 -0.41264696666E+02 -0.59340409768E+01  0.11105261856E+02  0.43143087954E+02  0.10566000000E+00 0.  1.
         23    2    1    0    0    0  0.19459882373E+01 -0.21325487553E+02 -0.17622890442E+02  0.97266814877E+02  0.93229307190E+02 0.  0.
         13    1    3    3    0    0  0.43210684903E+02 -0.15391446576E+02 -0.28728152298E+02  0.54123726923E+02  0.10566000000E+00 0. -1.
         22    1    1    0    0    0 -0.19459882373E+01  0.21325487553E+02  0.17622890442E+02  0.27733185123E+02  0.00000000000E+00 0. -1.
</event>
<event>
 5    1  0.9034917E-005  0.9118800E+02  0.7818608E-02  0.1130116E+00
         25   -1    0    0    0    0  0.00000000000E+00  0.00000000000E+00  0.99999998245E-14  0.12500000000E+03  0.12500000000E+03 0.  0.
        -13    1    3    3    0    0 -0.16379261214E+02  0.19999944332E+02  0.26749642788E+02  0.37199899523E+02  0.10566000000E+00 0. -1.
         23    2    1    0    0    0  0.26678069096E+01 -0.28559406957E+02 -0.10306280978E+01  0.96297750720E+02  0.91920822886E+02 0.  0.
         13    1    3    3    0    0  0.19047068124E+02 -0.48559351288E+02 -0.27780270886E+02  0.59097851198E+02  0.10566000000E+00 0.  1.
         22    1    1    0    0    0 -0.26678069096E+01  0.28559406957E+02  0.10306280978E+01  0.28702249280E+02  0.00000000000E+00 0.  1.
</event>
<event>
 5    1  0.9034917E-005  0.9118800E+02  0.7818608E-02  0.1130116E+00
         25   -1    0    0    0    0  0.00000000000E+00  0.00000000000E+00  0.99999998245E-14  0.12500000000E+03  0.12500000000E+03 0.  0.
        -13    1    3    3    0    0 -0.28597551406E+02 -0.46081761349E+02 -0.95499853418E+01  0.55068703086E+02  0.10566000000E+00 0.  1.
         23    2    1    0    0    0  0.48461649857E+01 -0.24717232685E+02 -0.15834060908E+02  0.95248623704E+02  0.90482904053E+02 0.  0.
         13    1    3    3    0    0  0.33443716392E+02  0.21364528664E+02 -0.62840755661E+01  0.40179920618E+02  0.10566000000E+00 0. -1.
         22    1    1    0    0    0 -0.48461649857E+01  0.24717232685E+02  0.15834060908E+02  0.29751376296E+02  0.00000000000E+00 0. -1.
</event>
<event>
 5    1  0.9034917E-005  0.9118800E+02  0.7818608E-02  0.1130116E+00
         25   -1    0    0    0    0  0.00000000000E+00  0.00000000000E+00  0.99999998245E-14  0.12500000000E+03  0.12500000000E+03 0.  0.
        -13    1    3    3    0    0 -0.23561846829E+01 -0.46500451759E+02 -0.28603241827E+02  0.54644306447E+02  0.10566000000E+00 0.  1.
         23    2    1    0    0    0 -0.16306927978E+02 -0.73419374800E+01 -0.21859330220E+02  0.96757297160E+02  0.92543634519E+02 0.  0.
         13    1    3    3    0    0 -0.13950743295E+02  0.39158514279E+02  0.67439116073E+01  0.42112990713E+02  0.10566000000E+00 0. -1.
         22    1    1    0    0    0  0.16306927978E+02  0.73419374800E+01  0.21859330220E+02  0.28242702840E+02  0.00000000000E+00 0.  1.
</event>
<event>
 5    1  0.9034917E-005  0.9118800E+02  0.7818608E-02  0.1130116E+00
         25   -1    0    0    0    0  0.00000000000E+00  0.00000000000E+00  0.99999998245E-14  0.12500000000E+03  0.12500000000E+03 0.  0.
        -13    1    3    3    0    0 -0.28853595888E+00 -0.14548650845E+02  0.33995638658E+02  0.36979198290E+02  0.10566000000E+00 0.  1.
         23    2    1    0    0    0  0.25686634273E+02  0.21612390603E+02  0.28606350882E+01  0.91309024339E+02  0.84866106808E+02 0.  0.
         13    1    3    3    0    0  0.25975170232E+02  0.36161041448E+02 -0.31135003569E+02  0.54329826049E+02  0.10566000000E+00 0. -1.
         22    1    1    0    0    0 -0.25686634273E+02 -0.21612390603E+02 -0.28606350882E+01  0.33690975661E+02  0.00000000000E+00 0. -1.
</event>
<event>
 5    1  0.9034917E-005  0.9118800E+02  0.7818608E-02  0.1130116E+00
         25   -1    0    0    0    0  0.00000000000E+00  0.00000000000E+00  0.99999998245E-14  0.12500000000E+03  0.12500000000E+03 0.  0.
        -13    1    3    3    0    0 -0.13119540353E+02 -0.22283170864E+02  0.31816693902E+02  0.40999697776E+02  0.10566000000E+00 0.  1.
         23    2    1    0    0    0  0.85769356000E+01 -0.17605416864E+02 -0.19778589014E+02  0.97166439132E+02  0.93094628110E+02 0.  0.
         13    1    3    3    0    0  0.21696475953E+02  0.46777540008E+01 -0.51595282916E+02  0.56166741356E+02  0.10566000000E+00 0. -1.
         22    1    1    0    0    0 -0.85769356000E+01  0.17605416864E+02  0.19778589014E+02  0.27833560868E+02  0.00000000000E+00 0. -1.
</event>
<event>
 5    1  0.9034917E-005  0.9118800E+02  0.7818608E-02  0.1130116E+00
         25   -1    0    0    0    0  0.00000000000E+00  0.00000000000E+00  0.99999998245E-14  0.12500000000E+03  0.12500000000E+03 0.  0.
        -13    1    3    3    0    0 -0.22511510230E+02  0.11157715575E+02 -0.32302367421E+02  0.40923304055E+02  0.10566000000E+00 0. -1.
         23    2    1    0    0    0  0.34915193909E+00  0.27666139900E+02  0.13113600058E+02  0.94381317623E+02  0.89276701360E+02 0.  0.
         13    1    3    3    0    0  0.22860662169E+02  0.16508424325E+02  0.45415967480E+02  0.53458013568E+02  0.10566000000E+00 0.  1.
         22    1    1    0    0    0 -0.34915193909E+00 -0.27666139900E+02 -0.13113600058E+02  0.30618682377E+02  0.00000000000E+00 0.  1.
</event>
<event>
 5    1  0.9034917E-005  0.9118800E+02  0.7818608E-02  0.1130116E+00
         25   -1    0    0    0    0  0.00000000000E+00  0.00000000000E+00  0.99999998245E-14  0.12500000000E+03  0.12500000000E+03 0.  0.
        -13    1    3    3    0    0 -0.84770074555E+01 -0.26122972272E+02  0.21160767299E+02  0.34670716353E+02  0.10566000000E+00 0. -1.
         23    2    1    0    0    0  0.21644774530E+02  0.10343455337E+02 -0.17127482582E+02  0.95524009900E+02  0.90862547153E+02 0.  0.
         13    1    3    3    0    0  0.30121781985E+02  0.36466427609E+02 -0.38288249881E+02  0.60853293547E+02  0.10566000000E+00 0.  1.
         22    1    1    0    0    0 -0.21644774530E+02 -0.10343455337E+02  0.17127482582E+02  0.29475990100E+02  0.00000000000E+00 0.  1.
</event>
<event>
 5    1  0.9034917E-005  0.9118800E+02  0.7818608E-02  0.1130116E+00
         25   -1    0    0    0    0  0.00000000000E+00  0.00000000000E+00  0.99999998245E-14  0.12500000000E+03  0.12500000000E+03 0.  0.
        -13    1    3    3    0    0 -0.14101490590E+02 -0.36619928077E+02 -0.99813243602E+01  0.40490852909E+02  0.10566000000E+00 0.  1.
         23    2    1    0    0    0 -0.18607304676E+02  0.83153264483E+01  0.21371757518E+02  0.95468178846E+02  0.90785707639E+02 0.  0.
         13    1    3    3    0    0 -0.45058140857E+01  0.44935254526E+02  0.31353081879E+02  0.54977325937E+02  0.10566000000E+00 0. -1.
         22    1    1    0    0    0  0.18607304676E+02 -0.83153264483E+01 -0.21371757518E+02  0.29531821154E+02  0.00000000000E+00 0. -1.
</event>
<event>
 5    1  0.9034917E-005  0.9118800E+02  0.7818608E-02  0.1130116E+00
         25   -1    0    0    0    0  0.00000000000E+00  0.00000000000E+00  0.99999998245E-14  0.12500000000E+03  0.12500000000E+03 0.  0.
        -13    1    3    3    0    0 -0.35189946832E+02  0.64635780579E+01 -0.46206623461E+02  0.58439485068E+02  0.10566000000E+00 0.  1.
         23    2    1    0    0    0 -0.51518537458E+01 -0.12958604069E+01 -0.32000358201E+02  0.92561692766E+02  0.86691540484E+02 0.  0.
         13    1    3    3    0    0  0.30038093086E+02 -0.77594384647E+01  0.14206265260E+02  0.34122207698E+02  0.10566000000E+00 0. -1.
         22    1    1    0    0    0  0.51518537458E+01  0.12958604069E+01  0.32000358201E+02  0.32438307234E+02  0.00000000000E+00 0.  1.
</event>
<event>
 5    1  0.9034917E-005  0.9118800E+02  0.7818608E-02  0.1130116E+00
         25   -1    0    0    0    0  0.00000000000E+00  0.00000000000E+00  0.99999998245E-14  0.12500000000E+03  0.12500000000E+03 0.  0.
        -13    1    3    3    0    0 -0.31048866629E+02  0.24889614089E+02 -0.46249694539E+02  0.61012870916E+02  0.10566000000E+00 0.  1.
         23    2    1    0    0    0 -0.13499370445E+02  0.19189709179E+02 -0.15480419027E+02  0.96890903358E+02  0.92723922692E+02 0.  0.
         13    1    3    3    0    0  0.17549496184E+02 -0.56999049101E+01  0.30769275512E+02  0.35878032441E+02  0.10566000000E+00 0. -1.
         22    1    1    0    0    0  0.13499370445E+02 -0.19189709179E+02  0.15480419027E+02  0.28109096642E+02  0.00000000000E+00 0.  1.
</event>
<event>
 5    1  0.9034917E-005  0.9118800E+02  0.7818608E-02  0.1130116E+00
         25   -1    0    0    0    0  0.00000000000E+00  0.00000000000E+00  0.99999998245E-14  0.12500000000E+03  0.12500000000E+03 0.  0.
        -13    1    3    3    0    0  0.29762965321E+02  0.49179835637E+02 -0.83928217800E+01  0.58094242051E+02  0.10566000000E+00 0. -1.
         23    2    1    0    0    0  0.19175353712E+01  0.18605228527E+02 -0.16291119450E+02  0.10019612846E+03  0.97077454205E+02 0.  0.
         13    1    3    3    0    0 -0.27845429950E+02 -0.30574607110E+02 -0.78982976703E+01  0.42101886409E+02  0.10566000000E+00 0.  1.
         22    1    1    0    0    0 -0.19175353712E+01 -0.18605228527E+02  0.16291119450E+02  0.24803871540E+02  0.00000000000E+00 0. -1.
</event>
<event>
 5    1  0.9034917E-005  0.9118800E+02  0.7818608E-02  0.1130116E+00
         25   -1    0    0    0    0  0.00000000000E+00  0.00000000000E+00  0.99999998245E-14  0.12500000000E+03  0.12500000000E+03 0.  0.
        -13    1    3    3    0    0 -0.12508950533E+02 -0.20549641207E+02  0.48670164528E+02  0.54291414389E+02  0.10566000000E+00 0.  1.
         23    2    1    0    0    0 -0.20291273352E+02 -0.19679247151E+02  0.81211789783E+01  0.95589762145E+02  0.90952957820E+02 0.  0.
         13    1    3    3    0    0 -0.77823228196E+01  0.87039405568E+00 -0.40548985549E+02  0.41298347756E+02  0.10566000000E+00 0. -1.
         22    1    1    0    0    0  0.20291273352E+02  0.19679247151E+02 -0.81211789783E+01  0.29410237855E+02  0.00000000000E+00 0.  1.
</event>
<event>
 5    1  0.9034917E-005  0.9118800E+02  0.7818608E-02  0.1130116E+00
         25   -1    0    0    0    0  0.00000000000E+00  0.00000000000E+00  0.99999998245E-14  0.12500000000E+03  0.12500000000E+03 0.  0.
        -13    1    3    3    0    0 -0.15710152416E+02 -0.42578372946E+02 -0.23510920456E+02  0.51112633236E+02  0.10566000000E+00 0. -1.
         23    2    1    0    0    0  0.14212764716E+02 -0.26174531552E+02  0.40034602191E+01  0.94947770856E+02  0.90066323973E+02 0.  0.
         13    1    3    3    0    0  0.29922917132E+02  0.16403841394E+02  0.27514380675E+02  0.43835137620E+02  0.10566000000E+00 0.  1.
         22    1    1    0    0    0 -0.14212764716E+02  0.26174531552E+02 -0.40034602191E+01  0.30052229144E+02  0.00000000000E+00 0. -1.
</event>
<event>
 5    1  0.9034917E-005  0.9118800E+02  0.7818608E-02  0.1130116E+00
         25   -1    0    0    0    0  0.00000000000E+00  0.00000000000E+00  0.99999998245E-14  0.12500000000E+03  0.12500000000E+03 0.  0.
        -13    1    3    3    0    0 -0.22271393595E+01  0.28909024778E+02 -0.20913518386E+02  0.35750220680E+02  0.10566000000E+00 0.  1.
         23    2    1    0    0    0  0.22405714201E+02 -0.17101644685E+02  0.83736326451E+01  0.95595918592E+02  0.90961418458E+02 0.  0.
         13    1    3    3    0    0  0.24632853560E+02 -0.46010669463E+02  0.29287151032E+02  0.59845697912E+02  0.10566000000E+00 0. -1.
         22    1    1    0    0    0 -0.22405714201E+02  0.17101644685E+02 -0.83736326451E+01  0.29404081408E+02  0.00000000000E+00 0. -1.
</event>
<event>
 5    1  0.9034917E-005  0.9118800E+02  0.7818608E-02  0.1130116E+00
         25   -1    0    0    0    0  0.00000000000E+00  0.00000000000E+00  0.99999998245E-14  0.12500000000E+03  0.12500000000E+03 0.  0.
        -13    1    3    3    0    0  0.34655147495E+01 -0.16366856654E+02 -0.58829250764E+02  0.61161881092E+02  0.10566000000E+00 0. -1.
         23    2    1    0    0    0  0.31415202788E+01  0.15045293661E+01 -0.27889632433E+02  0.96893695449E+02  0.92727686601E+02 0.  0.
         13    1    3    3    0    0 -0.32399447069E+00  0.17871386020E+02  0.30939618332E+02  0.35731814357E+02  0.10566000000E+00 0.  1.
         22    1    1    0    0    0 -0.31415202788E+01 -0.15045293661E+01  0.27889632433E+02  0.28106304551E+02  0.00000000000E+00 0. -1.
</event>
<event>
 5    1  0.9034917E-005  0.9118800E+02  0.7818608E-02  0.1130116E+00
         25   -1    0    0    0    0  0.00000000000E+00  0.00000000000E+00  0.99999998245E-14  0.12500000000E+03  0.12500000000E+03 0.  0.
        -13    1    3    3    0    0 -0.27268316330E+02  0.49406190298E+02  0.50032685587E+01  0.56653125028E+02  0.10566000000E+00 0. -1.
         23    2    1    0    0    0 -0.27788432311E+01  0.24335005089E+02 -0.14272898626E+02  0.96651630073E+02  0.92400798255E+02 0.  0.
         13    1    3    3    0    0  0.24489473098E+02 -0.25071185209E+02 -0.19276167184E+02  0.39998505044E+02  0.10566000000E+00 0.  1.
         22    1    1    0    0    0  0.27788432311E+01 -0.24335005089E+02  0.14272898626E+02  0.28348369927E+02  0.00000000000E+00 0. -1.
</event>
<event>
 5    1  0.9034917E-005  0.9118800E+02  0.7818608E-02  0.1130116E+00
         25   -1    0    0    0    0  0.00000000000E+00  0.00000000000E+00  0.99999998245E-14  0.12500000000E+03  0.12500000000E+03 0.  0.
        -13    1    3    3    0    0 -0.85931380654E+01  0.55810215001E+02 -0.10354116358E+01  0.56477476586E+02  0.10566000000E+00 0.  1.
         23    2    1    0    0    0  0.40118289142E+01  0.21992667689E+02  0.17086746427E+02  0.96862318738E+02  0.92685380102E+02 0.  0.
         13    1    3    3    0    0  0.12604966980E+02 -0.33817547312E+02  0.18122158063E+02  0.40384842152E+02  0.10566000000E+00 0. -1.
         22    1    1    0    0    0 -0.40118289142E+01 -0.21992667689E+02 -0.17086746427E+02  0.28137681262E+02  0.00000000000E+00 0.  1.
</event>
<event>
 5    1  0.9034917E-005  0.9118800E+02  0.7818608E-02  0.1130116E+00
         25   -1    0    0    0    0  0.00000000000E+00  0.00000000000E+00  0.99999998245E-14  0.12500000000E+03  0.12500000000E+03 0.  0.
        -13    1    3    3    0    0  0.28378012977E+01  0.51464008368E+02 -0.82302448336E+01  0.52195261926E+02  0.10566000000E+00 0.  1.
         23    2    1    0    0    0  0.18141458068E+02  0.41890164937E+01  0.83715709411E+01  0.10458570207E+03  0.10257400020E+03 0.  0.
         13    1    3    3    0    0  0.15303656771E+02 -0.47274991874E+02  0.16601815775E+02  0.52390440142E+02  0.10566000000E+00 0. -1.
         22    1    1    0    0    0 -0.18141458068E+02 -0.41890164937E+01 -0.83715709411E+01  0.20414297932E+02  0.00000000000E+00 0. -1.
</event>
<event>
 5    1  0.9034917E-005  0.9118800E+02  0.7818608E-02  0.1130116E+00
         25   -1    0    0    0    0  0.00000000000E+00  0.00000000000E+00  0.99999998245E-14  0.12500000000E+03  0.12500000000E+03 0.  0.
        -13    1    3    3    0    0  0.48867216670E+02 -0.16798954193E+02 -0.33438479548E+02  0.61549596307E+02  0.10566000000E+00 0.  1.
         23    2    1    0    0    0  0.20865466160E+02  0.74573858198E+00 -0.12746478831E+02  0.10053785523E+03  0.97516479673E+02 0.  0.
         13    1    3    3    0    0 -0.28001750510E+02  0.17544692775E+02  0.20692000717E+02  0.38988258924E+02  0.10566000000E+00 0. -1.
         22    1    1    0    0    0 -0.20865466160E+02 -0.74573858198E+00  0.12746478831E+02  0.24462144769E+02  0.00000000000E+00 0.  1.
</event>
<event>
 5    1  0.9034917E-005  0.9118800E+02  0.7818608E-02  0.1130116E+00
         25   -1    0    0    0    0  0.00000000000E+00  0.00000000000E+00  0.99999998245E-14  0.12500000000E+03  0.12500000000E+03 0.  0.
        -13    1    3    3    0    0 -0.23281576611E+02  0.25253777282E+02 -0.51416406546E+02  0.61833996334E+02  0.10566000000E+00 0. -1.
         23    2    1    0    0    0 -0.16658347168E+02  0.89088815397E+01 -0.23595183089E+02  0.94774160629E+02  0.89825053060E+02 0.  0.
         13    1    3    3    0    0  0.66232294438E+01 -0.16344895743E+02  0.27821223457E+02  0.32940164295E+02  0.10566000000E+00 0.  1.
         22    1    1    0    0    0  0.16658347168E+02 -0.89088815397E+01  0.23595183089E+02  0.30225839371E+02  0.00000000000E+00 0. -1.
</event>
<event>
 5    1  0.9034917E-005  0.9118800E+02  0.7818608E-02  0.1130116E+00
         25   -1    0    0    0    0  0.00000000000E+00  0.00000000000E+00  0.99999998245E-14  0.12500000000E+03  0.12500000000E+03 0.  0.
        -13    1    3    3    0    0  0.15194840520E+02 -0.40032852970E+02 -0.24122024767E+02  0.49146675759E+02  0.10566000000E+00 0.  1.
         23    2    1    0    0    0  0.28738912635E+02 -0.47628195103E+01  0.30871595348E+01  0.95705971545E+02  0.91112528701E+02 0.  0.
         13    1    3    3    0    0  0.13544072115E+02  0.35270033459E+02  0.27209184302E+02  0.46559295786E+02  0.10566000000E+00 0. -1.
         22    1    1    0    0    0 -0.28738912635E+02  0.47628195103E+01 -0.30871595348E+01  0.29294028455E+02  0.00000000000E+00 0.  1.
</event>
<event>
 5    1  0.9034917E-005  0.9118800E+02  0.7818608E-02  0.1130116E+00
         25   -1    0    0    0    0  0.00000000000E+00  0.00000000000E+00  0.99999998245E-14  0.12500000000E+03  0.12500000000E+03 0.  0.
        -13    1    3    3    0    0 -0.40684103816E+02 -0.27432919707E+02 -0.45223911340E+01  0.49277018706E+02  0.10566000000E+00 0.  1.
         23    2    1    0    0    0 -0.21104234948E+02 -0.37788195475E+02 -0.21008519214E+02  0.76888729703E+02  0.59976515619E+02 0.  0.
         13    1    3    3    0    0  0.19579868867E+02 -0.10355275768E+02 -0.16486128080E+02  0.27611710997E+02  0.10566000000E+00 0. -1.
         22    1    1    0    0    0  0.21104234948E+02  0.37788195475E+02  0.21008519214E+02  0.48111270297E+02  0.00000000000E+00 0.  1.
</event>
<event>
 5    1  0.9034917E-005  0.9118800E+02  0.7818608E-02  0.1130116E+00
         25   -1    0    0    0    0  0.00000000000E+00  0.00000000000E+00  0.99999998245E-14  0.12500000000E+03  0.12500000000E+03 0.  0.
        -13    1    3    3    0    0 -0.27937081801E+02 -0.17629106074E+02 -0.11512592465E+02  0.34983094057E+02  0.10566000000E+00 0.  1.
         23    2    1    0    0    0  0.18326712750E+02  0.21587559170E+02 -0.71778819057E+01  0.95786764989E+02  0.91223304300E+02 0.  0.
         13    1    3    3    0    0  0.46263794551E+02  0.39216665244E+02  0.43347105591E+01  0.60803670932E+02  0.10566000000E+00 0. -1.
         22    1    1    0    0    0 -0.18326712750E+02 -0.21587559170E+02  0.71778819057E+01  0.29213235011E+02  0.00000000000E+00 0. -1.
</event>
<event>
 5    1  0.9034917E-005  0.9118800E+02  0.7818608E-02  0.1130116E+00
         25   -1    0    0    0    0  0.00000000000E+00  0.00000000000E+00  0.99999998245E-14  0.12500000000E+03  0.12500000000E+03 0.  0.
        -13    1    3    3    0    0  0.13617021788E+02 -0.49918577856E+02 -0.34316076060E+02  0.62087776074E+02  0.10566000000E+00 0.  1.
         23    2    1    0    0    0  0.86098317116E+01 -0.19339648802E+02 -0.18542822295E+02  0.96857727943E+02  0.92679188526E+02 0.  0.
         13    1    3    3    0    0 -0.50071900767E+01  0.30578929055E+02  0.15773253766E+02  0.34769951869E+02  0.10566000000E+00 0. -1.
         22    1    1    0    0    0 -0.86098317116E+01  0.19339648802E+02  0.18542822295E+02  0.28142272057E+02  0.00000000000E+00 0.  1.
</event>
<event>
 5    1  0.9034917E-005  0.9118800E+02  0.7818608E-02  0.1130116E+00
         25   -1    0    0    0    0  0.00000000000E+00  0.00000000000E+00  0.99999998245E-14  0.12500000000E+03  0.12500000000E+03 0.  0.
        -13    1    3    3    0    0 -0.19723985446E+02 -0.21548334033E+02  0.19281008242E+02  0.35001924866E+02  0.10566000000E+00 0.  1.
         23    2    1    0    0    0 -0.69453697770E+01  0.21847572721E+02 -0.19742365759E+02  0.94745816803E+02  0.89785601300E+02 0.  0.
         13    1    3    3    0    0  0.12778615669E+02  0.43395906754E+02 -0.39023374001E+02  0.59743891937E+02  0.10566000000E+00 0. -1.
         22    1    1    0    0    0  0.69453697770E+01 -0.21847572721E+02  0.19742365759E+02  0.30254183197E+02  0.00000000000E+00 0. -1.
</event>
<event>
 5    1  0.9034917E-005  0.9118800E+02  0.7818608E-02  0.1130116E+00
         25   -1    0    0    0    0  0.00000000000E+00  0.00000000000E+00  0.99999998245E-14  0.12500000000E+03  0.12500000000E+03 0.  0.
        -13    1    3    3    0    0 -0.38578081143E+02 -0.47856150007E+02 -0.59261942153E+01  0.61754436116E+02  0.10566000000E+00 0.  1.
         23    2    1    0    0    0 -0.12129539188E+02 -0.25755889806E+02 -0.36750825797E+01  0.96294637912E+02  0.91916589787E+02 0.  0.
         13    1    3    3    0    0  0.26448541955E+02  0.22100260200E+02  0.22511116356E+01  0.34540201796E+02  0.10566000000E+00 0. -1.
         22    1    1    0    0    0  0.12129539188E+02  0.25755889806E+02  0.36750825797E+01  0.28705362088E+02  0.00000000000E+00 0.  1.
</event>
<event>
 5    1  0.9034917E-005  0.9118800E+02  0.7818608E-02  0.1130116E+00
         25   -1    0    0    0    0  0.00000000000E+00  0.00000000000E+00  0.99999998245E-14  0.12500000000E+03  0.12500000000E+03 0.  0.
        -13    1    3    3    0    0  0.33188651992E+02 -0.39114934588E+02 -0.34567974764E+02  0.61858069580E+02  0.10566000000E+00 0. -1.
         23    2    1    0    0    0  0.10767606115E+02 -0.17393138142E+02 -0.20295775602E+02  0.96183666035E+02  0.91765551863E+02 0.  0.
         13    1    3    3    0    0 -0.22421045877E+02  0.21721796446E+02  0.14272199162E+02  0.34325596455E+02  0.10566000000E+00 0.  1.
         22    1    1    0    0    0 -0.10767606115E+02  0.17393138142E+02  0.20295775602E+02  0.28816333965E+02  0.00000000000E+00 0. -1.
</event>
<event>
 5    1  0.9034917E-005  0.9118800E+02  0.7818608E-02  0.1130116E+00
         25   -1    0    0    0    0  0.00000000000E+00  0.00000000000E+00  0.99999998245E-14  0.12500000000E+03  0.12500000000E+03 0.  0.
        -13    1    3    3    0    0 -0.61491910356E+01  0.30224822528E+02 -0.25434951460E+02  0.39978748943E+02  0.10566000000E+00 0. -1.
         23    2    1    0    0    0 -0.18853337590E+02 -0.19302213660E+02 -0.20033816465E+02  0.91393786399E+02  0.84990861860E+02 0.  0.
         13    1    3    3    0    0 -0.12704146554E+02 -0.49527036189E+02  0.54011349954E+01  0.51415037456E+02  0.10566000000E+00 0.  1.
         22    1    1    0    0    0  0.18853337590E+02  0.19302213660E+02  0.20033816465E+02  0.33606213601E+02  0.00000000000E+00 0.  1.
</event>
<event>
 5    1  0.9034917E-005  0.9118800E+02  0.7818608E-02  0.1130116E+00
         25   -1    0    0    0    0  0.00000000000E+00  0.00000000000E+00  0.99999998245E-14  0.12500000000E+03  0.12500000000E+03 0.  0.
        -13    1    3    3    0    0  0.43222097471E+02 -0.27998692765E+02 -0.32558916823E+02  0.60927585994E+02  0.10566000000E+00 0. -1.
         23    2    1    0    0    0  0.21524778174E+02 -0.40890638513E+01 -0.19195498672E+02  0.95870913370E+02  0.91338537007E+02 0.  0.
         13    1    3    3    0    0 -0.21697319297E+02  0.23909628913E+02  0.13363418151E+02  0.34943327377E+02  0.10566000000E+00 0.  1.
         22    1    1    0    0    0 -0.21524778174E+02  0.40890638513E+01  0.19195498672E+02  0.29129086630E+02  0.00000000000E+00 0. -1.
</event>
<event>
 5    1  0.9034917E-005  0.9118800E+02  0.7818608E-02  0.1130116E+00
         25   -1    0    0    0    0  0.00000000000E+00  0.00000000000E+00  0.99999998245E-14  0.12500000000E+03  0.12500000000E+03 0.  0.
        -13    1    3    3    0    0 -0.74523238925E+01  0.21996856721E+01  0.27429143378E+02  0.28508679712E+02  0.10566000000E+00 0.  1.
         23    2    1    0    0    0  0.10397973012E+02 -0.72643415958E+01 -0.31626424277E+02  0.90924800600E+02  0.84298280825E+02 0.  0.
         13    1    3    3    0    0  0.17850296904E+02 -0.94640272680E+01 -0.59055567655E+02  0.62416120888E+02  0.10566000000E+00 0. -1.
         22    1    1    0    0    0 -0.10397973012E+02  0.72643415958E+01  0.31626424277E+02  0.34075199400E+02  0.00000000000E+00 0. -1.
</event>
<event>
 5    1  0.9034917E-005  0.9118800E+02  0.7818608E-02  0.1130116E+00
         25   -1    0    0    0    0  0.00000000000E+00  0.00000000000E+00  0.99999998245E-14  0.12500000000E+03  0.12500000000E+03 0.  0.
        -13    1    3    3    0    0  0.40926000759E+01 -0.42305754884E+02 -0.29158716841E+02  0.51543847388E+02  0.10566000000E+00 0.  1.
         23    2    1    0    0    0  0.35172943651E+01 -0.26153974567E+02  0.12184115709E+02  0.95933620437E+02  0.91424313556E+02 0.  0.
         13    1    3    3    0    0 -0.57530571084E+00  0.16151780317E+02  0.41342832550E+02  0.44389773049E+02  0.10566000000E+00 0. -1.
         22    1    1    0    0    0 -0.35172943651E+01  0.26153974567E+02 -0.12184115709E+02  0.29066379563E+02  0.00000000000E+00 0.  1.
</event>
<event>
 5    1  0.9034917E-005  0.9118800E+02  0.7818608E-02  0.1130116E+00
         25   -1    0    0    0    0  0.00000000000E+00  0.00000000000E+00  0.99999998245E-14  0.12500000000E+03  0.12500000000E+03 0.  0.
        -13    1    3    3    0    0 -0.63548269674E+01 -0.30477829864E+02  0.39386795948E+02  0.50205704835E+02  0.10566000000E+00 0.  1.
         23    2    1    0    0    0  0.30463869174E+01 -0.28687579398E+02 -0.50942950840E+01  0.95704786613E+02  0.91110903043E+02 0.  0.
         13    1    3    3    0    0  0.94012138848E+01  0.17902504655E+01 -0.44481091031E+02  0.45499081778E+02  0.10566000000E+00 0. -1.
         22    1    1    0    0    0 -0.30463869174E+01  0.28687579398E+02  0.50942950840E+01  0.29295213387E+02  0.00000000000E+00 0. -1.
</event>
<event>
 5    1  0.9034917E-005  0.9118800E+02  0.7818608E-02  0.1130116E+00
         25   -1    0    0    0    0  0.00000000000E+00  0.00000000000E+00  0.99999998245E-14  0.12500000000E+03  0.12500000000E+03 0.  0.
        -13    1    3    3    0    0 -0.52255720017E+02  0.24861829788E+02  0.10255837873E+01  0.57877749101E+02  0.10566000000E+00 0. -1.
         23    2    1    0    0    0 -0.16603326975E+02  0.21484655607E+02  0.11971675632E+02  0.95325399572E+02  0.90588906014E+02 0.  0.
         13    1    3    3    0    0  0.35652393042E+02 -0.33771741815E+01  0.10946091844E+02  0.37447650471E+02  0.10566000000E+00 0.  1.
         22    1    1    0    0    0  0.16603326975E+02 -0.21484655607E+02 -0.11971675632E+02  0.29674600428E+02  0.00000000000E+00 0. -1.
</event>
<event>
 5    1  0.9034917E-005  0.9118800E+02  0.7818608E-02  0.1130116E+00
         25   -1    0    0    0    0  0.00000000000E+00  0.00000000000E+00  0.99999998245E-14  0.12500000000E+03  0.12500000000E+03 0.  0.
        -13    1    3    3    0    0 -0.32920659265E+02 -0.33486262960E+02  0.13461081964E+02  0.48849887463E+02  0.10566000000E+00 0.  1.
         23    2    1    0    0    0 -0.26912434194E+02  0.55207384473E+01 -0.11137708272E+02  0.95355334159E+02  0.90630202140E+02 0.  0.
         13    1    3    3    0    0  0.60082250715E+01  0.39007001407E+02 -0.24598790236E+02  0.46505446696E+02  0.10566000000E+00 0. -1.
         22    1    1    0    0    0  0.26912434194E+02 -0.55207384473E+01  0.11137708272E+02  0.29644665841E+02  0.00000000000E+00 0. -1.
</event>
<event>
 5    1  0.9034917E-005  0.9118800E+02  0.7818608E-02  0.1130116E+00
         25   -1    0    0    0    0  0.00000000000E+00  0.00000000000E+00  0.99999998245E-14  0.12500000000E+03  0.12500000000E+03 0.  0.
        -13    1    3    3    0    0  0.52693287064E+02 -0.10419258723E+02  0.12396271693E+02  0.55125512877E+02  0.10566000000E+00 0.  1.
         23    2    1    0    0    0  0.26664198615E+02  0.97443126847E+01 -0.99497582606E+01  0.94917965379E+02  0.90024948458E+02 0.  0.
         13    1    3    3    0    0 -0.26029088449E+02  0.20163571408E+02 -0.22346029954E+02  0.39792452503E+02  0.10566000000E+00 0. -1.
         22    1    1    0    0    0 -0.26664198615E+02 -0.97443126847E+01  0.99497582606E+01  0.30082034621E+02  0.00000000000E+00 0.  1.
</event>
<event>
 5    1  0.9034917E-005  0.9118800E+02  0.7818608E-02  0.1130116E+00
         25   -1    0    0    0    0  0.00000000000E+00  0.00000000000E+00  0.99999998245E-14  0.12500000000E+03  0.12500000000E+03 0.  0.
        -13    1    3    3    0    0 -0.45066694591E+02  0.10656270438E+02  0.29969937361E+02  0.55161321326E+02  0.10566000000E+00 0.  1.
         23    2    1    0    0    0 -0.28484334809E+02  0.16843729953E+01 -0.60629635226E+01  0.95828884687E+02  0.91281001155E+02 0.  0.
         13    1    3    3    0    0  0.16582359781E+02 -0.89718974430E+01 -0.36032900883E+02  0.40667563361E+02  0.10566000000E+00 0. -1.
         22    1    1    0    0    0  0.28484334809E+02 -0.16843729953E+01  0.60629635226E+01  0.29171115313E+02  0.00000000000E+00 0.  1.
</event>
<event>
 5    1  0.9034917E-005  0.9118800E+02  0.7818608E-02  0.1130116E+00
         25   -1    0    0    0    0  0.00000000000E+00  0.00000000000E+00  0.99999998245E-14  0.12500000000E+03  0.12500000000E+03 0.  0.
        -13    1    3    3    0    0 -0.23810047502E+02 -0.55106866475E+02  0.17282915181E+02  0.62469155716E+02  0.10566000000E+00 0. -1.
         23    2    1    0    0    0 -0.10249889107E+02 -0.26615593326E+02  0.73969588307E+01  0.95535359586E+02  0.90878159623E+02 0.  0.
         13    1    3    3    0    0  0.13560158395E+02  0.28491273149E+02 -0.98859563500E+01  0.33066203869E+02  0.10566000000E+00 0.  1.
         22    1    1    0    0    0  0.10249889107E+02  0.26615593326E+02 -0.73969588307E+01  0.29464640414E+02  0.00000000000E+00 0. -1.
</event>
<event>
 5    1  0.9034917E-005  0.9118800E+02  0.7818608E-02  0.1130116E+00
         25   -1    0    0    0    0  0.00000000000E+00  0.00000000000E+00  0.99999998245E-14  0.12500000000E+03  0.12500000000E+03 0.  0.
        -13    1    3    3    0    0 -0.10585160147E+02 -0.44007149879E+02  0.11787559618E+02  0.46772134670E+02  0.10566000000E+00 0.  1.
         23    2    1    0    0    0  0.87768359868E+01 -0.34829072791E+01  0.28717910432E+02  0.94769520800E+02  0.89818596070E+02 0.  0.
         13    1    3    3    0    0  0.19361996134E+02  0.40524242600E+02  0.16930350814E+02  0.47997386130E+02  0.10566000000E+00 0. -1.
         22    1    1    0    0    0 -0.87768359868E+01  0.34829072791E+01 -0.28717910432E+02  0.30230479200E+02  0.00000000000E+00 0.  1.
</event>
<event>
 5    1  0.9034917E-005  0.9118800E+02  0.7818608E-02  0.1130116E+00
         25   -1    0    0    0    0  0.00000000000E+00  0.00000000000E+00  0.99999998245E-14  0.12500000000E+03  0.12500000000E+03 0.  0.
        -13    1    3    3    0    0  0.31643222913E+02 -0.83647134410E+01 -0.11746150533E+02  0.34774203135E+02  0.10566000000E+00 0.  1.
         23    2    1    0    0    0 -0.27012190004E+02 -0.11575249393E+02  0.33378438161E+01  0.95423218420E+02  0.90723781915E+02 0.  0.
         13    1    3    3    0    0 -0.58655412916E+02 -0.32105359523E+01  0.15083994350E+02  0.60649015285E+02  0.10566000000E+00 0. -1.
         22    1    1    0    0    0  0.27012190004E+02  0.11575249393E+02 -0.33378438161E+01  0.29576781580E+02  0.00000000000E+00 0. -1.
</event>
<event>
 5    1  0.9034917E-005  0.9118800E+02  0.7818608E-02  0.1130116E+00
         25   -1    0    0    0    0  0.00000000000E+00  0.00000000000E+00  0.99999998245E-14  0.12500000000E+03  0.12500000000E+03 0.  0.
        -13    1    3    3    0    0  0.11649430737E+02  0.24208516698E+02 -0.21305313959E+02  0.34288322854E+02  0.10566000000E+00 0. -1.
         23    2    1    0    0    0 -0.91941953390E+01 -0.29313040122E+02 -0.82476624408E+01  0.93191015658E+02  0.87594257315E+02 0.  0.
         13    1    3    3    0    0 -0.20843626076E+02 -0.53521556820E+02  0.13057651518E+02  0.58902692804E+02  0.10566000000E+00 0.  1.
         22    1    1    0    0    0  0.91941953390E+01  0.29313040122E+02  0.82476624408E+01  0.31808984342E+02  0.00000000000E+00 0.  1.
</event>
<event>
 5    1  0.9034917E-005  0.9118800E+02  0.7818608E-02  0.1130116E+00
         25   -1    0    0    0    0  0.00000000000E+00  0.00000000000E+00  0.99999998245E-14  0.12500000000E+03  0.12500000000E+03 0.  0.
        -13    1    3    3    0    0 -0.37889935331E+02  0.12331542813E+01 -0.42212099056E+02  0.56736587311E+02  0.10566000000E+00 0.  1.
         23    2    1    0    0    0 -0.48446011655E+01 -0.14297899100E+02 -0.21543052567E+02  0.98694046433E+02  0.95123664818E+02 0.  0.
         13    1    3    3    0    0  0.33045334166E+02 -0.15531053381E+02  0.20669046489E+02  0.41957459123E+02  0.10566000000E+00 0. -1.
         22    1    1    0    0    0  0.48446011655E+01  0.14297899100E+02  0.21543052567E+02  0.26305953567E+02  0.00000000000E+00 0.  1.
</event>
<event>
 5    1  0.9034917E-005  0.9118800E+02  0.7818608E-02  0.1130116E+00
         25   -1    0    0    0    0  0.00000000000E+00  0.00000000000E+00  0.99999998245E-14  0.12500000000E+03  0.12500000000E+03 0.  0.
        -13    1    3    3    0    0 -0.22349197554E+02 -0.41726404113E+02 -0.34560460513E+02  0.58609009771E+02  0.10566000000E+00 0. -1.
         23    2    1    0    0    0 -0.20789724976E+02 -0.79327150079E+01 -0.18522397143E+02  0.96047973683E+02  0.91580529703E+02 0.  0.
         13    1    3    3    0    0  0.15594725781E+01  0.33793689105E+02  0.16038063370E+02  0.37438963911E+02  0.10566000000E+00 0.  1.
         22    1    1    0    0    0  0.20789724976E+02  0.79327150079E+01  0.18522397143E+02  0.28952026317E+02  0.00000000000E+00 0. -1.
</event>
<event>
 5    1  0.9034917E-005  0.9118800E+02  0.7818608E-02  0.1130116E+00
         25   -1    0    0    0    0  0.00000000000E+00  0.00000000000E+00  0.99999998245E-14  0.12500000000E+03  0.12500000000E+03 0.  0.
        -13    1    3    3    0    0 -0.28031878211E+02  0.18170287280E+02 -0.40194944616E+02  0.52264617789E+02  0.10566000000E+00 0.  1.
         23    2    1    0    0    0 -0.27241567967E+02 -0.87397966489E+01 -0.60298154068E+01  0.95762254796E+02  0.91189712682E+02 0.  0.
         13    1    3    3    0    0  0.79031024424E+00 -0.26910083929E+02  0.34165129209E+02  0.43497637008E+02  0.10566000000E+00 0. -1.
         22    1    1    0    0    0  0.27241567967E+02  0.87397966489E+01  0.60298154068E+01  0.29237745204E+02  0.00000000000E+00 0.  1.
</event>
<event>
 5    1  0.9034917E-005  0.9118800E+02  0.7818608E-02  0.1130116E+00
         25   -1    0    0    0    0  0.00000000000E+00  0.00000000000E+00  0.99999998245E-14  0.12500000000E+03  0.12500000000E+03 0.  0.
        -13    1    3    3    0    0  0.47832915989E+01 -0.21904862219E+02  0.23091734158E+02  0.32186056264E+02  0.10566000000E+00 0.  1.
         23    2    1    0    0    0 -0.71308855844E+01  0.15434962763E+02 -0.25336139597E+02  0.94487583276E+02  0.89425364516E+02 0.  0.
         13    1    3    3    0    0 -0.11914177183E+02  0.37339824982E+02 -0.48427873755E+02  0.62301527012E+02  0.10566000000E+00 0. -1.
         22    1    1    0    0    0  0.71308855844E+01 -0.15434962763E+02  0.25336139597E+02  0.30512416724E+02  0.00000000000E+00 0. -1.
</event>
<event>
 5    1  0.9034917E-005  0.9118800E+02  0.7818608E-02  0.1130116E+00
         25   -1    0    0    0    0  0.00000000000E+00  0.00000000000E+00  0.99999998245E-14  0.12500000000E+03  0.12500000000E+03 0.  0.
        -13    1    3    3    0    0 -0.41878331326E+01 -0.32545791040E+02 -0.32033822817E+02  0.45857861148E+02  0.10566000000E+00 0. -1.
         23    2    1    0    0    0 -0.27636703573E+02  0.50165946338E+01 -0.12500868223E+02  0.94255483213E+02  0.89100341208E+02 0.  0.
         13    1    3    3    0    0 -0.23448870440E+02  0.37562385673E+02  0.19532954594E+02  0.48397622066E+02  0.10566000000E+00 0.  1.
         22    1    1    0    0    0  0.27636703573E+02 -0.50165946338E+01  0.12500868223E+02  0.30744516787E+02  0.00000000000E+00 0.  1.
</event>
<event>
 5    1  0.9034917E-005  0.9118800E+02  0.7818608E-02  0.1130116E+00
         25   -1    0    0    0    0  0.00000000000E+00  0.00000000000E+00  0.99999998245E-14  0.12500000000E+03  0.12500000000E+03 0.  0.
        -13    1    3    3    0    0  0.26425465983E+02  0.11998332722E+02 -0.18458822030E+02  0.34394832683E+02  0.10566000000E+00 0. -1.
         23    2    1    0    0    0 -0.21939155326E+02 -0.11177070197E+02 -0.26728172157E+02  0.88659270488E+02  0.80869138873E+02 0.  0.
         13    1    3    3    0    0 -0.48364621309E+02 -0.23175402919E+02 -0.82693501266E+01  0.54264437806E+02  0.10566000000E+00 0.  1.
         22    1    1    0    0    0  0.21939155326E+02  0.11177070197E+02  0.26728172157E+02  0.36340729512E+02  0.00000000000E+00 0.  1.
</event>
<event>
 5    1  0.9034917E-005  0.9118800E+02  0.7818608E-02  0.1130116E+00
         25   -1    0    0    0    0  0.00000000000E+00  0.00000000000E+00  0.99999998245E-14  0.12500000000E+03  0.12500000000E+03 0.  0.
        -13    1    3    3    0    0  0.30511477266E+02  0.82302831262E+01 -0.12643915007E+02  0.34037737234E+02  0.10566000000E+00 0. -1.
         23    2    1    0    0    0 -0.27402662132E+02  0.70033185850E+01  0.81201721282E+01  0.95573998598E+02  0.90931290817E+02 0.  0.
         13    1    3    3    0    0 -0.57914139397E+02 -0.12269645412E+01  0.20764087135E+02  0.61536261364E+02  0.10566000000E+00 0.  1.
         22    1    1    0    0    0  0.27402662132E+02 -0.70033185850E+01 -0.81201721282E+01  0.29426001402E+02  0.00000000000E+00 0.  1.
</event>
<event>
 5    1  0.9034917E-005  0.9118800E+02  0.7818608E-02  0.1130116E+00
         25   -1    0    0    0    0  0.00000000000E+00  0.00000000000E+00  0.99999998245E-14  0.12500000000E+03  0.12500000000E+03 0.  0.
        -13    1    3    3    0    0 -0.63798012713E+01 -0.29394923104E+02 -0.18835108419E+02  0.35489940008E+02  0.10566000000E+00 0. -1.
         23    2    1    0    0    0 -0.13201125838E+02  0.13358319519E+02  0.22735486735E+02  0.95510734481E+02  0.90844282265E+02 0.  0.
         13    1    3    3    0    0 -0.68213245664E+01  0.42753242623E+02  0.41570595155E+02  0.60020794473E+02  0.10566000000E+00 0.  1.
         22    1    1    0    0    0  0.13201125838E+02 -0.13358319519E+02 -0.22735486735E+02  0.29489265519E+02  0.00000000000E+00 0.  1.
</event>
<event>
 5    1  0.9034917E-005  0.9118800E+02  0.7818608E-02  0.1130116E+00
         25   -1    0    0    0    0  0.00000000000E+00  0.00000000000E+00  0.99999998245E-14  0.12500000000E+03  0.12500000000E+03 0.  0.
        -13    1    3    3    0    0 -0.59744666923E+02  0.88613560158E+01 -0.55845742147E+00  0.60400926275E+02  0.10566000000E+00 0. -1.
         23    2    1    0    0    0 -0.29963693321E+02 -0.56157456397E+01 -0.59184004579E+01  0.93945419331E+02  0.88664281606E+02 0.  0.
         13    1    3    3    0    0  0.29780973601E+02 -0.14477101656E+02 -0.53599430364E+01  0.33544493056E+02  0.10566000000E+00 0.  1.
         22    1    1    0    0    0  0.29963693321E+02  0.56157456397E+01  0.59184004579E+01  0.31054580669E+02  0.00000000000E+00 0. -1.
</event>
<event>
 5    1  0.9034917E-005  0.9118800E+02  0.7818608E-02  0.1130116E+00
         25   -1    0    0    0    0  0.00000000000E+00  0.00000000000E+00  0.99999998245E-14  0.12500000000E+03  0.12500000000E+03 0.  0.
        -13    1    3    3    0    0  0.29213678334E+02  0.23114791194E+02  0.44288703283E+02  0.57872558059E+02  0.10566000000E+00 0.  1.
         23    2    1    0    0    0 -0.16975807359E+01  0.45188564907E+01  0.26444426082E+02  0.98118602805E+02  0.94364456768E+02 0.  0.
         13    1    3    3    0    0 -0.30911259070E+02 -0.18595934703E+02 -0.17844277201E+02  0.40246044745E+02  0.10566000000E+00 0. -1.
         22    1    1    0    0    0  0.16975807359E+01 -0.45188564907E+01 -0.26444426082E+02  0.26881397195E+02  0.00000000000E+00 0. -1.
</event>
<event>
 5    1  0.9034917E-005  0.9118800E+02  0.7818608E-02  0.1130116E+00
         25   -1    0    0    0    0  0.00000000000E+00  0.00000000000E+00  0.99999998245E-14  0.12500000000E+03  0.12500000000E+03 0.  0.
        -13    1    3    3    0    0  0.31276960447E+02  0.26539726413E+02  0.81535176275E+01  0.41822199208E+02  0.10566000000E+00 0.  1.
         23    2    1    0    0    0  0.12943959637E+01 -0.85756993816E+01 -0.24916454255E+02  0.98617282676E+02  0.95022737642E+02 0.  0.
         13    1    3    3    0    0 -0.29982564484E+02 -0.35115425794E+02 -0.33069971882E+02  0.56795083467E+02  0.10566000000E+00 0. -1.
         22    1    1    0    0    0 -0.12943959637E+01  0.85756993816E+01  0.24916454255E+02  0.26382717324E+02  0.00000000000E+00 0. -1.
</event>
<event>
 5    1  0.9034917E-005  0.9118800E+02  0.7818608E-02  0.1130116E+00
         25   -1    0    0    0    0  0.00000000000E+00  0.00000000000E+00  0.99999998245E-14  0.12500000000E+03  0.12500000000E+03 0.  0.
        -13    1    3    3    0    0  0.25719877846E+02  0.28685977445E+02  0.28067593286E+01  0.38630124002E+02  0.10566000000E+00 0.  1.
         23    2    1    0    0    0 -0.27676815323E+02  0.73456626333E+01  0.36049671189E+01  0.96138942260E+02  0.91704610380E+02 0.  0.
         13    1    3    3    0    0 -0.53396693169E+02 -0.21340314812E+02  0.79820779029E+00  0.57508818258E+02  0.10566000000E+00 0. -1.
         22    1    1    0    0    0  0.27676815323E+02 -0.73456626333E+01 -0.36049671189E+01  0.28861057740E+02  0.00000000000E+00 0. -1.
</event>
<event>
 5    1  0.9034917E-005  0.9118800E+02  0.7818608E-02  0.1130116E+00
         25   -1    0    0    0    0  0.00000000000E+00  0.00000000000E+00  0.99999998245E-14  0.12500000000E+03  0.12500000000E+03 0.  0.
        -13    1    3    3    0    0 -0.53584203120E+02  0.47364148969E+01  0.10624313144E+02  0.54832359460E+02  0.10566000000E+00 0.  1.
         23    2    1    0    0    0 -0.19961863124E+02 -0.13096968405E+02  0.19801268835E+02  0.93982314588E+02  0.88716281747E+02 0.  0.
         13    1    3    3    0    0  0.33622339996E+02 -0.17833383302E+02  0.91769556913E+01  0.39149955129E+02  0.10566000000E+00 0. -1.
         22    1    1    0    0    0  0.19961863124E+02  0.13096968405E+02 -0.19801268835E+02  0.31017685412E+02  0.00000000000E+00 0.  1.
</event>
<event>
 5    1  0.9034917E-005  0.9118800E+02  0.7818608E-02  0.1130116E+00
         25   -1    0    0    0    0  0.00000000000E+00  0.00000000000E+00  0.99999998245E-14  0.12500000000E+03  0.12500000000E+03 0.  0.
        -13    1    3    3    0    0 -0.26806826553E+02  0.26225982475E+02  0.34337031186E+00  0.37503828788E+02  0.10566000000E+00 0. -1.
         23    2    1    0    0    0  0.23435557541E+02  0.29268572255E+01  0.17637688881E+02  0.95523230850E+02  0.90861475403E+02 0.  0.
         13    1    3    3    0    0  0.50242384094E+02 -0.23299125249E+02  0.17294318569E+02  0.58019402062E+02  0.10566000000E+00 0.  1.
         22    1    1    0    0    0 -0.23435557541E+02 -0.29268572255E+01 -0.17637688881E+02  0.29476769150E+02  0.00000000000E+00 0.  1.
</event>
<event>
 5    1  0.9034917E-005  0.9118800E+02  0.7818608E-02  0.1130116E+00
         25   -1    0    0    0    0  0.00000000000E+00  0.00000000000E+00  0.99999998245E-14  0.12500000000E+03  0.12500000000E+03 0.  0.
        -13    1    3    3    0    0 -0.31049940879E+02  0.10734168362E+02  0.56652470854E+01  0.33338077143E+02  0.10566000000E+00 0. -1.
         23    2    1    0    0    0  0.20950973620E+02  0.14717258153E+02 -0.20975268533E+02  0.91901618270E+02  0.85734500450E+02 0.  0.
         13    1    3    3    0    0  0.52000914498E+02  0.39830897905E+01 -0.26640515618E+02  0.58563541127E+02  0.10566000000E+00 0.  1.
         22    1    1    0    0    0 -0.20950973620E+02 -0.14717258153E+02  0.20975268533E+02  0.33098381730E+02  0.00000000000E+00 0.  1.
</event>
<event>
 5    1  0.9034917E-005  0.9118800E+02  0.7818608E-02  0.1130116E+00
         25   -1    0    0    0    0  0.00000000000E+00  0.00000000000E+00  0.99999998245E-14  0.12500000000E+03  0.12500000000E+03 0.  0.
        -13    1    3    3    0    0  0.20608668542E+02  0.91130867986E+01 -0.33961929361E+02  0.40757691054E+02  0.10566000000E+00 0. -1.
         23    2    1    0    0    0 -0.14089706094E+02 -0.24542521313E+02 -0.81830373278E+01  0.95541261567E+02  0.90886277246E+02 0.  0.
         13    1    3    3    0    0 -0.34698374635E+02 -0.33655608111E+02  0.25778892033E+02  0.54783570513E+02  0.10566000000E+00 0.  1.
         22    1    1    0    0    0  0.14089706094E+02  0.24542521313E+02  0.81830373278E+01  0.29458738433E+02  0.00000000000E+00 0.  1.
</event>
<event>
 5    1  0.9034917E-005  0.9118800E+02  0.7818608E-02  0.1130116E+00
         25   -1    0    0    0    0  0.00000000000E+00  0.00000000000E+00  0.99999998245E-14  0.12500000000E+03  0.12500000000E+03 0.  0.
        -13    1    3    3    0    0  0.13555225174E+02 -0.11933659418E+02 -0.40353252627E+02  0.44210321399E+02  0.10566000000E+00 0.  1.
         23    2    1    0    0    0 -0.23507639256E+02  0.11392256446E+02 -0.13279741539E+02  0.95695663365E+02  0.91098385502E+02 0.  0.
         13    1    3    3    0    0 -0.37062864430E+02  0.23325915864E+02  0.27073511088E+02  0.51485341965E+02  0.10566000000E+00 0. -1.
         22    1    1    0    0    0  0.23507639256E+02 -0.11392256446E+02  0.13279741539E+02  0.29304336635E+02  0.00000000000E+00 0.  1.
</event>
<event>
 5    1  0.9034917E-005  0.9118800E+02  0.7818608E-02  0.1130116E+00
         25   -1    0    0    0    0  0.00000000000E+00  0.00000000000E+00  0.99999998245E-14  0.12500000000E+03  0.12500000000E+03 0.  0.
        -13    1    3    3    0    0  0.50661396030E+02 -0.25026910897E+02 -0.19076267939E+02  0.59639236072E+02  0.10566000000E+00 0. -1.
         23    2    1    0    0    0  0.26533367680E+02  0.15652007172E+01 -0.71400089312E+01  0.97478205341E+02  0.93512305796E+02 0.  0.
         13    1    3    3    0    0 -0.24128028350E+02  0.26592111614E+02  0.11936259007E+02  0.37838969269E+02  0.10566000000E+00 0.  1.
         22    1    1    0    0    0 -0.26533367680E+02 -0.15652007172E+01  0.71400089312E+01  0.27521794659E+02  0.00000000000E+00 0. -1.
</event>
<event>
 5    1  0.9034917E-005  0.9118800E+02  0.7818608E-02  0.1130116E+00
         25   -1    0    0    0    0  0.00000000000E+00  0.00000000000E+00  0.99999998245E-14  0.12500000000E+03  0.12500000000E+03 0.  0.
        -13    1    3    3    0    0  0.55375620339E+02  0.10074507534E+02 -0.44651510534E+01  0.56461524669E+02  0.10566000000E+00 0. -1.
         23    2    1    0    0    0  0.18707228454E+02  0.21588282744E+02 -0.87267713001E+01  0.95130770255E+02  0.90319945547E+02 0.  0.
         13    1    3    3    0    0 -0.36668391885E+02  0.11513775210E+02 -0.42616202466E+01  0.38669245586E+02  0.10566000000E+00 0.  1.
         22    1    1    0    0    0 -0.18707228454E+02 -0.21588282744E+02  0.87267713001E+01  0.29869229745E+02  0.00000000000E+00 0. -1.
</event>
<event>
 5    1  0.9034917E-005  0.9118800E+02  0.7818608E-02  0.1130116E+00
         25   -1    0    0    0    0  0.00000000000E+00  0.00000000000E+00  0.99999998245E-14  0.12500000000E+03  0.12500000000E+03 0.  0.
        -13    1    3    3    0    0  0.32931796781E+02  0.15412234882E+02 -0.58436309223E+00  0.36364720095E+02  0.10566000000E+00 0.  1.
         23    2    1    0    0    0 -0.23311254877E+02  0.11398709262E+02 -0.15608901329E+02  0.94718273209E+02  0.89747246766E+02 0.  0.
         13    1    3    3    0    0 -0.56243051658E+02 -0.40135256200E+01 -0.15024538237E+02  0.58353553114E+02  0.10566000000E+00 0. -1.
         22    1    1    0    0    0  0.23311254877E+02 -0.11398709262E+02  0.15608901329E+02  0.30281726791E+02  0.00000000000E+00 0. -1.
</event>
<event>
 5    1  0.9034917E-005  0.9118800E+02  0.7818608E-02  0.1130116E+00
         25   -1    0    0    0    0  0.00000000000E+00  0.00000000000E+00  0.99999998245E-14  0.12500000000E+03  0.12500000000E+03 0.  0.
        -13    1    3    3    0    0 -0.28682560368E+02  0.45286387678E+02  0.15861295330E+02  0.55902934018E+02  0.10566000000E+00 0.  1.
         23    2    1    0    0    0 -0.25672081676E+02  0.62747774104E+01  0.14042880471E+02  0.95072903565E+02  0.90239824308E+02 0.  0.
         13    1    3    3    0    0  0.30104786927E+01 -0.39011610268E+02 -0.18184148591E+01  0.39169969547E+02  0.10566000000E+00 0. -1.
         22    1    1    0    0    0  0.25672081676E+02 -0.62747774104E+01 -0.14042880471E+02  0.29927096435E+02  0.00000000000E+00 0.  1.
</event>
<event>
 5    1  0.9034917E-005  0.9118800E+02  0.7818608E-02  0.1130116E+00
         25   -1    0    0    0    0  0.00000000000E+00  0.00000000000E+00  0.99999998245E-14  0.12500000000E+03  0.12500000000E+03 0.  0.
        -13    1    3    3    0    0  0.79757245384E+01  0.21512888367E+01  0.35193546833E+02  0.36150202327E+02  0.10566000000E+00 0.  1.
         23    2    1    0    0    0 -0.14285857834E+02 -0.87017539204E+00 -0.22652041605E+02  0.98205263052E+02  0.94479181637E+02 0.  0.
         13    1    3    3    0    0 -0.22261582373E+02 -0.30214642288E+01 -0.57845588437E+02  0.62055060725E+02  0.10566000000E+00 0. -1.
         22    1    1    0    0    0  0.14285857834E+02  0.87017539204E+00  0.22652041605E+02  0.26794736948E+02  0.00000000000E+00 0. -1.
</event>
<event>
 5    1  0.9034917E-005  0.9118800E+02  0.7818608E-02  0.1130116E+00
         25   -1    0    0    0    0  0.00000000000E+00  0.00000000000E+00  0.99999998245E-14  0.12500000000E+03  0.12500000000E+03 0.  0.
        -13    1    3    3    0    0  0.20424362749E+02  0.11193213640E-01 -0.25785810258E+02  0.32894891605E+02  0.10566000000E+00 0. -1.
         23    2    1    0    0    0 -0.83980437492E+01  0.11751264450E+02  0.27118810894E+02  0.94274615393E+02  0.89127177943E+02 0.  0.
         13    1    3    3    0    0 -0.28822406498E+02  0.11740071236E+02  0.52904621152E+02  0.61379723788E+02  0.10566000000E+00 0.  1.
         22    1    1    0    0    0  0.83980437492E+01 -0.11751264450E+02 -0.27118810894E+02  0.30725384607E+02  0.00000000000E+00 0.  1.
</event>
<event>
 5    1  0.9034917E-005  0.9118800E+02  0.7818608E-02  0.1130116E+00
         25   -1    0    0    0    0  0.00000000000E+00  0.00000000000E+00  0.99999998245E-14  0.12500000000E+03  0.12500000000E+03 0.  0.
        -13    1    3    3    0    0  0.39404091225E+02 -0.18903127246E+02  0.71539057300E+01  0.44285439550E+02  0.10566000000E+00 0.  1.
         23    2    1    0    0    0 -0.11125970711E+02 -0.24192394556E+02  0.12892852424E+02  0.95414787102E+02  0.90712164429E+02 0.  0.
         13    1    3    3    0    0 -0.50530061935E+02 -0.52892673101E+01  0.57389466937E+01  0.51129347551E+02  0.10566000000E+00 0. -1.
         22    1    1    0    0    0  0.11125970711E+02  0.24192394556E+02 -0.12892852424E+02  0.29585212898E+02  0.00000000000E+00 0.  1.
</event>
<event>
 5    1  0.9034917E-005  0.9118800E+02  0.7818608E-02  0.1130116E+00
         25   -1    0    0    0    0  0.00000000000E+00  0.00000000000E+00  0.99999998245E-14  0.12500000000E+03  0.12500000000E+03 0.  0.
        -13    1    3    3    0    0 -0.96386070425E+01  0.46469213278E+01 -0.37263409780E+02  0.38769440233E+02  0.10566000000E+00 0.  1.
         23    2    1    0    0    0 -0.56737510771E+01 -0.86675861632E+01  0.22554880624E+02  0.10017982391E+03  0.97056457681E+02 0.  0.
         13    1    3    3    0    0  0.39648559654E+01 -0.13314507491E+02  0.59818290403E+02  0.61410383677E+02  0.10566000000E+00 0. -1.
         22    1    1    0    0    0  0.56737510771E+01  0.86675861632E+01 -0.22554880624E+02  0.24820176090E+02  0.00000000000E+00 0. -1.
</event>
<event>
 5    1  0.9034917E-005  0.9118800E+02  0.7818608E-02  0.1130116E+00
         25   -1    0    0    0    0  0.00000000000E+00  0.00000000000E+00  0.99999998245E-14  0.12500000000E+03  0.12500000000E+03 0.  0.
        -13    1    3    3    0    0 -0.19003481216E+01  0.22541846918E+02  0.27558280949E+02  0.35654118954E+02  0.10566000000E+00 0.  1.
         23    2    1    0    0    0 -0.15599017122E+02 -0.21583013239E+02 -0.11345200557E+02  0.96054026682E+02  0.91588791184E+02 0.  0.
         13    1    3    3    0    0 -0.13698669000E+02 -0.44124860157E+02 -0.38903481506E+02  0.60399907728E+02  0.10566000000E+00 0. -1.
         22    1    1    0    0    0  0.15599017122E+02  0.21583013239E+02  0.11345200557E+02  0.28945973318E+02  0.00000000000E+00 0. -1.
</event>
<event>
 5    1  0.9034917E-005  0.9118800E+02  0.7818608E-02  0.1130116E+00
         25   -1    0    0    0    0  0.00000000000E+00  0.00000000000E+00  0.99999998245E-14  0.12500000000E+03  0.12500000000E+03 0.  0.
        -13    1    3    3    0    0  0.10839999420E+02  0.38016369364E+02 -0.46589653055E+01  0.39805364573E+02  0.10566000000E+00 0. -1.
         23    2    1    0    0    0 -0.28759818677E+02 -0.17164006360E+01 -0.40522227301E+01  0.95905435035E+02  0.91385768907E+02 0.  0.
         13    1    3    3    0    0 -0.39599818097E+02 -0.39732770000E+02  0.60674257536E+00  0.56100070461E+02  0.10566000000E+00 0.  1.
         22    1    1    0    0    0  0.28759818677E+02  0.17164006360E+01  0.40522227301E+01  0.29094564965E+02  0.00000000000E+00 0.  1.
</event>
<event>
 5    1  0.9034917E-005  0.9118800E+02  0.7818608E-02  0.1130116E+00
         25   -1    0    0    0    0  0.00000000000E+00  0.00000000000E+00  0.99999998245E-14  0.12500000000E+03  0.12500000000E+03 0.  0.
        -13    1    3    3    0    0 -0.86878612263E+01 -0.45061368448E+00 -0.55803047553E+02  0.56477192437E+02  0.10566000000E+00 0. -1.
         23    2    1    0    0    0 -0.19855050609E+02  0.10515465650E+02 -0.22870840074E+02  0.92939535590E+02  0.87234648491E+02 0.  0.
         13    1    3    3    0    0 -0.11167189382E+02  0.10966079335E+02  0.32932207479E+02  0.36462343152E+02  0.10566000000E+00 0.  1.
         22    1    1    0    0    0  0.19855050609E+02 -0.10515465650E+02  0.22870840074E+02  0.32060464410E+02  0.00000000000E+00 0. -1.
</event>
<event>
 5    1  0.9034917E-005  0.9118800E+02  0.7818608E-02  0.1130116E+00
         25   -1    0    0    0    0  0.00000000000E+00  0.00000000000E+00  0.99999998245E-14  0.12500000000E+03  0.12500000000E+03 0.  0.
        -13    1    3    3    0    0 -0.23977031661E+02 -0.35477979445E+02 -0.31786752171E+02  0.53329108847E+02  0.10566000000E+00 0.  1.
         23    2    1    0    0    0 -0.94321981181E+01 -0.29887863019E+02  0.49839844980E+01  0.93265305758E+02  0.87700207750E+02 0.  0.
         13    1    3    3    0    0  0.14544833543E+02  0.55901164264E+01  0.36770736669E+02  0.39936196910E+02  0.10566000000E+00 0. -1.
         22    1    1    0    0    0  0.94321981181E+01  0.29887863019E+02 -0.49839844980E+01  0.31734694242E+02  0.00000000000E+00 0.  1.
</event>
<event>
 5    1  0.9034917E-005  0.9118800E+02  0.7818608E-02  0.1130116E+00
         25   -1    0    0    0    0  0.00000000000E+00  0.00000000000E+00  0.99999998245E-14  0.12500000000E+03  0.12500000000E+03 0.  0.
        -13    1    3    3    0    0 -0.70574126001E+01 -0.33634379114E+02  0.26025380914E+02  0.43109281445E+02  0.10566000000E+00 0.  1.
         23    2    1    0    0    0 -0.15741543562E+02  0.17256375975E+02  0.18335627989E+02  0.95305321028E+02  0.90561196199E+02 0.  0.
         13    1    3    3    0    0 -0.86841309616E+01  0.50890755089E+02 -0.76897529250E+01  0.52196039583E+02  0.10566000000E+00 0. -1.
         22    1    1    0    0    0  0.15741543562E+02 -0.17256375975E+02 -0.18335627989E+02  0.29694678972E+02  0.00000000000E+00 0. -1.
</event>
<event>
 5    1  0.9034917E-005  0.9118800E+02  0.7818608E-02  0.1130116E+00
         25   -1    0    0    0    0  0.00000000000E+00  0.00000000000E+00  0.99999998245E-14  0.12500000000E+03  0.12500000000E+03 0.  0.
        -13    1    3    3    0    0  0.83315305641E+01 -0.33220875896E+02  0.38702830171E+02  0.51681343096E+02  0.10566000000E+00 0.  1.
         23    2    1    0    0    0 -0.19862409290E+02 -0.20887213457E+02  0.81491777069E+01  0.95046701582E+02  0.90203522079E+02 0.  0.
         13    1    3    3    0    0 -0.28193939855E+02  0.12333662439E+02 -0.30553652464E+02  0.43365358486E+02  0.10566000000E+00 0. -1.
         22    1    1    0    0    0  0.19862409290E+02  0.20887213457E+02 -0.81491777069E+01  0.29953298418E+02  0.00000000000E+00 0.  1.
</event>
<event>
 5    1  0.9034917E-005  0.9118800E+02  0.7818608E-02  0.1130116E+00
         25   -1    0    0    0    0  0.00000000000E+00  0.00000000000E+00  0.99999998245E-14  0.12500000000E+03  0.12500000000E+03 0.  0.
        -13    1    3    3    0    0  0.48300452517E+02 -0.33534327998E+02  0.75207949266E+01  0.59279493823E+02  0.10566000000E+00 0. -1.
         23    2    1    0    0    0  0.28184101760E+02 -0.26515581559E+01  0.52709807975E+01  0.96204903347E+02  0.91794476069E+02 0.  0.
         13    1    3    3    0    0 -0.20116350757E+02  0.30882769842E+02 -0.22498141291E+01  0.36925409524E+02  0.10566000000E+00 0.  1.
         22    1    1    0    0    0 -0.28184101760E+02  0.26515581559E+01 -0.52709807975E+01  0.28795096653E+02  0.00000000000E+00 0. -1.
</event>
<event>
 5    1  0.9034917E-005  0.9118800E+02  0.7818608E-02  0.1130116E+00
         25   -1    0    0    0    0  0.00000000000E+00  0.00000000000E+00  0.99999998245E-14  0.12500000000E+03  0.12500000000E+03 0.  0.
        -13    1    3    3    0    0 -0.31227678662E+02 -0.64047798922E+01 -0.28273784613E+02  0.42609942273E+02  0.10566000000E+00 0.  1.
         23    2    1    0    0    0  0.97924182763E+01  0.20362412254E+02 -0.24402002053E+02  0.91743767612E+02  0.85504046120E+02 0.  0.
         13    1    3    3    0    0  0.41020096939E+02  0.26767192146E+02  0.38717825598E+01  0.49133825339E+02  0.10566000000E+00 0. -1.
         22    1    1    0    0    0 -0.97924182763E+01 -0.20362412254E+02  0.24402002053E+02  0.33256232388E+02  0.00000000000E+00 0. -1.
</event>
<event>
 5    1  0.9034917E-005  0.9118800E+02  0.7818608E-02  0.1130116E+00
         25   -1    0    0    0    0  0.00000000000E+00  0.00000000000E+00  0.99999998245E-14  0.12500000000E+03  0.12500000000E+03 0.  0.
        -13    1    3    3    0    0 -0.86196273529E+01 -0.47143597733E+02  0.16257015678E+02  0.50607494560E+02  0.10566000000E+00 0. -1.
         23    2    1    0    0    0  0.12969363280E+02 -0.82962338931E+01  0.24747218290E+02  0.95854559639E+02  0.91316153609E+02 0.  0.
         13    1    3    3    0    0  0.21588990633E+02  0.38847363840E+02  0.84902026124E+01  0.45247065079E+02  0.10566000000E+00 0.  1.
         22    1    1    0    0    0 -0.12969363280E+02  0.82962338931E+01 -0.24747218290E+02  0.29145440361E+02  0.00000000000E+00 0. -1.
</event>
<event>
 5    1  0.9034917E-005  0.9118800E+02  0.7818608E-02  0.1130116E+00
         25   -1    0    0    0    0  0.00000000000E+00  0.00000000000E+00  0.99999998245E-14  0.12500000000E+03  0.12500000000E+03 0.  0.
        -13    1    3    3    0    0 -0.41947810346E+02 -0.63681105456E+01  0.29810529598E+01  0.42533157248E+02  0.10566000000E+00 0.  1.
         23    2    1    0    0    0  0.15658125809E+02 -0.14000783537E+02 -0.94660645058E+01  0.10196078949E+03  0.99323699960E+02 0.  0.
         13    1    3    3    0    0  0.57605936154E+02 -0.76326729910E+01 -0.12447117466E+02  0.59427632247E+02  0.10566000000E+00 0. -1.
         22    1    1    0    0    0 -0.15658125809E+02  0.14000783537E+02  0.94660645058E+01  0.23039210505E+02  0.00000000000E+00 0. -1.
</event>
<event>
 5    1  0.9034917E-005  0.9118800E+02  0.7818608E-02  0.1130116E+00
         25   -1    0    0    0    0  0.00000000000E+00  0.00000000000E+00  0.99999998245E-14  0.12500000000E+03  0.12500000000E+03 0.  0.
        -13    1    3    3    0    0  0.19287858951E+02 -0.43474160512E+02 -0.18723220935E+01  0.47597698360E+02  0.10566000000E+00 0. -1.
         23    2    1    0    0    0 -0.18601494515E+02 -0.12448414366E+02 -0.14700560533E+02  0.98221555340E+02  0.94500734574E+02 0.  0.
         13    1    3    3    0    0 -0.37889353466E+02  0.31025746146E+02 -0.12828238440E+02  0.50623856980E+02  0.10566000000E+00 0.  1.
         22    1    1    0    0    0  0.18601494515E+02  0.12448414366E+02  0.14700560533E+02  0.26778444660E+02  0.00000000000E+00 0.  1.
</event>
<event>
 5    1  0.9034917E-005  0.9118800E+02  0.7818608E-02  0.1130116E+00
         25   -1    0    0    0    0  0.00000000000E+00  0.00000000000E+00  0.99999998245E-14  0.12500000000E+03  0.12500000000E+03 0.  0.
        -13    1    3    3    0    0  0.18466476561E+02 -0.21226252254E+02  0.32214730505E+02  0.42771071612E+02  0.10566000000E+00 0. -1.
         23    2    1    0    0    0 -0.18064301409E+02  0.15182111573E+02  0.14497991816E+02  0.97305104009E+02  0.93280630371E+02 0.  0.
         13    1    3    3    0    0 -0.36530777970E+02  0.36408363827E+02 -0.17716738689E+02  0.54534032397E+02  0.10566000000E+00 0.  1.
         22    1    1    0    0    0  0.18064301409E+02 -0.15182111573E+02 -0.14497991816E+02  0.27694895991E+02  0.00000000000E+00 0.  1.
</event>
<event>
 5    1  0.9034917E-005  0.9118800E+02  0.7818608E-02  0.1130116E+00
         25   -1    0    0    0    0  0.00000000000E+00  0.00000000000E+00  0.99999998245E-14  0.12500000000E+03  0.12500000000E+03 0.  0.
        -13    1    3    3    0    0  0.17972697197E+02  0.14207258730E+02  0.26065954189E+02  0.34703158026E+02  0.10566000000E+00 0.  1.
         23    2    1    0    0    0 -0.24447851006E+02 -0.94670463579E+01 -0.11753991008E+02  0.96268855049E+02  0.91881520244E+02 0.  0.
         13    1    3    3    0    0 -0.42420548203E+02 -0.23674305088E+02 -0.37819945196E+02  0.61565697023E+02  0.10566000000E+00 0. -1.
         22    1    1    0    0    0  0.24447851006E+02  0.94670463579E+01  0.11753991008E+02  0.28731144951E+02  0.00000000000E+00 0. -1.
</event>
<event>
 5    1  0.9034917E-005  0.9118800E+02  0.7818608E-02  0.1130116E+00
         25   -1    0    0    0    0  0.00000000000E+00  0.00000000000E+00  0.99999998245E-14  0.12500000000E+03  0.12500000000E+03 0.  0.
        -13    1    3    3    0    0 -0.49495270490E+02  0.14300690279E+02 -0.17169871951E+02  0.54305683038E+02  0.10566000000E+00 0.  1.
         23    2    1    0    0    0 -0.27050226089E+02 -0.10894143217E+02  0.59870667280E+01  0.95230182132E+02  0.90457423869E+02 0.  0.
         13    1    3    3    0    0  0.22445044402E+02 -0.25194833496E+02  0.23156938679E+02  0.40924499094E+02  0.10566000000E+00 0. -1.
         22    1    1    0    0    0  0.27050226089E+02  0.10894143217E+02 -0.59870667280E+01  0.29769817868E+02  0.00000000000E+00 0.  1.
</event>
<event>
 5    1  0.9034917E-005  0.9118800E+02  0.7818608E-02  0.1130116E+00
         25   -1    0    0    0    0  0.00000000000E+00  0.00000000000E+00  0.99999998245E-14  0.12500000000E+03  0.12500000000E+03 0.  0.
        -13    1    3    3    0    0 -0.10162265328E+02  0.38964851729E+02 -0.32939953278E+02  0.52024830541E+02  0.10566000000E+00 0.  1.
         23    2    1    0    0    0  0.19473396614E+01 -0.33220501046E+01 -0.28506649149E+02  0.96234444306E+02  0.91834694297E+02 0.  0.
         13    1    3    3    0    0  0.12109604989E+02 -0.42286901834E+02  0.44333041287E+01  0.44209613765E+02  0.10566000000E+00 0. -1.
         22    1    1    0    0    0 -0.19473396614E+01  0.33220501046E+01  0.28506649149E+02  0.28765555694E+02  0.00000000000E+00 0.  1.
</event>
<event>
 5    1  0.9034917E-005  0.9118800E+02  0.7818608E-02  0.1130116E+00
         25   -1    0    0    0    0  0.00000000000E+00  0.00000000000E+00  0.99999998245E-14  0.12500000000E+03  0.12500000000E+03 0.  0.
        -13    1    3    3    0    0 -0.22820585333E+02 -0.88801460982E+01 -0.34978337103E+02  0.42698142117E+02  0.10566000000E+00 0.  1.
         23    2    1    0    0    0  0.81616139221E+01  0.26148288320E+02 -0.91573784869E+01  0.96117435976E+02  0.91675291076E+02 0.  0.
         13    1    3    3    0    0  0.30982199256E+02  0.35028434418E+02  0.25820958616E+02  0.53419293859E+02  0.10566000000E+00 0. -1.
         22    1    1    0    0    0 -0.81616139221E+01 -0.26148288320E+02  0.91573784869E+01  0.28882564024E+02  0.00000000000E+00 0. -1.
</event>
<event>
 5    1  0.9034917E-005  0.9118800E+02  0.7818608E-02  0.1130116E+00
         25   -1    0    0    0    0  0.00000000000E+00  0.00000000000E+00  0.99999998245E-14  0.12500000000E+03  0.12500000000E+03 0.  0.
        -13    1    3    3    0    0  0.34522081501E+02  0.15984447746E+02  0.47362786295E+02  0.60749661486E+02  0.10566000000E+00 0.  1.
         23    2    1    0    0    0  0.17978233769E+02 -0.28155038557E+01  0.22806498921E+02  0.95823291062E+02  0.91273340935E+02 0.  0.
         13    1    3    3    0    0 -0.16543847732E+02 -0.18799951602E+02 -0.24556287374E+02  0.35073629576E+02  0.10566000000E+00 0. -1.
         22    1    1    0    0    0 -0.17978233769E+02  0.28155038557E+01 -0.22806498921E+02  0.29176708938E+02  0.00000000000E+00 0.  1.
</event>
<event>
 5    1  0.9034917E-005  0.9118800E+02  0.7818608E-02  0.1130116E+00
         25   -1    0    0    0    0  0.00000000000E+00  0.00000000000E+00  0.99999998245E-14  0.12500000000E+03  0.12500000000E+03 0.  0.
        -13    1    3    3    0    0 -0.13846235050E+02  0.36222625719E+02  0.31452989380E+02  0.49930937744E+02  0.10566000000E+00 0.  1.
         23    2    1    0    0    0 -0.99631303843E+01  0.23536992781E+02 -0.13002507563E+02  0.96323891492E+02  0.91956363962E+02 0.  0.
         13    1    3    3    0    0  0.38831046657E+01 -0.12685632938E+02 -0.44455496944E+02  0.46392953748E+02  0.10566000000E+00 0. -1.
         22    1    1    0    0    0  0.99631303843E+01 -0.23536992781E+02  0.13002507563E+02  0.28676108508E+02  0.00000000000E+00 0.  1.
</event>
<event>
 5    1  0.9034917E-005  0.9118800E+02  0.7818608E-02  0.1130116E+00
         25   -1    0    0    0    0  0.00000000000E+00  0.00000000000E+00  0.99999998245E-14  0.12500000000E+03  0.12500000000E+03 0.  0.
        -13    1    3    3    0    0  0.55533517856E+01 -0.43384692903E+02  0.21316762933E+02  0.48656827273E+02  0.10566000000E+00 0. -1.
         23    2    1    0    0    0 -0.26608043352E+02 -0.23312475543E+02  0.94092861410E+01  0.88394069434E+02  0.80458171483E+02 0.  0.
         13    1    3    3    0    0 -0.32161395138E+02  0.20072217360E+02 -0.11907476792E+02  0.39737242160E+02  0.10566000000E+00 0.  1.
         22    1    1    0    0    0  0.26608043352E+02  0.23312475543E+02 -0.94092861410E+01  0.36605930566E+02  0.00000000000E+00 0. -1.
</event>
<event>
 5    1  0.9034917E-005  0.9118800E+02  0.7818608E-02  0.1130116E+00
         25   -1    0    0    0    0  0.00000000000E+00  0.00000000000E+00  0.99999998245E-14  0.12500000000E+03  0.12500000000E+03 0.  0.
        -13    1    3    3    0    0 -0.19388756739E+02  0.28263339050E+02  0.22763572377E+02  0.41145250194E+02  0.10566000000E+00 0.  1.
         23    2    1    0    0    0  0.17133220411E+01 -0.24116348353E+02  0.82877670858E+01  0.99441815136E+02  0.96101268378E+02 0.  0.
         13    1    3    3    0    0  0.21102078780E+02 -0.52379687402E+02 -0.14475805291E+02  0.58296564942E+02  0.10566000000E+00 0. -1.
         22    1    1    0    0    0 -0.17133220411E+01  0.24116348353E+02 -0.82877670858E+01  0.25558184864E+02  0.00000000000E+00 0. -1.
</event>
<event>
 5    1  0.9034917E-005  0.9118800E+02  0.7818608E-02  0.1130116E+00
         25   -1    0    0    0    0  0.00000000000E+00  0.00000000000E+00  0.99999998245E-14  0.12500000000E+03  0.12500000000E+03 0.  0.
        -13    1    3    3    0    0  0.64590407685E+01 -0.16261861867E+02 -0.36275250453E+02  0.40274958951E+02  0.10566000000E+00 0. -1.
         23    2    1    0    0    0  0.73597187604E+01  0.27909339296E+02 -0.22313084933E+01  0.96050467746E+02  0.91583933833E+02 0.  0.
         13    1    3    3    0    0  0.90067799186E+00  0.44171201163E+02  0.34043941960E+02  0.55775508794E+02  0.10566000000E+00 0.  1.
         22    1    1    0    0    0 -0.73597187604E+01 -0.27909339296E+02  0.22313084933E+01  0.28949532254E+02  0.00000000000E+00 0.  1.
</event>
<event>
 5    1  0.9034917E-005  0.9118800E+02  0.7818608E-02  0.1130116E+00
         25   -1    0    0    0    0  0.00000000000E+00  0.00000000000E+00  0.99999998245E-14  0.12500000000E+03  0.12500000000E+03 0.  0.
        -13    1    3    3    0    0 -0.34903353879E+01 -0.37422865218E+02 -0.18336306326E+02  0.41819667335E+02  0.10566000000E+00 0. -1.
         23    2    1    0    0    0  0.22493526985E+02  0.10174292570E+02 -0.14918102482E+02  0.96155160476E+02  0.91726714314E+02 0.  0.
         13    1    3    3    0    0  0.25983862373E+02  0.47597157788E+02  0.34182038436E+01  0.54335493141E+02  0.10566000000E+00 0.  1.
         22    1    1    0    0    0 -0.22493526985E+02 -0.10174292570E+02  0.14918102482E+02  0.28844839524E+02  0.00000000000E+00 0.  1.
</event>
<event>
 5    1  0.9034917E-005  0.9118800E+02  0.7818608E-02  0.1130116E+00
         25   -1    0    0    0    0  0.00000000000E+00  0.00000000000E+00  0.99999998245E-14  0.12500000000E+03  0.12500000000E+03 0.  0.
        -13    1    3    3    0    0 -0.36308325636E+02  0.97376470973E+01  0.35755852870E+02  0.51880713757E+02  0.10566000000E+00 0. -1.
         23    2    1    0    0    0  0.68856886273E+01  0.16483979044E+02  0.19579838244E+02  0.98495201592E+02  0.94862007137E+02 0.  0.
         13    1    3    3    0    0  0.43194014263E+02  0.67463319464E+01 -0.16176014626E+02  0.46614487835E+02  0.10566000000E+00 0.  1.
         22    1    1    0    0    0 -0.68856886273E+01 -0.16483979044E+02 -0.19579838244E+02  0.26504798408E+02  0.00000000000E+00 0. -1.
</event>
<event>
 5    1  0.9034917E-005  0.9118800E+02  0.7818608E-02  0.1130116E+00
         25   -1    0    0    0    0  0.00000000000E+00  0.00000000000E+00  0.99999998245E-14  0.12500000000E+03  0.12500000000E+03 0.  0.
        -13    1    3    3    0    0  0.22482050280E+01  0.35163723778E+02 -0.23823702282E+02  0.42533773054E+02  0.10566000000E+00 0.  1.
         23    2    1    0    0    0  0.29577887399E+02  0.67587712988E+00  0.47992598693E+01  0.95027660615E+02  0.90177132100E+02 0.  0.
         13    1    3    3    0    0  0.27329682371E+02 -0.34487846648E+02  0.28622962151E+02  0.52493887561E+02  0.10566000000E+00 0. -1.
         22    1    1    0    0    0 -0.29577887399E+02 -0.67587712988E+00 -0.47992598693E+01  0.29972339385E+02  0.00000000000E+00 0.  1.
</event>
<event>
 5    1  0.9034917E-005  0.9118800E+02  0.7818608E-02  0.1130116E+00
         25   -1    0    0    0    0  0.00000000000E+00  0.00000000000E+00  0.99999998245E-14  0.12500000000E+03  0.12500000000E+03 0.  0.
        -13    1    3    3    0    0 -0.15136710909E+02  0.17011817427E+02  0.54470772098E+02  0.59038954312E+02  0.10566000000E+00 0.  1.
         23    2    1    0    0    0 -0.64014321473E+01  0.24130046430E+02  0.30060237843E+02  0.85925003219E+02  0.76526144583E+02 0.  0.
         13    1    3    3    0    0  0.87352787617E+01  0.71182290033E+01 -0.24410534254E+02  0.26886048907E+02  0.10566000000E+00 0. -1.
         22    1    1    0    0    0  0.64014321473E+01 -0.24130046430E+02 -0.30060237843E+02  0.39074996781E+02  0.00000000000E+00 0.  1.
</event>
<event>
 5    1  0.9034917E-005  0.9118800E+02  0.7818608E-02  0.1130116E+00
         25   -1    0    0    0    0  0.00000000000E+00  0.00000000000E+00  0.99999998245E-14  0.12500000000E+03  0.12500000000E+03 0.  0.
        -13    1    3    3    0    0  0.43680228287E+02 -0.11750309155E+01 -0.32121097158E+02  0.54232085407E+02  0.10566000000E+00 0.  1.
         23    2    1    0    0    0 -0.27729697160E+01 -0.76086972872E+01 -0.21089883241E+02  0.10240874482E+03  0.99885865893E+02 0.  0.
         13    1    3    3    0    0 -0.46453198003E+02 -0.64336663718E+01  0.11031213917E+02  0.48176659414E+02  0.10566000000E+00 0. -1.
         22    1    1    0    0    0  0.27729697160E+01  0.76086972872E+01  0.21089883241E+02  0.22591255179E+02  0.00000000000E+00 0.  1.
</event>
<event>
 5    1  0.9034917E-005  0.9118800E+02  0.7818608E-02  0.1130116E+00
         25   -1    0    0    0    0  0.00000000000E+00  0.00000000000E+00  0.99999998245E-14  0.12500000000E+03  0.12500000000E+03 0.  0.
        -13    1    3    3    0    0 -0.16386628903E+02 -0.25687904746E+02 -0.30677344718E+02  0.43237723114E+02  0.10566000000E+00 0. -1.
         23    2    1    0    0    0 -0.21517465362E+02  0.17357550860E+02  0.16355656415E+01  0.97305939943E+02  0.93281750550E+02 0.  0.
         13    1    3    3    0    0 -0.51308364592E+01  0.43045455606E+02  0.32312910360E+02  0.54068216829E+02  0.10566000000E+00 0.  1.
         22    1    1    0    0    0  0.21517465362E+02 -0.17357550860E+02 -0.16355656415E+01  0.27694060057E+02  0.00000000000E+00 0.  1.
</event>
<event>
 5    1  0.9034917E-005  0.9118800E+02  0.7818608E-02  0.1130116E+00
         25   -1    0    0    0    0  0.00000000000E+00  0.00000000000E+00  0.99999998245E-14  0.12500000000E+03  0.12500000000E+03 0.  0.
        -13    1    3    3    0    0  0.28119471310E+02 -0.31189908487E+02 -0.38517711970E+02  0.56983685013E+02  0.10566000000E+00 0.  1.
         23    2    1    0    0    0  0.25834998340E+02 -0.18612041959E+02 -0.51131204693E+01  0.92750980697E+02  0.86964045295E+02 0.  0.
         13    1    3    3    0    0 -0.22844729708E+01  0.12577866528E+02  0.33404591501E+02  0.35767295684E+02  0.10566000000E+00 0. -1.
         22    1    1    0    0    0 -0.25834998340E+02  0.18612041959E+02  0.51131204693E+01  0.32249019303E+02  0.00000000000E+00 0.  1.
</event>
<event>
 5    1  0.9034917E-005  0.9118800E+02  0.7818608E-02  0.1130116E+00
         25   -1    0    0    0    0  0.00000000000E+00  0.00000000000E+00  0.99999998245E-14  0.12500000000E+03  0.12500000000E+03 0.  0.
        -13    1    3    3    0    0  0.48758127551E+02 -0.20931968642E+02  0.26435647033E+02  0.59282011704E+02  0.10566000000E+00 0.  1.
         23    2    1    0    0    0  0.11523298744E+02 -0.16821806550E+02  0.18268369309E+02  0.97623131903E+02  0.93705832134E+02 0.  0.
         13    1    3    3    0    0 -0.37234828807E+02  0.41101620920E+01 -0.81672777240E+01  0.38341120200E+02  0.10566000000E+00 0. -1.
         22    1    1    0    0    0 -0.11523298744E+02  0.16821806550E+02 -0.18268369309E+02  0.27376868097E+02  0.00000000000E+00 0.  1.
</event>
<event>
 5    1  0.9034917E-005  0.9118800E+02  0.7818608E-02  0.1130116E+00
         25   -1    0    0    0    0  0.00000000000E+00  0.00000000000E+00  0.99999998245E-14  0.12500000000E+03  0.12500000000E+03 0.  0.
        -13    1    3    3    0    0 -0.52387243307E+02 -0.43129744534E+01  0.31465846637E+02  0.61262840928E+02  0.10566000000E+00 0. -1.
         23    2    1    0    0    0 -0.27129548136E+02 -0.98183161966E+01  0.11439664772E+02  0.93963285530E+02  0.88689466018E+02 0.  0.
         13    1    3    3    0    0  0.25257695171E+02 -0.55053417432E+01 -0.20026181865E+02  0.32700444602E+02  0.10566000000E+00 0.  1.
         22    1    1    0    0    0  0.27129548136E+02  0.98183161966E+01 -0.11439664772E+02  0.31036714470E+02  0.00000000000E+00 0. -1.
</event>
<event>
 5    1  0.9034917E-005  0.9118800E+02  0.7818608E-02  0.1130116E+00
         25   -1    0    0    0    0  0.00000000000E+00  0.00000000000E+00  0.99999998245E-14  0.12500000000E+03  0.12500000000E+03 0.  0.
        -13    1    3    3    0    0 -0.18425194071E+02 -0.34660080283E+02  0.57776089939E+00  0.39257533206E+02  0.10566000000E+00 0.  1.
         23    2    1    0    0    0  0.20883549725E+02  0.13813255727E+01  0.20035189422E+02  0.96026917240E+02  0.91551784854E+02 0.  0.
         13    1    3    3    0    0  0.39308743795E+02  0.36041405856E+02  0.19457428522E+02  0.56769384034E+02  0.10566000000E+00 0. -1.
         22    1    1    0    0    0 -0.20883549725E+02 -0.13813255727E+01 -0.20035189422E+02  0.28973082760E+02  0.00000000000E+00 0.  1.
</event>
<event>
 5    1  0.9034917E-005  0.9118800E+02  0.7818608E-02  0.1130116E+00
         25   -1    0    0    0    0  0.00000000000E+00  0.00000000000E+00  0.99999998245E-14  0.12500000000E+03  0.12500000000E+03 0.  0.
        -13    1    3    3    0    0 -0.17263314889E+02 -0.80179121748E+01  0.25582686669E+02  0.31887207119E+02  0.10566000000E+00 0.  1.
         23    2    1    0    0    0  0.12827242869E+02  0.14994965699E+02 -0.23772694900E+02  0.94104560551E+02  0.88888357718E+02 0.  0.
         13    1    3    3    0    0  0.30090557758E+02  0.23012877874E+02 -0.49355381569E+02  0.62217353432E+02  0.10566000000E+00 0. -1.
         22    1    1    0    0    0 -0.12827242869E+02 -0.14994965699E+02  0.23772694900E+02  0.30895439449E+02  0.00000000000E+00 0. -1.
</event>
<event>
 5    1  0.9034917E-005  0.9118800E+02  0.7818608E-02  0.1130116E+00
         25   -1    0    0    0    0  0.00000000000E+00  0.00000000000E+00  0.99999998245E-14  0.12500000000E+03  0.12500000000E+03 0.  0.
        -13    1    3    3    0    0  0.90871365318E+01 -0.37864812345E+02 -0.14902916638E+02  0.41694461893E+02  0.10566000000E+00 0. -1.
         23    2    1    0    0    0 -0.27524145219E+02 -0.49573667355E+01  0.78887851037E+01  0.95941662377E+02  0.91435308247E+02 0.  0.
         13    1    3    3    0    0 -0.36611281751E+02  0.32907445609E+02  0.22791701741E+02  0.54247200483E+02  0.10566000000E+00 0.  1.
         22    1    1    0    0    0  0.27524145219E+02  0.49573667355E+01 -0.78887851037E+01  0.29058337623E+02  0.00000000000E+00 0.  1.
</event>
<event>
 5    1  0.9034917E-005  0.9118800E+02  0.7818608E-02  0.1130116E+00
         25   -1    0    0    0    0  0.00000000000E+00  0.00000000000E+00  0.99999998245E-14  0.12500000000E+03  0.12500000000E+03 0.  0.
        -13    1    3    3    0    0 -0.50229582027E+01  0.45475088943E+02  0.11529461920E+01  0.45766300620E+02  0.10566000000E+00 0.  1.
         23    2    1    0    0    0 -0.23424961466E+02  0.14946135258E+01  0.17012860305E+02  0.96010344862E+02  0.91529155002E+02 0.  0.
         13    1    3    3    0    0 -0.18402003263E+02 -0.43980475417E+02  0.15859914113E+02  0.50244044242E+02  0.10566000000E+00 0. -1.
         22    1    1    0    0    0  0.23424961466E+02 -0.14946135258E+01 -0.17012860305E+02  0.28989655138E+02  0.00000000000E+00 0.  1.
</event>
<event>
 5    1  0.9034917E-005  0.9118800E+02  0.7818608E-02  0.1130116E+00
         25   -1    0    0    0    0  0.00000000000E+00  0.00000000000E+00  0.99999998245E-14  0.12500000000E+03  0.12500000000E+03 0.  0.
        -13    1    3    3    0    0 -0.17151878410E+02 -0.48348479889E+02  0.31302526224E+02  0.60096769901E+02  0.10566000000E+00 0. -1.
         23    2    1    0    0    0 -0.16641369231E+02 -0.15139560114E+02  0.19125255350E+02  0.95471761947E+02  0.90790640964E+02 0.  0.
         13    1    3    3    0    0  0.51050917924E+00  0.33208919775E+02 -0.12177270874E+02  0.35374992046E+02  0.10566000000E+00 0.  1.
         22    1    1    0    0    0  0.16641369231E+02  0.15139560114E+02 -0.19125255350E+02  0.29528238053E+02  0.00000000000E+00 0. -1.
</event>
<event>
 5    1  0.9034917E-005  0.9118800E+02  0.7818608E-02  0.1130116E+00
         25   -1    0    0    0    0  0.00000000000E+00  0.00000000000E+00  0.99999998245E-14  0.12500000000E+03  0.12500000000E+03 0.  0.
        -13    1    3    3    0    0 -0.12043461897E+00 -0.35172012821E+01 -0.53052048646E+02  0.53168752468E+02  0.10566000000E+00 0.  1.
         23    2    1    0    0    0  0.12485029146E+02 -0.22445640794E+02 -0.28384226173E+02  0.86720148396E+02  0.77814118892E+02 0.  0.
         13    1    3    3    0    0  0.12605463765E+02 -0.18928439512E+02  0.24667822474E+02  0.33551395928E+02  0.10566000000E+00 0. -1.
         22    1    1    0    0    0 -0.12485029146E+02  0.22445640794E+02  0.28384226173E+02  0.38279851604E+02  0.00000000000E+00 0.  1.
</event>
<event>
 5    1  0.9034917E-005  0.9118800E+02  0.7818608E-02  0.1130116E+00
         25   -1    0    0    0    0  0.00000000000E+00  0.00000000000E+00  0.99999998245E-14  0.12500000000E+03  0.12500000000E+03 0.  0.
        -13    1    3    3    0    0 -0.19115455775E+01  0.25195848536E+02 -0.21730749418E+02  0.33327487517E+02  0.10566000000E+00 0.  1.
         23    2    1    0    0    0 -0.94060152347E+01 -0.26691231134E+02  0.10438583673E+02  0.94836131363E+02  0.89911249801E+02 0.  0.
         13    1    3    3    0    0 -0.74944696572E+01 -0.51887079670E+02  0.32169333091E+02  0.61508643845E+02  0.10566000000E+00 0. -1.
         22    1    1    0    0    0  0.94060152347E+01  0.26691231134E+02 -0.10438583673E+02  0.30163868637E+02  0.00000000000E+00 0. -1.
</event>
<event>
 5    1  0.9034917E-005  0.9118800E+02  0.7818608E-02  0.1130116E+00
         25   -1    0    0    0    0  0.00000000000E+00  0.00000000000E+00  0.99999998245E-14  0.12500000000E+03  0.12500000000E+03 0.  0.
        -13    1    3    3    0    0 -0.19321058000E+02  0.47256183593E+02  0.23957417452E+01  0.51109694898E+02  0.10566000000E+00 0.  1.
         23    2    1    0    0    0  0.53740141684E+01  0.24589008071E+02 -0.21191279672E+02  0.92097573337E+02  0.86019726425E+02 0.  0.
         13    1    3    3    0    0  0.24695072169E+02 -0.22667175522E+02 -0.23587021417E+02  0.40987878439E+02  0.10566000000E+00 0. -1.
         22    1    1    0    0    0 -0.53740141684E+01 -0.24589008071E+02  0.21191279672E+02  0.32902426663E+02  0.00000000000E+00 0. -1.
</event>
<event>
 5    1  0.9034917E-005  0.9118800E+02  0.7818608E-02  0.1130116E+00
         25   -1    0    0    0    0  0.00000000000E+00  0.00000000000E+00  0.99999998245E-14  0.12500000000E+03  0.12500000000E+03 0.  0.
        -13    1    3    3    0    0  0.74250421529E+01  0.87861825426E+01  0.31004138032E+02  0.33069562951E+02  0.10566000000E+00 0. -1.
         23    2    1    0    0    0  0.45289830349E+01 -0.12631648039E+01 -0.29832787216E+02  0.94798965817E+02  0.89859565179E+02 0.  0.
         13    1    3    3    0    0 -0.28960591180E+01 -0.10049347347E+02 -0.60836925248E+02  0.61729402866E+02  0.10566000000E+00 0.  1.
         22    1    1    0    0    0 -0.45289830349E+01  0.12631648039E+01  0.29832787216E+02  0.30201034183E+02  0.00000000000E+00 0.  1.
</event>
<event>
 5    1  0.9034917E-005  0.9118800E+02  0.7818608E-02  0.1130116E+00
         25   -1    0    0    0    0  0.00000000000E+00  0.00000000000E+00  0.99999998245E-14  0.12500000000E+03  0.12500000000E+03 0.  0.
        -13    1    3    3    0    0 -0.90443505798E+01  0.60877280824E+02 -0.91304347851E+01  0.62219125688E+02  0.10566000000E+00 0.  1.
         23    2    1    0    0    0 -0.84464611541E+00  0.78626784529E+01 -0.40805001364E+01  0.11610136972E+03  0.11575984809E+03 0.  0.
         13    1    3    3    0    0  0.81997044644E+01 -0.53014602371E+02  0.50499346487E+01  0.53882244031E+02  0.10566000000E+00 0. -1.
         22    1    1    0    0    0  0.84464611541E+00 -0.78626784529E+01  0.40805001364E+01  0.88986302810E+01  0.00000000000E+00 0.  1.
</event>
<event>
 5    1  0.9034917E-005  0.9118800E+02  0.7818608E-02  0.1130116E+00
         25   -1    0    0    0    0  0.00000000000E+00  0.00000000000E+00  0.99999998245E-14  0.12500000000E+03  0.12500000000E+03 0.  0.
        -13    1    3    3    0    0  0.37102830425E+02  0.38425880343E+02  0.24776043520E+02  0.58881506453E+02  0.10566000000E+00 0. -1.
         23    2    1    0    0    0  0.10415387537E+02  0.20240001549E+02  0.25016806120E+02  0.91177248061E+02  0.84671789962E+02 0.  0.
         13    1    3    3    0    0 -0.26687442887E+02 -0.18185878794E+02  0.24076260013E+00  0.32295741608E+02  0.10566000000E+00 0.  1.
         22    1    1    0    0    0 -0.10415387537E+02 -0.20240001549E+02 -0.25016806120E+02  0.33822751939E+02  0.00000000000E+00 0. -1.
</event>
<event>
 5    1  0.9034917E-005  0.9118800E+02  0.7818608E-02  0.1130116E+00
         25   -1    0    0    0    0  0.00000000000E+00  0.00000000000E+00  0.99999998245E-14  0.12500000000E+03  0.12500000000E+03 0.  0.
        -13    1    3    3    0    0  0.32539889746E+02  0.41663822188E+02  0.20440534338E+02  0.56679318204E+02  0.10566000000E+00 0. -1.
         23    2    1    0    0    0  0.90541487286E+01  0.11664694507E+02  0.25918606198E+02  0.95170201905E+02  0.90374501250E+02 0.  0.
         13    1    3    3    0    0 -0.23485741017E+02 -0.29999127681E+02  0.54780718596E+01  0.38490883701E+02  0.10566000000E+00 0.  1.
         22    1    1    0    0    0 -0.90541487286E+01 -0.11664694507E+02 -0.25918606198E+02  0.29829798095E+02  0.00000000000E+00 0. -1.
</event>
<event>
 5    1  0.9034917E-005  0.9118800E+02  0.7818608E-02  0.1130116E+00
         25   -1    0    0    0    0  0.00000000000E+00  0.00000000000E+00  0.99999998245E-14  0.12500000000E+03  0.12500000000E+03 0.  0.
        -13    1    3    3    0    0 -0.47439870198E+02 -0.18868928368E+02 -0.35318926527E+02  0.62080717435E+02  0.10566000000E+00 0. -1.
         23    2    1    0    0    0 -0.18517547756E+02 -0.97394793425E+01 -0.19987077076E+02  0.96064895321E+02  0.91603623456E+02 0.  0.
         13    1    3    3    0    0  0.28922322443E+02  0.91294490251E+01  0.15331849451E+02  0.33984177886E+02  0.10566000000E+00 0.  1.
         22    1    1    0    0    0  0.18517547756E+02  0.97394793425E+01  0.19987077076E+02  0.28935104679E+02  0.00000000000E+00 0. -1.
</event>
<event>
 5    1  0.9034917E-005  0.9118800E+02  0.7818608E-02  0.1130116E+00
         25   -1    0    0    0    0  0.00000000000E+00  0.00000000000E+00  0.99999998245E-14  0.12500000000E+03  0.12500000000E+03 0.  0.
        -13    1    3    3    0    0  0.17314872904E+02 -0.18937266402E+01 -0.34411652368E+02  0.38568951334E+02  0.10566000000E+00 0. -1.
         23    2    1    0    0    0 -0.27553990654E+02 -0.95216331834E+01  0.36095737027E+00  0.95844997176E+02  0.91303062895E+02 0.  0.
         13    1    3    3    0    0 -0.44868863558E+02 -0.76279065432E+01  0.34772609738E+02  0.57276045842E+02  0.10566000000E+00 0.  1.
         22    1    1    0    0    0  0.27553990654E+02  0.95216331834E+01 -0.36095737027E+00  0.29155002824E+02  0.00000000000E+00 0.  1.
</event>
<event>
 5    1  0.9034917E-005  0.9118800E+02  0.7818608E-02  0.1130116E+00
         25   -1    0    0    0    0  0.00000000000E+00  0.00000000000E+00  0.99999998245E-14  0.12500000000E+03  0.12500000000E+03 0.  0.
        -13    1    3    3    0    0  0.24271512513E+02 -0.23688408526E+02 -0.11043668809E+02  0.35668204370E+02  0.10566000000E+00 0.  1.
         23    2    1    0    0    0 -0.27989936550E+02 -0.44973580597E+01  0.96353532606E+01  0.95058343231E+02  0.90219653113E+02 0.  0.
         13    1    3    3    0    0 -0.52261449064E+02  0.19191050466E+02  0.20679022069E+02  0.59390138862E+02  0.10566000000E+00 0. -1.
         22    1    1    0    0    0  0.27989936550E+02  0.44973580597E+01 -0.96353532606E+01  0.29941656769E+02  0.00000000000E+00 0. -1.
</event>
<event>
 5    1  0.9034917E-005  0.9118800E+02  0.7818608E-02  0.1130116E+00
         25   -1    0    0    0    0  0.00000000000E+00  0.00000000000E+00  0.99999998245E-14  0.12500000000E+03  0.12500000000E+03 0.  0.
        -13    1    3    3    0    0 -0.27281048098E+02 -0.29865891922E+01  0.21947037097E+02  0.35140559212E+02  0.10566000000E+00 0.  1.
         23    2    1    0    0    0  0.29032884335E+02 -0.61779882113E+01  0.10277201146E+01  0.95299290921E+02  0.90552872568E+02 0.  0.
         13    1    3    3    0    0  0.56313932434E+02 -0.31913990191E+01 -0.20919316982E+02  0.60158731709E+02  0.10566000000E+00 0. -1.
         22    1    1    0    0    0 -0.29032884335E+02  0.61779882113E+01 -0.10277201146E+01  0.29700709079E+02  0.00000000000E+00 0. -1.
</event>
<event>
 5    1  0.9034917E-005  0.9118800E+02  0.7818608E-02  0.1130116E+00
         25   -1    0    0    0    0  0.00000000000E+00  0.00000000000E+00  0.99999998245E-14  0.12500000000E+03  0.12500000000E+03 0.  0.
        -13    1    3    3    0    0  0.28177918003E+02  0.23683299745E+02 -0.10817274601E+02  0.38365588013E+02  0.10566000000E+00 0.  1.
         23    2    1    0    0    0 -0.26666584889E+02  0.13479347671E+02 -0.71793385625E+01  0.94269844363E+02  0.89120486370E+02 0.  0.
         13    1    3    3    0    0 -0.54844502892E+02 -0.10203952074E+02  0.36379360384E+01  0.55904256350E+02  0.10566000000E+00 0. -1.
         22    1    1    0    0    0  0.26666584889E+02 -0.13479347671E+02  0.71793385625E+01  0.30730155637E+02  0.00000000000E+00 0. -1.
</event>
<event>
 5    1  0.9034917E-005  0.9118800E+02  0.7818608E-02  0.1130116E+00
         25   -1    0    0    0    0  0.00000000000E+00  0.00000000000E+00  0.99999998245E-14  0.12500000000E+03  0.12500000000E+03 0.  0.
        -13    1    3    3    0    0 -0.39575317519E+02 -0.88517208890E+01 -0.36255578367E+02  0.54397029755E+02  0.10566000000E+00 0.  1.
         23    2    1    0    0    0 -0.24147178372E+02  0.15277832728E+02 -0.65023624059E+01  0.95695066746E+02  0.91097566852E+02 0.  0.
         13    1    3    3    0    0  0.15428139147E+02  0.24129553617E+02  0.29753215961E+02  0.41298036991E+02  0.10566000000E+00 0. -1.
         22    1    1    0    0    0  0.24147178372E+02 -0.15277832728E+02  0.65023624059E+01  0.29304933254E+02  0.00000000000E+00 0.  1.
</event>
<event>
 5    1  0.9034917E-005  0.9118800E+02  0.7818608E-02  0.1130116E+00
         25   -1    0    0    0    0  0.00000000000E+00  0.00000000000E+00  0.99999998245E-14  0.12500000000E+03  0.12500000000E+03 0.  0.
        -13    1    3    3    0    0  0.14514565856E+02 -0.16480028918E+02 -0.84536805832E+01  0.23531677682E+02  0.10566000000E+00 0. -1.
         23    2    1    0    0    0 -0.22751962994E+02 -0.31252788052E+00  0.35151262463E+02  0.83126849336E+02  0.71810252290E+02 0.  0.
         13    1    3    3    0    0 -0.37266528850E+02  0.16167501037E+02  0.43604943046E+02  0.59595171654E+02  0.10566000000E+00 0.  1.
         22    1    1    0    0    0  0.22751962994E+02  0.31252788052E+00 -0.35151262463E+02  0.41873150664E+02  0.00000000000E+00 0.  1.
</event>
<event>
 5    1  0.9034917E-005  0.9118800E+02  0.7818608E-02  0.1130116E+00
         25   -1    0    0    0    0  0.00000000000E+00  0.00000000000E+00  0.99999998245E-14  0.12500000000E+03  0.12500000000E+03 0.  0.
        -13    1    3    3    0    0  0.16325802683E+02  0.55761136923E+02 -0.40780758706E+01  0.58244983398E+02  0.10566000000E+00 0.  1.
         23    2    1    0    0    0 -0.17697900795E-01  0.27887867850E+02  0.12357988464E+02  0.94496666324E+02  0.89438060025E+02 0.  0.
         13    1    3    3    0    0 -0.16343500584E+02 -0.27873269073E+02  0.16436064335E+02  0.36251682927E+02  0.10566000000E+00 0. -1.
         22    1    1    0    0    0  0.17697900795E-01 -0.27887867850E+02 -0.12357988464E+02  0.30503333676E+02  0.00000000000E+00 0.  1.
</event>
<event>
 5    1  0.9034917E-005  0.9118800E+02  0.7818608E-02  0.1130116E+00
         25   -1    0    0    0    0  0.00000000000E+00  0.00000000000E+00  0.99999998245E-14  0.12500000000E+03  0.12500000000E+03 0.  0.
        -13    1    3    3    0    0  0.22205657808E+02  0.36005802713E+02 -0.12888044097E+02  0.44222414141E+02  0.10566000000E+00 0.  1.
         23    2    1    0    0    0  0.29235061022E+02 -0.10801087216E+02 -0.12117864464E+02  0.91560578396E+02  0.85235817583E+02 0.  0.
         13    1    3    3    0    0  0.70294032139E+01 -0.46806889929E+02  0.77017963351E+00  0.47338164256E+02  0.10566000000E+00 0. -1.
         22    1    1    0    0    0 -0.29235061022E+02  0.10801087216E+02  0.12117864464E+02  0.33439421604E+02  0.00000000000E+00 0.  1.
</event>
<event>
 5    1  0.9034917E-005  0.9118800E+02  0.7818608E-02  0.1130116E+00
         25   -1    0    0    0    0  0.00000000000E+00  0.00000000000E+00  0.99999998245E-14  0.12500000000E+03  0.12500000000E+03 0.  0.
        -13    1    3    3    0    0  0.58341031219E+01 -0.31729690981E+02  0.35326281466E+02  0.47841063693E+02  0.10566000000E+00 0.  1.
         23    2    1    0    0    0  0.22189662356E+02  0.89800623851E+01  0.18163347800E+02  0.94951209023E+02  0.90071095562E+02 0.  0.
         13    1    3    3    0    0  0.16355559234E+02  0.40709753366E+02 -0.17162933666E+02  0.47110145330E+02  0.10566000000E+00 0. -1.
         22    1    1    0    0    0 -0.22189662356E+02 -0.89800623851E+01 -0.18163347800E+02  0.30048790977E+02  0.00000000000E+00 0. -1.
</event>
<event>
 5    1  0.9034917E-005  0.9118800E+02  0.7818608E-02  0.1130116E+00
         25   -1    0    0    0    0  0.00000000000E+00  0.00000000000E+00  0.99999998245E-14  0.12500000000E+03  0.12500000000E+03 0.  0.
        -13    1    3    3    0    0  0.66228994846E+01  0.41199056813E+02 -0.33362681772E+01  0.41861281983E+02  0.10566000000E+00 0. -1.
         23    2    1    0    0    0 -0.30253707400E+02  0.90775005972E+01 -0.11386063095E+02  0.91424260822E+02  0.85035670195E+02 0.  0.
         13    1    3    3    0    0 -0.36876606885E+02 -0.32121556216E+02 -0.80497949178E+01  0.49562978839E+02  0.10566000000E+00 0.  1.
         22    1    1    0    0    0  0.30253707400E+02 -0.90775005972E+01  0.11386063095E+02  0.33575739178E+02  0.00000000000E+00 0. -1.
</event>
<event>
 5    1  0.9034917E-005  0.9118800E+02  0.7818608E-02  0.1130116E+00
         25   -1    0    0    0    0  0.00000000000E+00  0.00000000000E+00  0.99999998245E-14  0.12500000000E+03  0.12500000000E+03 0.  0.
        -13    1    3    3    0    0  0.43758414919E+02  0.25020499749E+02  0.32229316589E+02  0.59829460099E+02  0.10566000000E+00 0. -1.
         23    2    1    0    0    0  0.23750582351E+02  0.12556885875E+02  0.21452494953E+01  0.98048791488E+02  0.94271935760E+02 0.  0.
         13    1    3    3    0    0 -0.20007832568E+02 -0.12463613874E+02 -0.30084067094E+02  0.38219331389E+02  0.10566000000E+00 0.  1.
         22    1    1    0    0    0 -0.23750582351E+02 -0.12556885875E+02 -0.21452494953E+01  0.26951208512E+02  0.00000000000E+00 0. -1.
</event>
<event>
 5    1  0.9034917E-005  0.9118800E+02  0.7818608E-02  0.1130116E+00
         25   -1    0    0    0    0  0.00000000000E+00  0.00000000000E+00  0.99999998245E-14  0.12500000000E+03  0.12500000000E+03 0.  0.
        -13    1    3    3    0    0  0.16259286353E+02  0.21231867398E+02 -0.43446297420E+02  0.51017139369E+02  0.10566000000E+00 0.  1.
         23    2    1    0    0    0 -0.17344994605E+02  0.72616586348E+00 -0.25180624273E+02  0.94415036481E+02  0.89323900050E+02 0.  0.
         13    1    3    3    0    0 -0.33604280958E+02 -0.20505701535E+02  0.18265673147E+02  0.43397897111E+02  0.10566000000E+00 0. -1.
         22    1    1    0    0    0  0.17344994605E+02 -0.72616586348E+00  0.25180624273E+02  0.30584963519E+02  0.00000000000E+00 0.  1.
</event>
<event>
 5    1  0.9034917E-005  0.9118800E+02  0.7818608E-02  0.1130116E+00
         25   -1    0    0    0    0  0.00000000000E+00  0.00000000000E+00  0.99999998245E-14  0.12500000000E+03  0.12500000000E+03 0.  0.
        -13    1    3    3    0    0 -0.33810636674E+02  0.13309041150E+01 -0.32990911980E+02  0.47258246850E+02  0.10566000000E+00 0.  1.
         23    2    1    0    0    0 -0.94626769693E+01 -0.27973195506E+02 -0.38598864989E+01  0.95218451249E+02  0.90441211912E+02 0.  0.
         13    1    3    3    0    0  0.24347959704E+02 -0.29304099621E+02  0.29131025481E+02  0.47960204399E+02  0.10566000000E+00 0. -1.
         22    1    1    0    0    0  0.94626769693E+01  0.27973195506E+02  0.38598864989E+01  0.29781548751E+02  0.00000000000E+00 0.  1.
</event>
<event>
 5    1  0.9034917E-005  0.9118800E+02  0.7818608E-02  0.1130116E+00
         25   -1    0    0    0    0  0.00000000000E+00  0.00000000000E+00  0.99999998245E-14  0.12500000000E+03  0.12500000000E+03 0.  0.
        -13    1    3    3    0    0  0.10838046930E+02  0.18194527898E+02  0.34000410370E+02  0.40056749444E+02  0.10566000000E+00 0.  1.
         23    2    1    0    0    0 -0.12792158061E+02  0.16200571305E+02 -0.18256521940E+02  0.97442815604E+02  0.93464987568E+02 0.  0.
         13    1    3    3    0    0 -0.23630204991E+02 -0.19939565928E+01 -0.52256932310E+02  0.57386066160E+02  0.10566000000E+00 0. -1.
         22    1    1    0    0    0  0.12792158061E+02 -0.16200571305E+02  0.18256521940E+02  0.27557184396E+02  0.00000000000E+00 0. -1.
</event>
<event>
 5    1  0.9034917E-005  0.9118800E+02  0.7818608E-02  0.1130116E+00
         25   -1    0    0    0    0  0.00000000000E+00  0.00000000000E+00  0.99999998245E-14  0.12500000000E+03  0.12500000000E+03 0.  0.
        -13    1    3    3    0    0  0.20776653334E+02  0.10535228933E+02  0.25232435834E+02  0.34341627140E+02  0.10566000000E+00 0.  1.
         23    2    1    0    0    0 -0.20736893029E+02  0.61470160241E+01 -0.19750539564E+02  0.95710268838E+02  0.91118424094E+02 0.  0.
         13    1    3    3    0    0 -0.41513546363E+02 -0.43882129087E+01 -0.44982975398E+02  0.61368641698E+02  0.10566000000E+00 0. -1.
         22    1    1    0    0    0  0.20736893029E+02 -0.61470160241E+01  0.19750539564E+02  0.29289731162E+02  0.00000000000E+00 0. -1.
</event>
<event>
 5    1  0.9034917E-005  0.9118800E+02  0.7818608E-02  0.1130116E+00
         25   -1    0    0    0    0  0.00000000000E+00  0.00000000000E+00  0.99999998245E-14  0.12500000000E+03  0.12500000000E+03 0.  0.
        -13    1    3    3    0    0  0.91497435717E+01  0.30354845966E+02 -0.30874810468E+02  0.44253808497E+02  0.10566000000E+00 0. -1.
         23    2    1    0    0    0 -0.11747312124E+02  0.21217191213E+02  0.15697386868E+02  0.96110962294E+02  0.91666463734E+02 0.  0.
         13    1    3    3    0    0 -0.20897055695E+02 -0.91376547526E+01  0.46572197336E+02  0.51857153796E+02  0.10566000000E+00 0.  1.
         22    1    1    0    0    0  0.11747312124E+02 -0.21217191213E+02 -0.15697386868E+02  0.28889037706E+02  0.00000000000E+00 0.  1.
</event>
<event>
 5    1  0.9034917E-005  0.9118800E+02  0.7818608E-02  0.1130116E+00
         25   -1    0    0    0    0  0.00000000000E+00  0.00000000000E+00  0.99999998245E-14  0.12500000000E+03  0.12500000000E+03 0.  0.
        -13    1    3    3    0    0 -0.38938781106E+02  0.77024842184E+01  0.78243508584E+01  0.40457243697E+02  0.10566000000E+00 0. -1.
         23    2    1    0    0    0  0.78960524123E+01  0.23379332599E+02 -0.16302628444E+02  0.95424392979E+02  0.90725400218E+02 0.  0.
         13    1    3    3    0    0  0.46834833519E+02  0.15676848381E+02 -0.24126979302E+02  0.54967149282E+02  0.10566000000E+00 0.  1.
         22    1    1    0    0    0 -0.78960524123E+01 -0.23379332599E+02  0.16302628444E+02  0.29575607021E+02  0.00000000000E+00 0.  1.
</event>
<event>
 5    1  0.9034917E-005  0.9118800E+02  0.7818608E-02  0.1130116E+00
         25   -1    0    0    0    0  0.00000000000E+00  0.00000000000E+00  0.99999998245E-14  0.12500000000E+03  0.12500000000E+03 0.  0.
        -13    1    3    3    0    0  0.29793788122E+02  0.64341579884E+01  0.38784165463E+02  0.49328398052E+02  0.10566000000E+00 0.  1.
         23    2    1    0    0    0  0.15909302095E+02 -0.22867176759E+02  0.40411719356E+01  0.96851381265E+02  0.92670628121E+02 0.  0.
         13    1    3    3    0    0 -0.13884486027E+02 -0.29301334747E+02 -0.34742993527E+02  0.47522983213E+02  0.10566000000E+00 0. -1.
         22    1    1    0    0    0 -0.15909302095E+02  0.22867176759E+02 -0.40411719356E+01  0.28148618735E+02  0.00000000000E+00 0.  1.
</event>
<event>
 5    1  0.9034917E-005  0.9118800E+02  0.7818608E-02  0.1130116E+00
         25   -1    0    0    0    0  0.00000000000E+00  0.00000000000E+00  0.99999998245E-14  0.12500000000E+03  0.12500000000E+03 0.  0.
        -13    1    3    3    0    0 -0.50269515098E+02 -0.37148743823E+01  0.79150904014E+01  0.51024349677E+02  0.10566000000E+00 0.  1.
         23    2    1    0    0    0 -0.86848639445E+01 -0.18198945981E+02  0.19908225769E+02  0.96663346178E+02  0.92416646469E+02 0.  0.
         13    1    3    3    0    0  0.41584651154E+02 -0.14484071599E+02  0.11993135367E+02  0.45638996501E+02  0.10566000000E+00 0. -1.
         22    1    1    0    0    0  0.86848639445E+01  0.18198945981E+02 -0.19908225769E+02  0.28336653822E+02  0.00000000000E+00 0. -1.
</event>
<event>
 5    1  0.9034917E-005  0.9118800E+02  0.7818608E-02  0.1130116E+00
         25   -1    0    0    0    0  0.00000000000E+00  0.00000000000E+00  0.99999998245E-14  0.12500000000E+03  0.12500000000E+03 0.  0.
        -13    1    3    3    0    0 -0.28907827723E+01  0.60419354963E+01 -0.36104649866E+02  0.36720818558E+02  0.10566000000E+00 0.  1.
         23    2    1    0    0    0 -0.10977537019E+02 -0.22661886051E+02  0.14854418714E+02  0.95764385525E+02  0.91192633372E+02 0.  0.
         13    1    3    3    0    0 -0.80867542469E+01 -0.28703821547E+02  0.50959068580E+02  0.59043566967E+02  0.10566000000E+00 0. -1.
         22    1    1    0    0    0  0.10977537019E+02  0.22661886051E+02 -0.14854418714E+02  0.29235614475E+02  0.00000000000E+00 0. -1.
</event>
<event>
 5    1  0.9034917E-005  0.9118800E+02  0.7818608E-02  0.1130116E+00
         25   -1    0    0    0    0  0.00000000000E+00  0.00000000000E+00  0.99999998245E-14  0.12500000000E+03  0.12500000000E+03 0.  0.
        -13    1    3    3    0    0  0.39548410546E+02 -0.23362278821E+02 -0.28923028195E+02  0.54280987209E+02  0.10566000000E+00 0.  1.
         23    2    1    0    0    0  0.27749595779E+02 -0.12309017136E+01  0.53118862946E+01  0.96719771555E+02  0.92492934264E+02 0.  0.
         13    1    3    3    0    0 -0.11798814767E+02  0.22131377107E+02  0.34234914489E+02  0.42438784345E+02  0.10566000000E+00 0. -1.
         22    1    1    0    0    0 -0.27749595779E+02  0.12309017136E+01 -0.53118862946E+01  0.28280228445E+02  0.00000000000E+00 0.  1.
</event>
<event>
 5    1  0.9034917E-005  0.9118800E+02  0.7818608E-02  0.1130116E+00
         25   -1    0    0    0    0  0.00000000000E+00  0.00000000000E+00  0.99999998245E-14  0.12500000000E+03  0.12500000000E+03 0.  0.
        -13    1    3    3    0    0  0.15814776601E+02  0.24357321619E+01 -0.32110465465E+02  0.35876637336E+02  0.10566000000E+00 0.  1.
         23    2    1    0    0    0 -0.28175026880E+02  0.56276972778E+01  0.76597105592E+01  0.95264931777E+02  0.90505430469E+02 0.  0.
         13    1    3    3    0    0 -0.43989803481E+02  0.31919651159E+01  0.39770176025E+02  0.59388294441E+02  0.10566000000E+00 0. -1.
         22    1    1    0    0    0  0.28175026880E+02 -0.56276972778E+01 -0.76597105592E+01  0.29735068223E+02  0.00000000000E+00 0. -1.
</event>
<event>
 5    1  0.9034917E-005  0.9118800E+02  0.7818608E-02  0.1130116E+00
         25   -1    0    0    0    0  0.00000000000E+00  0.00000000000E+00  0.99999998245E-14  0.12500000000E+03  0.12500000000E+03 0.  0.
        -13    1    3    3    0    0  0.83248362555E+01 -0.41025249902E+01 -0.38269947141E+02  0.39379355355E+02  0.10566000000E+00 0. -1.
         23    2    1    0    0    0  0.15168300718E+02  0.22275528544E+02  0.11165905259E+02  0.95828884855E+02  0.91281001384E+02 0.  0.
         13    1    3    3    0    0  0.68434644621E+01  0.26378053534E+02  0.49435852400E+02  0.56449529499E+02  0.10566000000E+00 0.  1.
         22    1    1    0    0    0 -0.15168300718E+02 -0.22275528544E+02 -0.11165905259E+02  0.29171115145E+02  0.00000000000E+00 0.  1.
</event>
<event>
 5    1  0.9034917E-005  0.9118800E+02  0.7818608E-02  0.1130116E+00
         25   -1    0    0    0    0  0.00000000000E+00  0.00000000000E+00  0.99999998245E-14  0.12500000000E+03  0.12500000000E+03 0.  0.
        -13    1    3    3    0    0 -0.37418399608E+02 -0.11077497096E+02 -0.22670419877E+02  0.45130994589E+02  0.10566000000E+00 0.  1.
         23    2    1    0    0    0  0.13137135649E+02 -0.20043351248E+02 -0.14125920087E+02  0.97181626924E+02  0.93115018826E+02 0.  0.
         13    1    3    3    0    0  0.50555535257E+02 -0.89658541517E+01  0.85444997901E+01  0.52050632335E+02  0.10566000000E+00 0. -1.
         22    1    1    0    0    0 -0.13137135649E+02  0.20043351248E+02  0.14125920087E+02  0.27818373076E+02  0.00000000000E+00 0.  1.
</event>
<event>
 5    1  0.9034917E-005  0.9118800E+02  0.7818608E-02  0.1130116E+00
         25   -1    0    0    0    0  0.00000000000E+00  0.00000000000E+00  0.99999998245E-14  0.12500000000E+03  0.12500000000E+03 0.  0.
        -13    1    3    3    0    0 -0.19273638029E+02 -0.58653638409E+02  0.68375681638E+01  0.62116712114E+02  0.10566000000E+00 0.  1.
         23    2    1    0    0    0 -0.11477957794E+02 -0.27380634451E+02 -0.10291924515E+01  0.95293066548E+02  0.90544279979E+02 0.  0.
         13    1    3    3    0    0  0.77956802340E+01  0.31273003958E+02 -0.78667606153E+01  0.33176354433E+02  0.10566000000E+00 0. -1.
         22    1    1    0    0    0  0.11477957794E+02  0.27380634451E+02  0.10291924515E+01  0.29706933452E+02  0.00000000000E+00 0.  1.
</event>
<event>
 5    1  0.9034917E-005  0.9118800E+02  0.7818608E-02  0.1130116E+00
         25   -1    0    0    0    0  0.00000000000E+00  0.00000000000E+00  0.99999998245E-14  0.12500000000E+03  0.12500000000E+03 0.  0.
        -13    1    3    3    0    0 -0.21077267139E+02 -0.15741662119E+02  0.52052996387E+02  0.58323037586E+02  0.10566000000E+00 0.  1.
         23    2    1    0    0    0 -0.23371742562E+02 -0.84553184524E+01  0.15405061645E+02  0.95758818683E+02  0.91185002445E+02 0.  0.
         13    1    3    3    0    0 -0.22944754231E+01  0.72863436669E+01 -0.36647934742E+02  0.37435781098E+02  0.10566000000E+00 0. -1.
         22    1    1    0    0    0  0.23371742562E+02  0.84553184524E+01 -0.15405061645E+02  0.29241181317E+02  0.00000000000E+00 0.  1.
</event>
<event>
 5    1  0.9034917E-005  0.9118800E+02  0.7818608E-02  0.1130116E+00
         25   -1    0    0    0    0  0.00000000000E+00  0.00000000000E+00  0.99999998245E-14  0.12500000000E+03  0.12500000000E+03 0.  0.
        -13    1    3    3    0    0 -0.25903870347E+02  0.37387237741E+02 -0.27004902933E+02  0.52896994161E+02  0.10566000000E+00 0. -1.
         23    2    1    0    0    0 -0.21215228234E+02 -0.54586904700E+01 -0.17321012322E+02  0.97073298108E+02  0.92969481698E+02 0.  0.
         13    1    3    3    0    0  0.46886421123E+01 -0.42845928210E+02  0.96838906110E+01  0.44176303948E+02  0.10566000000E+00 0.  1.
         22    1    1    0    0    0  0.21215228234E+02  0.54586904700E+01  0.17321012322E+02  0.27926701892E+02  0.00000000000E+00 0.  1.
</event>
<event>
 5    1  0.9034917E-005  0.9118800E+02  0.7818608E-02  0.1130116E+00
         25   -1    0    0    0    0  0.00000000000E+00  0.00000000000E+00  0.99999998245E-14  0.12500000000E+03  0.12500000000E+03 0.  0.
        -13    1    3    3    0    0  0.16944561114E+02 -0.23558828805E+02 -0.36163690782E+02  0.46367663959E+02  0.10566000000E+00 0. -1.
         23    2    1    0    0    0 -0.23892314979E+02 -0.12053895266E+02 -0.89047844515E+01  0.96796555312E+02  0.92596645879E+02 0.  0.
         13    1    3    3    0    0 -0.40836876093E+02  0.11504933538E+02  0.27258906330E+02  0.50428891353E+02  0.10566000000E+00 0.  1.
         22    1    1    0    0    0  0.23892314979E+02  0.12053895266E+02  0.89047844515E+01  0.28203444688E+02  0.00000000000E+00 0. -1.
</event>
<event>
 5    1  0.9034917E-005  0.9118800E+02  0.7818608E-02  0.1130116E+00
         25   -1    0    0    0    0  0.00000000000E+00  0.00000000000E+00  0.99999998245E-14  0.12500000000E+03  0.12500000000E+03 0.  0.
        -13    1    3    3    0    0 -0.31392829359E+02 -0.13700473673E+02  0.50711896203E+02  0.61195753893E+02  0.10566000000E+00 0. -1.
         23    2    1    0    0    0 -0.57649825124E+01 -0.69781861932E+01  0.26162970095E+02  0.97315507769E+02  0.93294570808E+02 0.  0.
         13    1    3    3    0    0  0.25627846846E+02  0.67222874796E+01 -0.24548926108E+02  0.36119753876E+02  0.10566000000E+00 0.  1.
         22    1    1    0    0    0  0.57649825124E+01  0.69781861932E+01 -0.26162970095E+02  0.27684492231E+02  0.00000000000E+00 0. -1.
</event>
<event>
 5    1  0.9034917E-005  0.9118800E+02  0.7818608E-02  0.1130116E+00
         25   -1    0    0    0    0  0.00000000000E+00  0.00000000000E+00  0.99999998245E-14  0.12500000000E+03  0.12500000000E+03 0.  0.
        -13    1    3    3    0    0  0.29422754413E+02  0.69482593042E+01 -0.17842541037E+02  0.35104760636E+02  0.10566000000E+00 0. -1.
         23    2    1    0    0    0 -0.62592498297E+01 -0.14632659853E+02  0.25302426008E+02  0.95108434222E+02  0.90289027880E+02 0.  0.
         13    1    3    3    0    0 -0.35682004243E+02 -0.21580919157E+02  0.43144967045E+02  0.60003673586E+02  0.10566000000E+00 0.  1.
         22    1    1    0    0    0  0.62592498297E+01  0.14632659853E+02 -0.25302426008E+02  0.29891565778E+02  0.00000000000E+00 0.  1.
</event>
